Generated by Psi4
        SP                        DF-MP2                      6-311G**
Number of atoms                            I               14
Charge                                     I                0
Multiplicity                               I                1
Number of electrons                        I               50
Number of alpha electrons                  I               25
Number of beta electrons                   I               25
Number of basis functions                  I              168
Number of independent functions            I              168
Atomic numbers                             I   N=          14
           7           6           6           6           6           6
           6           1           1           1           1           1
           1           1
Nuclear charges                            R   N=          14
  7.00000000e+00  6.00000000e+00  6.00000000e+00  6.00000000e+00  6.00000000e+00
  6.00000000e+00  6.00000000e+00  1.00000000e+00  1.00000000e+00  1.00000000e+00
  1.00000000e+00  1.00000000e+00  1.00000000e+00  1.00000000e+00
Current cartesian coordinates              R   N=          42
 -4.42689056e+00 -3.26895057e-04  2.20645890e-01 -1.77984427e+00 -1.00546564e-04
  1.96012500e-02 -4.32893965e-01  2.27864153e+00  1.14526503e-02 -4.32642244e-01
 -2.27869430e+00  9.65492687e-03  2.19778421e+00  2.27251166e+00 -5.46597350e-02
  2.19803489e+00 -2.27223567e+00 -5.64666504e-02  3.53275994e+00  2.18839512e-04
 -8.22474218e-02 -1.45913654e+00  4.06108185e+00  4.23666731e-02 -1.45869204e+00
 -4.06126513e+00  3.91745670e-02  3.20805437e+00  4.06166608e+00 -7.24976885e-02
  3.20850357e+00 -4.06126674e+00 -7.57218914e-02  5.58479731e+00  3.45615934e-04
 -1.34528720e-01 -5.24037338e+00 -1.56975839e+00 -5.24070198e-01 -5.24052539e+00
  1.56967237e+00 -5.22698263e-01
Integer atomic weights                     I   N=          14
          14          12          12          12          12          12
          12           1           1           1           1           1
           1           1
Real atomic weights                        R   N=          14
  1.40030740e+01  1.20000000e+01  1.20000000e+01  1.20000000e+01  1.20000000e+01
  1.20000000e+01  1.20000000e+01  1.00782503e+00  1.00782503e+00  1.00782503e+00
  1.00782503e+00  1.00782503e+00  1.00782503e+00  1.00782503e+00
Number of primitive shells                 I              161
Number of contracted shells                I               84
Pure/Cartesian d shells                    I                0
Pure/Cartesian f shells                    I                0
Highest angular momentum                   I                2
Largest degree of contraction              I                6
Shell types                                I   N=          84
           0           0           1           0           1           0
           1          -2           0           0           1           0
           1           0           1          -2           0           0
           1           0           1           0           1          -2
           0           0           1           0           1           0
           1          -2           0           0           1           0
           1           0           1          -2           0           0
           1           0           1           0           1          -2
           0           0           1           0           1           0
           1          -2           0           0           0           1
           0           0           0           1           0           0
           0           1           0           0           0           1
           0           0           0           1           0           0
           0           1           0           0           0           1
Number of primitives per shell             I   N=          84
           6           3           3           1           1           1
           1           1           6           3           3           1
           1           1           1           1           6           3
           3           1           1           1           1           1
           6           3           3           1           1           1
           1           1           6           3           3           1
           1           1           1           1           6           3
           3           1           1           1           1           1
           6           3           3           1           1           1
           1           1           3           1           1           1
           3           1           1           1           3           1
           1           1           3           1           1           1
           3           1           1           1           3           1
           1           1           3           1           1           1
Shell to atom map                          I   N=          84
           1           1           1           1           1           1
           1           1           2           2           2           2
           2           2           2           2           3           3
           3           3           3           3           3           3
           4           4           4           4           4           4
           4           4           5           5           5           5
           5           5           5           5           6           6
           6           6           6           6           6           6
           7           7           7           7           7           7
           7           7           8           8           8           8
           9           9           9           9          10          10
          10          10          11          11          11          11
          12          12          12          12          13          13
          13          13          14          14          14          14
Primitive exponents                        R   N=         161
  6.29348000e+03  9.49044000e+02  2.18776000e+02  6.36916000e+01  1.88282000e+01
  2.72023000e+00  3.06331000e+01  7.02614000e+00  2.11205000e+00  3.06331000e+01
  7.02614000e+00  2.11205000e+00  6.84009000e-01  6.84009000e-01  2.00878000e-01
  2.00878000e-01  9.13000000e-01  4.56324000e+03  6.82024000e+02  1.54973000e+02
  4.44553000e+01  1.30290000e+01  1.82773000e+00  2.09642000e+01  4.80331000e+00
  1.45933000e+00  2.09642000e+01  4.80331000e+00  1.45933000e+00  4.83456000e-01
  4.83456000e-01  1.45585000e-01  1.45585000e-01  6.26000000e-01  4.56324000e+03
  6.82024000e+02  1.54973000e+02  4.44553000e+01  1.30290000e+01  1.82773000e+00
  2.09642000e+01  4.80331000e+00  1.45933000e+00  2.09642000e+01  4.80331000e+00
  1.45933000e+00  4.83456000e-01  4.83456000e-01  1.45585000e-01  1.45585000e-01
  6.26000000e-01  4.56324000e+03  6.82024000e+02  1.54973000e+02  4.44553000e+01
  1.30290000e+01  1.82773000e+00  2.09642000e+01  4.80331000e+00  1.45933000e+00
  2.09642000e+01  4.80331000e+00  1.45933000e+00  4.83456000e-01  4.83456000e-01
  1.45585000e-01  1.45585000e-01  6.26000000e-01  4.56324000e+03  6.82024000e+02
  1.54973000e+02  4.44553000e+01  1.30290000e+01  1.82773000e+00  2.09642000e+01
  4.80331000e+00  1.45933000e+00  2.09642000e+01  4.80331000e+00  1.45933000e+00
  4.83456000e-01  4.83456000e-01  1.45585000e-01  1.45585000e-01  6.26000000e-01
  4.56324000e+03  6.82024000e+02  1.54973000e+02  4.44553000e+01  1.30290000e+01
  1.82773000e+00  2.09642000e+01  4.80331000e+00  1.45933000e+00  2.09642000e+01
  4.80331000e+00  1.45933000e+00  4.83456000e-01  4.83456000e-01  1.45585000e-01
  1.45585000e-01  6.26000000e-01  4.56324000e+03  6.82024000e+02  1.54973000e+02
  4.44553000e+01  1.30290000e+01  1.82773000e+00  2.09642000e+01  4.80331000e+00
  1.45933000e+00  2.09642000e+01  4.80331000e+00  1.45933000e+00  4.83456000e-01
  4.83456000e-01  1.45585000e-01  1.45585000e-01  6.26000000e-01  3.38650000e+01
  5.09479000e+00  1.15879000e+00  3.25840000e-01  1.02741000e-01  7.50000000e-01
  3.38650000e+01  5.09479000e+00  1.15879000e+00  3.25840000e-01  1.02741000e-01
  7.50000000e-01  3.38650000e+01  5.09479000e+00  1.15879000e+00  3.25840000e-01
  1.02741000e-01  7.50000000e-01  3.38650000e+01  5.09479000e+00  1.15879000e+00
  3.25840000e-01  1.02741000e-01  7.50000000e-01  3.38650000e+01  5.09479000e+00
  1.15879000e+00  3.25840000e-01  1.02741000e-01  7.50000000e-01  3.38650000e+01
  5.09479000e+00  1.15879000e+00  3.25840000e-01  1.02741000e-01  7.50000000e-01
  3.38650000e+01  5.09479000e+00  1.15879000e+00  3.25840000e-01  1.02741000e-01
  7.50000000e-01
Contraction coefficients                   R   N=         161
  1.96978815e-03  1.49612859e-02  7.35005308e-02  2.48936766e-01  6.02459433e-01
  2.56201759e-01  1.11906080e-01  9.21666655e-01 -2.56919183e-03  3.83119186e-02
  2.37403116e-01  8.17592398e-01  1.00000000e+00  1.00000000e+00  1.00000000e+00
  1.00000000e+00  1.00000000e+00  1.96665025e-03  1.52306019e-02  7.61269097e-02
  2.60801033e-01  6.16462078e-01  2.21006028e-01  1.14660081e-01  9.19999648e-01
 -3.03068213e-03  4.02486927e-02  2.37593957e-01  8.15853851e-01  1.00000000e+00
  1.00000000e+00  1.00000000e+00  1.00000000e+00  1.00000000e+00  1.96665025e-03
  1.52306019e-02  7.61269097e-02  2.60801033e-01  6.16462078e-01  2.21006028e-01
  1.14660081e-01  9.19999648e-01 -3.03068213e-03  4.02486927e-02  2.37593957e-01
  8.15853851e-01  1.00000000e+00  1.00000000e+00  1.00000000e+00  1.00000000e+00
  1.00000000e+00  1.96665025e-03  1.52306019e-02  7.61269097e-02  2.60801033e-01
  6.16462078e-01  2.21006028e-01  1.14660081e-01  9.19999648e-01 -3.03068213e-03
  4.02486927e-02  2.37593957e-01  8.15853851e-01  1.00000000e+00  1.00000000e+00
  1.00000000e+00  1.00000000e+00  1.00000000e+00  1.96665025e-03  1.52306019e-02
  7.61269097e-02  2.60801033e-01  6.16462078e-01  2.21006028e-01  1.14660081e-01
  9.19999648e-01 -3.03068213e-03  4.02486927e-02  2.37593957e-01  8.15853851e-01
  1.00000000e+00  1.00000000e+00  1.00000000e+00  1.00000000e+00  1.00000000e+00
  1.96665025e-03  1.52306019e-02  7.61269097e-02  2.60801033e-01  6.16462078e-01
  2.21006028e-01  1.14660081e-01  9.19999648e-01 -3.03068213e-03  4.02486927e-02
  2.37593957e-01  8.15853851e-01  1.00000000e+00  1.00000000e+00  1.00000000e+00
  1.00000000e+00  1.00000000e+00  1.96665025e-03  1.52306019e-02  7.61269097e-02
  2.60801033e-01  6.16462078e-01  2.21006028e-01  1.14660081e-01  9.19999648e-01
 -3.03068213e-03  4.02486927e-02  2.37593957e-01  8.15853851e-01  1.00000000e+00
  1.00000000e+00  1.00000000e+00  1.00000000e+00  1.00000000e+00  2.54938145e-02
  1.90373109e-01  8.52161486e-01  1.00000000e+00  1.00000000e+00  1.00000000e+00
  2.54938145e-02  1.90373109e-01  8.52161486e-01  1.00000000e+00  1.00000000e+00
  1.00000000e+00  2.54938145e-02  1.90373109e-01  8.52161486e-01  1.00000000e+00
  1.00000000e+00  1.00000000e+00  2.54938145e-02  1.90373109e-01  8.52161486e-01
  1.00000000e+00  1.00000000e+00  1.00000000e+00  2.54938145e-02  1.90373109e-01
  8.52161486e-01  1.00000000e+00  1.00000000e+00  1.00000000e+00  2.54938145e-02
  1.90373109e-01  8.52161486e-01  1.00000000e+00  1.00000000e+00  1.00000000e+00
  2.54938145e-02  1.90373109e-01  8.52161486e-01  1.00000000e+00  1.00000000e+00
  1.00000000e+00
Coordinates of each shell                  R   N=         252
 -4.42689056e+00 -3.26895057e-04  2.20645890e-01 -4.42689056e+00 -3.26895057e-04
  2.20645890e-01 -4.42689056e+00 -3.26895057e-04  2.20645890e-01 -4.42689056e+00
 -3.26895057e-04  2.20645890e-01 -4.42689056e+00 -3.26895057e-04  2.20645890e-01
 -4.42689056e+00 -3.26895057e-04  2.20645890e-01 -4.42689056e+00 -3.26895057e-04
  2.20645890e-01 -4.42689056e+00 -3.26895057e-04  2.20645890e-01 -1.77984427e+00
 -1.00546564e-04  1.96012500e-02 -1.77984427e+00 -1.00546564e-04  1.96012500e-02
 -1.77984427e+00 -1.00546564e-04  1.96012500e-02 -1.77984427e+00 -1.00546564e-04
  1.96012500e-02 -1.77984427e+00 -1.00546564e-04  1.96012500e-02 -1.77984427e+00
 -1.00546564e-04  1.96012500e-02 -1.77984427e+00 -1.00546564e-04  1.96012500e-02
 -1.77984427e+00 -1.00546564e-04  1.96012500e-02 -4.32893965e-01  2.27864153e+00
  1.14526503e-02 -4.32893965e-01  2.27864153e+00  1.14526503e-02 -4.32893965e-01
  2.27864153e+00  1.14526503e-02 -4.32893965e-01  2.27864153e+00  1.14526503e-02
 -4.32893965e-01  2.27864153e+00  1.14526503e-02 -4.32893965e-01  2.27864153e+00
  1.14526503e-02 -4.32893965e-01  2.27864153e+00  1.14526503e-02 -4.32893965e-01
  2.27864153e+00  1.14526503e-02 -4.32642244e-01 -2.27869430e+00  9.65492687e-03
 -4.32642244e-01 -2.27869430e+00  9.65492687e-03 -4.32642244e-01 -2.27869430e+00
  9.65492687e-03 -4.32642244e-01 -2.27869430e+00  9.65492687e-03 -4.32642244e-01
 -2.27869430e+00  9.65492687e-03 -4.32642244e-01 -2.27869430e+00  9.65492687e-03
 -4.32642244e-01 -2.27869430e+00  9.65492687e-03 -4.32642244e-01 -2.27869430e+00
  9.65492687e-03  2.19778421e+00  2.27251166e+00 -5.46597350e-02  2.19778421e+00
  2.27251166e+00 -5.46597350e-02  2.19778421e+00  2.27251166e+00 -5.46597350e-02
  2.19778421e+00  2.27251166e+00 -5.46597350e-02  2.19778421e+00  2.27251166e+00
 -5.46597350e-02  2.19778421e+00  2.27251166e+00 -5.46597350e-02  2.19778421e+00
  2.27251166e+00 -5.46597350e-02  2.19778421e+00  2.27251166e+00 -5.46597350e-02
  2.19803489e+00 -2.27223567e+00 -5.64666504e-02  2.19803489e+00 -2.27223567e+00
 -5.64666504e-02  2.19803489e+00 -2.27223567e+00 -5.64666504e-02  2.19803489e+00
 -2.27223567e+00 -5.64666504e-02  2.19803489e+00 -2.27223567e+00 -5.64666504e-02
  2.19803489e+00 -2.27223567e+00 -5.64666504e-02  2.19803489e+00 -2.27223567e+00
 -5.64666504e-02  2.19803489e+00 -2.27223567e+00 -5.64666504e-02  3.53275994e+00
  2.18839512e-04 -8.22474218e-02  3.53275994e+00  2.18839512e-04 -8.22474218e-02
  3.53275994e+00  2.18839512e-04 -8.22474218e-02  3.53275994e+00  2.18839512e-04
 -8.22474218e-02  3.53275994e+00  2.18839512e-04 -8.22474218e-02  3.53275994e+00
  2.18839512e-04 -8.22474218e-02  3.53275994e+00  2.18839512e-04 -8.22474218e-02
  3.53275994e+00  2.18839512e-04 -8.22474218e-02 -1.45913654e+00  4.06108185e+00
  4.23666731e-02 -1.45913654e+00  4.06108185e+00  4.23666731e-02 -1.45913654e+00
  4.06108185e+00  4.23666731e-02 -1.45913654e+00  4.06108185e+00  4.23666731e-02
 -1.45869204e+00 -4.06126513e+00  3.91745670e-02 -1.45869204e+00 -4.06126513e+00
  3.91745670e-02 -1.45869204e+00 -4.06126513e+00  3.91745670e-02 -1.45869204e+00
 -4.06126513e+00  3.91745670e-02  3.20805437e+00  4.06166608e+00 -7.24976885e-02
  3.20805437e+00  4.06166608e+00 -7.24976885e-02  3.20805437e+00  4.06166608e+00
 -7.24976885e-02  3.20805437e+00  4.06166608e+00 -7.24976885e-02  3.20850357e+00
 -4.06126674e+00 -7.57218914e-02  3.20850357e+00 -4.06126674e+00 -7.57218914e-02
  3.20850357e+00 -4.06126674e+00 -7.57218914e-02  3.20850357e+00 -4.06126674e+00
 -7.57218914e-02  5.58479731e+00  3.45615934e-04 -1.34528720e-01  5.58479731e+00
  3.45615934e-04 -1.34528720e-01  5.58479731e+00  3.45615934e-04 -1.34528720e-01
  5.58479731e+00  3.45615934e-04 -1.34528720e-01 -5.24037338e+00 -1.56975839e+00
 -5.24070198e-01 -5.24037338e+00 -1.56975839e+00 -5.24070198e-01 -5.24037338e+00
 -1.56975839e+00 -5.24070198e-01 -5.24037338e+00 -1.56975839e+00 -5.24070198e-01
 -5.24052539e+00  1.56967237e+00 -5.22698263e-01 -5.24052539e+00  1.56967237e+00
 -5.22698263e-01 -5.24052539e+00  1.56967237e+00 -5.22698263e-01 -5.24052539e+00
  1.56967237e+00 -5.22698263e-01
Total Energy                               R     -2.868043988036163e+02
Alpha Orbital Energies                     R   N=         168
 -1.55589193e+01 -1.12759887e+01 -1.12343367e+01 -1.12343023e+01 -1.12228323e+01
 -1.12228138e+01 -1.12187650e+01 -1.21966251e+00 -1.12418441e+00 -1.01002489e+00
 -9.83519746e-01 -8.29304389e-01 -8.09112998e-01 -7.01128419e-01 -6.78386440e-01
 -6.51736232e-01 -5.95747179e-01 -5.89602644e-01 -5.79070730e-01 -5.31299986e-01
 -5.04015046e-01 -4.87182453e-01 -4.46828253e-01 -3.34562720e-01 -2.94471948e-01
  1.34427764e-01  1.48725394e-01  1.58346428e-01  1.67918974e-01  1.79389426e-01
  2.08813444e-01  2.09144422e-01  2.42992118e-01  2.60191584e-01  3.54613787e-01
  4.00034673e-01  4.32887861e-01  4.39713876e-01  4.54724877e-01  4.77019189e-01
  5.07862120e-01  5.28695432e-01  5.78357155e-01  5.85619125e-01  5.89481801e-01
  6.20123740e-01  6.23900894e-01  6.36647293e-01  6.42076919e-01  6.43005015e-01
  6.52162458e-01  6.75249973e-01  7.19968408e-01  7.20744541e-01  7.44210235e-01
  7.64115679e-01  8.07982550e-01  8.14688388e-01  8.27352574e-01  8.32129193e-01
  8.34926877e-01  8.64938000e-01  8.75870080e-01  9.03777721e-01  9.25639016e-01
  9.47706674e-01  9.61063038e-01  1.00024031e+00  1.03398147e+00  1.06761328e+00
  1.07946582e+00  1.09079361e+00  1.13512198e+00  1.19048326e+00  1.20724936e+00
  1.21624739e+00  1.26105413e+00  1.33058330e+00  1.34185266e+00  1.39816248e+00
  1.40977087e+00  1.43523905e+00  1.46296369e+00  1.58921366e+00  1.65789682e+00
  1.71159713e+00  1.73086651e+00  1.75335416e+00  1.76738286e+00  1.80421638e+00
  1.82524638e+00  1.82718003e+00  1.84619412e+00  1.87425825e+00  1.88506671e+00
  1.89160124e+00  1.94104862e+00  1.95644602e+00  2.01272606e+00  2.03787908e+00
  2.04675987e+00  2.05785804e+00  2.11410047e+00  2.15922983e+00  2.18007148e+00
  2.20693873e+00  2.21352371e+00  2.21533014e+00  2.23469888e+00  2.23737467e+00
  2.28523579e+00  2.32525918e+00  2.33603510e+00  2.37681100e+00  2.37777080e+00
  2.56780299e+00  2.58323107e+00  2.60372425e+00  2.65558575e+00  2.66770994e+00
  2.70601379e+00  2.76172920e+00  2.76486775e+00  2.82016194e+00  2.91047252e+00
  2.91509135e+00  2.93255577e+00  2.94557525e+00  2.95125167e+00  2.95127431e+00
  2.97088494e+00  2.97501154e+00  3.02262594e+00  3.05133593e+00  3.07508029e+00
  3.12127294e+00  3.14148800e+00  3.21575901e+00  3.21789846e+00  3.26470692e+00
  3.28425562e+00  3.28693888e+00  3.35392010e+00  3.45751698e+00  3.55123397e+00
  3.64818665e+00  3.72015246e+00  3.76230069e+00  3.81142700e+00  3.89340864e+00
  3.90134296e+00  4.02737413e+00  4.20647883e+00  4.36759957e+00  4.41132940e+00
  4.47562793e+00  4.52078221e+00  4.52734809e+00  5.23098199e+00  5.28569288e+00
  5.45206676e+00  2.46471518e+01  2.50833304e+01  2.51024747e+01  2.52354595e+01
  2.52663046e+01  2.53561736e+01  3.70413620e+01
Alpha MO coefficients                      R   N=       28224
  5.57621231e-01  4.68222350e-01  3.76667817e-04  6.61909982e-07 -1.47139451e-03
  5.28203488e-03 -1.02330456e-04 -2.50795463e-07  5.64958368e-04 -2.23234430e-03
 -6.25260960e-04 -5.71520526e-08  2.12720340e-05  1.21804035e-04 -3.28575976e-05
 -8.35106680e-08 -2.57984767e-05  1.13937060e-08  1.28649266e-05 -3.89640527e-05
 -8.76247658e-05 -1.21908228e-08  1.85540565e-05  2.58914999e-04 -2.51684163e-04
 -1.11676921e-09 -3.81118832e-05 -7.27924563e-06 -1.99023318e-03 -9.67738342e-08
  1.16677941e-04 -3.58577932e-05  3.50970049e-05 -3.90274199e-08  1.63294199e-04
  1.16502443e-09  1.96119356e-08  2.52307734e-06  4.66690773e-06  1.86260962e-05
  2.72477942e-06 -4.11216981e-05 -5.75612294e-06 -9.84619500e-05 -5.77044201e-06
  1.02102560e-03  6.39361731e-04 -6.24528524e-04 -2.68738251e-05 -1.25854540e-05
 -6.93251018e-06  6.90139061e-06  6.37152500e-06  3.38942678e-05  1.95529863e-08
  2.52321307e-06  4.66876710e-06 -1.86275215e-05  2.71028854e-06 -4.11242519e-05
 -5.76385135e-06  9.84636426e-05 -5.69438881e-06  1.02107408e-03  6.39228282e-04
  6.24660384e-04 -2.63822309e-05 -1.25956099e-05 -6.95806103e-06 -6.89016185e-06
  6.37600385e-06 -3.38875262e-05 -5.90877512e-07  1.53208621e-06 -6.61557915e-06
 -2.05525546e-07 -1.83943044e-06 -1.04934096e-05  3.73543476e-05  6.92661043e-06
  6.42003415e-06 -8.15233809e-04  2.14582430e-04  1.79628880e-04 -1.61689040e-05
 -5.29150559e-06 -2.00440460e-06  1.55090541e-06 -6.67272075e-06  6.59544097e-06
 -5.90889175e-07  1.53214294e-06 -6.61597080e-06  2.06156181e-07 -1.83917929e-06
 -1.04933641e-05  3.73583665e-05 -6.92693528e-06  6.41414043e-06 -8.15219110e-04
  2.14569191e-04 -1.79625373e-04 -1.63125052e-05 -5.29362343e-06 -2.00926034e-06
 -1.53868625e-06 -6.67402626e-06 -6.59494779e-06 -5.54824149e-07  3.22386451e-06
 -1.16189747e-06  2.01507272e-10 -7.35093590e-07 -3.38344106e-05  9.03694569e-06
  5.04708178e-10  1.25228560e-06  4.30127861e-04 -2.61456193e-04 -3.41194446e-08
  8.00091915e-06 -5.86167375e-06  1.14903305e-06  4.84749104e-09 -1.99091941e-06
 -1.12219983e-09 -2.00388837e-05  2.27497634e-04  1.45080365e-04  1.95911880e-05
 -2.90408868e-05 -1.23288034e-06 -2.00384804e-05  2.27493496e-04  1.45086367e-04
  1.95904927e-05  2.90431177e-05 -1.21063307e-06 -5.18702072e-06  2.66121155e-08
 -2.12061902e-05 -1.96418509e-06  2.82712409e-06  1.24001641e-06 -5.18674362e-06
  2.13700150e-08 -2.12097100e-05 -1.96250154e-06 -2.82818830e-06  1.23792167e-06
 -6.63313039e-06  3.47126791e-05  4.56363982e-05  1.44142154e-06  8.29444935e-10
 -4.56379933e-07  2.43680013e-04  2.50392835e-04  2.16096249e-06  7.76849589e-05
  7.24639330e-05 -1.60587411e-05  2.43680790e-04  2.50402296e-04  2.17055359e-06
  7.76931155e-05 -7.24427128e-05 -1.61206973e-05  1.13275838e-04  1.93031014e-04
 -1.12896979e-04 -1.74331753e-08  2.62217362e-05 -5.51873691e-04 -6.22353425e-04
 -1.95080810e-08 -2.63524046e-05  1.40167854e-03  4.88727211e-04  7.47437422e-08
 -1.12049774e-04  3.50607841e-05  6.27925762e-05  7.66881174e-08 -2.34960160e-04
 -5.27011033e-08 -5.63332942e-01 -4.66517625e-01  8.26264323e-04  7.48059675e-08
 -6.67926074e-05 -4.02453339e-03 -8.66780335e-04 -7.98816546e-08  4.35519972e-05
  3.85923121e-04  1.96641828e-03  1.22785612e-07 -4.61034954e-05  4.09651853e-04
 -4.99090528e-06 -3.80559584e-07  2.49504868e-04  2.12844615e-08 -6.14722127e-03
 -5.04478534e-03  1.09597817e-04  1.90006929e-04 -4.98975207e-07 -2.28145073e-04
  3.57337106e-05  3.17950114e-05 -4.17808797e-06 -1.07705507e-03 -6.78098734e-04
  5.48804153e-04  2.03472693e-05 -6.29128904e-05  8.66290230e-07  3.70670053e-06
  5.62157918e-06 -6.37525077e-05 -6.14708755e-03 -5.04467387e-03  1.09616404e-04
 -1.89991520e-04 -6.48840138e-07 -2.28146855e-04  3.57435712e-05 -3.18015650e-05
 -4.20397466e-06 -1.07706676e-03 -6.78038841e-04 -5.48896205e-04  1.99170339e-05
 -6.29158897e-05  9.17031029e-07 -3.62594704e-06  5.60776486e-06  6.37571817e-05
 -2.70998251e-05 -2.38893975e-05  3.34024754e-06 -6.97094120e-06  3.89901738e-07
  8.62458972e-06 -2.49215588e-05  1.00251945e-05 -9.12220410e-07  8.18487077e-04
 -3.12961898e-04 -6.67618462e-05  1.28741922e-05  1.66747794e-06 -1.62137422e-07
 -1.60042213e-09  7.85044639e-06 -4.20516886e-05 -2.70974985e-05 -2.38873064e-05
  3.33930394e-06  6.97078745e-06  3.95437158e-07  8.62339613e-06 -2.49192544e-05
 -1.00258832e-05 -9.20226562e-07  8.18494216e-04 -3.12970526e-04  6.67270972e-05
  1.29302539e-05  1.66776638e-06 -1.29021041e-07 -6.86142288e-09  7.84064093e-06
  4.20533034e-05  9.12582851e-05  7.21766197e-05  5.97993705e-07 -1.36598923e-10
  2.33657912e-08  3.03541612e-05 -1.30075108e-05  3.47754325e-10 -8.06087039e-08
 -1.84489332e-04  2.62980904e-04  1.89243286e-08 -8.37753612e-06  9.06040457e-06
 -4.13339576e-07 -1.28011792e-08  1.67343207e-05  1.69675790e-09 -2.32404529e-06
 -1.06937090e-04 -2.08522219e-04  1.96756949e-05  2.16585371e-05  9.67280834e-09
 -2.32410704e-06 -1.06941061e-04 -2.08518946e-04  1.96768831e-05 -2.16577796e-05
 -6.94044257e-09  7.83552153e-06 -2.56601271e-05  1.52221624e-05  1.41653225e-05
 -1.03695606e-05 -8.22394099e-07  7.83526773e-06 -2.56577607e-05  1.52239468e-05
  1.41638968e-05  1.03718023e-05 -8.14442032e-07  6.61567763e-06 -6.90222666e-05
 -5.01661793e-05  4.14479367e-06  1.62488029e-11  4.14164266e-08 -1.76695927e-05
 -1.80591137e-04  1.09671256e-04 -5.27563814e-05 -8.61801939e-05 -3.49118400e-05
 -1.76713338e-05 -1.80593146e-04  1.09672551e-04 -5.27650481e-05  8.62068107e-05
 -3.48364467e-05 -5.95232149e-07 -1.69416723e-06 -4.35699364e-07 -6.78249224e-09
 -8.76950128e-07  1.25283806e-05  9.22561191e-06  1.87781710e-08  1.74576146e-06
 -7.51895691e-05 -4.38020583e-05  3.28634933e-07 -2.27014291e-06  1.77205228e-06
  1.25922498e-06 -4.80589295e-09 -4.06857673e-06  4.09716284e-08 -4.93882113e-04
 -4.16978817e-04  2.52454333e-06  4.22096118e-08 -7.67501858e-07  5.44020578e-05
  1.34515221e-05  1.30267221e-07  2.60119246e-06 -7.95059537e-04 -3.70345944e-04
 -2.25081047e-06  1.11153155e-06  8.22434571e-06 -1.61708613e-06 -2.76825585e-08
  3.66820675e-05  1.17912176e-07  2.07907904e-02  1.71783130e-02  1.52721525e-04
  2.34850500e-06 -4.58271541e-06  3.29550534e-04  9.18605806e-05 -5.78944294e-06
 -2.20786964e-06  5.39382506e-04  9.65010004e-05 -4.67981106e-04 -3.06101896e-06
  2.55994731e-05 -7.41920267e-07 -1.20597811e-08  7.54868173e-05  8.73380314e-06
  2.06178586e-02  1.70354199e-02  1.51484272e-04 -2.34220864e-06 -4.54437123e-06
  3.26805827e-04  9.11434159e-05  5.85873903e-06 -2.20528349e-06  5.35369413e-04
  9.79327313e-05  4.65747199e-04 -2.66660801e-06  2.53449753e-05 -7.48564427e-07
 -8.20650602e-08  7.49455629e-05 -8.79398519e-06  3.98788667e-01  3.30281268e-01
  2.50556396e-05  1.17432362e-04 -3.22995541e-06  2.99136252e-03 -6.74824352e-05
 -2.00219757e-04  3.97720194e-06 -7.86928783e-04  1.49507820e-04  5.63622209e-04
 -6.35083879e-06 -3.01840930e-04 -1.23643068e-05  2.40746051e-06  5.46815467e-06
 -6.48166725e-05  3.95590000e-01  3.27632059e-01  2.49495197e-05 -1.16446692e-04
 -3.30059046e-06  2.96765052e-03 -6.69683544e-05  1.98712619e-04  4.11320913e-06
 -7.86630675e-04  1.48030249e-04 -5.61395764e-04 -6.78371846e-06 -2.99368333e-04
 -1.22027240e-05 -1.98072609e-06  5.06377904e-06  6.41935960e-05  3.07938749e-02
  2.54274584e-02 -1.57845217e-04  1.09307761e-06  3.00840822e-06  5.60492718e-04
 -4.81332267e-05  4.48304061e-07  1.42011074e-06  8.44983916e-04 -5.20298146e-04
 -7.99209729e-07  1.27965123e-05  7.32997403e-05  4.31886029e-06 -1.76251111e-08
 -5.82820480e-05 -4.11767712e-07  1.78042984e-05  6.93928805e-05  1.12625635e-04
  2.71916044e-05  2.80253337e-06 -8.54584596e-07  1.76221595e-05  6.96486017e-05
  1.12167693e-04  2.70041352e-05 -2.69155636e-06 -8.55507189e-07  3.07609155e-04
 -1.73353394e-04  3.12056314e-05  8.01533588e-06 -1.06754236e-05  9.77085335e-08
  3.05132665e-04 -1.71851341e-04  3.07501752e-05  8.09364655e-06  1.06759090e-05
  1.06552769e-07  3.17575947e-05  1.91506770e-05  1.54774289e-04 -4.63681241e-06
  1.85055271e-07  2.36468481e-07 -4.15093321e-08 -3.35004482e-06 -2.05875634e-05
  3.65742008e-07  3.38311430e-07 -3.20893033e-07 -6.25258706e-08 -3.37454953e-06
 -2.07423956e-05  3.98202962e-07 -3.43966057e-07 -3.58679160e-07  2.39498128e-09
  6.79815178e-09  1.86106480e-09 -1.78725130e-06  2.87438056e-09 -5.07438712e-08
 -3.74616621e-08  4.75002819e-06 -5.60849794e-09  3.06195912e-07  1.70447304e-07
  8.12210576e-05  3.98630899e-08 -8.13322133e-09 -7.78857151e-10 -1.25607086e-06
  1.44994516e-08  1.04677328e-05  1.97886312e-06  1.67081832e-06 -1.05227517e-08
  1.03284085e-05  7.26667786e-09 -2.17936391e-07 -5.60306776e-08  3.26517325e-05
  1.95272220e-09  3.17881761e-06  1.51321220e-06 -5.52655265e-04 -2.20440221e-07
 -3.39749222e-08  1.76707630e-08 -1.85761389e-06 -1.51651237e-07  2.82428260e-05
  2.14241419e-02  1.77027166e-02  1.53263833e-04 -1.75091020e-06 -5.15703882e-06
  3.40035178e-04  8.88385232e-05  7.40124585e-06  2.04105360e-07  4.95963899e-04
 -1.83799139e-04 -2.76288727e-04 -3.35321317e-06  3.15877512e-05 -3.64910154e-08
 -2.28796478e-09  6.72639894e-05 -9.57391792e-06 -2.15906413e-02 -1.78402860e-02
 -1.54487072e-04 -1.75327847e-06  5.19387214e-06 -3.42675424e-04 -8.95745095e-05
  7.34661601e-06 -1.80595148e-07 -5.00259094e-04  1.83050379e-04 -2.80011571e-04
  3.15509202e-06 -3.17930773e-05  3.49881920e-08  9.49508574e-08 -6.78673002e-05
 -9.51719428e-06  3.96151748e-01  3.28102011e-01  1.48227069e-05  1.21927496e-04
 -2.70860199e-06  2.93726150e-03 -6.60332878e-05 -1.86987929e-04  2.92783009e-06
 -3.40599709e-05  1.91452529e-04  2.71405562e-04 -1.77462562e-06 -3.06795627e-04
 -1.38646866e-05  2.59978485e-06  4.82013900e-05 -7.92330037e-05 -3.99345872e-01
 -3.30747421e-01 -1.50385491e-05  1.22868077e-04  2.83217432e-06 -2.96122636e-03
  6.65921958e-05 -1.88596701e-04 -3.11169756e-06  4.03557575e-05 -1.92672529e-04
  2.75888725e-04  2.04580601e-06  3.09217726e-04  1.39016072e-05  2.23407126e-06
 -4.82233178e-05 -7.97778424e-05 -1.24325084e-04 -1.02660625e-04  6.21082595e-07
  2.74718369e-04  9.69851013e-08 -2.25767757e-06  1.83774092e-07  1.10962839e-04
  3.85198750e-08 -3.37321113e-06  2.09060222e-06 -1.91354937e-04 -1.27810494e-07
 -2.94327710e-07 -5.73926478e-08  2.38816433e-06  2.45486255e-07 -9.99943969e-05
  2.26320340e-05 -3.22901755e-05  5.63235609e-05  2.31841468e-05  1.33618121e-05
 -2.05868601e-07 -2.27749189e-05  3.17329451e-05 -5.72247247e-05 -2.34033299e-05
  1.33812355e-05  2.23708889e-07  3.06648997e-04 -1.85355605e-04  5.63182659e-05
 -1.01472476e-05 -2.16569719e-07 -2.80821466e-09 -3.09111832e-04  1.86735944e-04
 -5.65690539e-05  1.00840951e-05 -3.03042682e-07  1.47262611e-09 -1.28504647e-07
 -7.41774467e-08 -6.21514778e-07  1.56663766e-08  4.61312719e-05  1.74733587e-08
  2.63035970e-06  2.72770065e-06  1.91111510e-05 -4.07592507e-06 -8.01799349e-07
  4.60934948e-06 -2.62954624e-06 -2.70610354e-06 -1.89458208e-05  4.07259160e-06
 -7.93313748e-07 -4.60708341e-06  5.44117924e-08  3.36113503e-08 -1.56728306e-07
 -1.20214646e-05 -1.90835784e-08  3.49991603e-07  3.17551409e-07  1.94053106e-05
  1.13686852e-07 -2.44042278e-06 -1.36958850e-06  1.41235315e-05  2.59973727e-07
  5.84324109e-08 -2.75706822e-08  8.10378098e-07  2.81742362e-08  2.57921588e-05
 -6.56225112e-05 -5.49886488e-05  1.23442396e-06  2.75806186e-04  9.14349803e-08
  2.46486640e-06  3.70967928e-07  1.89665526e-04  7.56954021e-08  6.09011896e-06
  3.63478882e-07 -3.52146564e-04 -1.63442510e-07  6.33161145e-07  9.43392646e-08
 -5.80365858e-06 -4.52224622e-07  1.17356449e-04  4.00641088e-01  3.31830298e-01
 -1.15407571e-04  2.86243555e-05 -1.75347604e-05  3.08257090e-03  1.55796503e-04