Generated by Psi4
        SP                        DF-MP2                      6-311G**
Number of atoms                            I                7
Charge                                     I                0
Multiplicity                               I                1
Number of electrons                        I               18
Number of alpha electrons                  I                9
Number of beta electrons                   I                9
Number of basis functions                  I               66
Number of independent functions            I               66
Atomic numbers                             I   N=           7
           7           6           1           1           1           1
           1
Nuclear charges                            R   N=           7
  7.00000000e+00  6.00000000e+00  1.00000000e+00  1.00000000e+00  1.00000000e+00
  1.00000000e+00  1.00000000e+00
Current cartesian coordinates              R   N=          21
 -1.36607096e+00  9.27838862e-04  1.04241758e-02  1.38720746e+00 -1.10998320e-02
 -1.23533867e-01  2.37685347e+00  1.53336230e-01  1.70433936e+00  2.01524417e+00
  1.55202521e+00 -1.32440418e+00  2.01526880e+00 -1.76343808e+00 -1.02615311e+00
 -1.97198194e+00  1.61751771e+00  8.48642049e-01 -1.97195767e+00 -1.44016899e+00
  1.12363533e+00
Integer atomic weights                     I   N=           7
          14          12           1           1           1           1
           1
Real atomic weights                        R   N=           7
  1.40030740e+01  1.20000000e+01  1.00782503e+00  1.00782503e+00  1.00782503e+00
  1.00782503e+00  1.00782503e+00
Number of primitive shells                 I               64
Number of contracted shells                I               36
Pure/Cartesian d shells                    I                0
Pure/Cartesian f shells                    I                0
Highest angular momentum                   I                2
Largest degree of contraction              I                6
Shell types                                I   N=          36
           0           0           1           0           1           0
           1          -2           0           0           1           0
           1           0           1          -2           0           0
           0           1           0           0           0           1
           0           0           0           1           0           0
           0           1           0           0           0           1
Number of primitives per shell             I   N=          36
           6           3           3           1           1           1
           1           1           6           3           3           1
           1           1           1           1           3           1
           1           1           3           1           1           1
           3           1           1           1           3           1
           1           1           3           1           1           1
Shell to atom map                          I   N=          36
           1           1           1           1           1           1
           1           1           2           2           2           2
           2           2           2           2           3           3
           3           3           4           4           4           4
           5           5           5           5           6           6
           6           6           7           7           7           7
Primitive exponents                        R   N=          64
  6.29348000e+03  9.49044000e+02  2.18776000e+02  6.36916000e+01  1.88282000e+01
  2.72023000e+00  3.06331000e+01  7.02614000e+00  2.11205000e+00  3.06331000e+01
  7.02614000e+00  2.11205000e+00  6.84009000e-01  6.84009000e-01  2.00878000e-01
  2.00878000e-01  9.13000000e-01  4.56324000e+03  6.82024000e+02  1.54973000e+02
  4.44553000e+01  1.30290000e+01  1.82773000e+00  2.09642000e+01  4.80331000e+00
  1.45933000e+00  2.09642000e+01  4.80331000e+00  1.45933000e+00  4.83456000e-01
  4.83456000e-01  1.45585000e-01  1.45585000e-01  6.26000000e-01  3.38650000e+01
  5.09479000e+00  1.15879000e+00  3.25840000e-01  1.02741000e-01  7.50000000e-01
  3.38650000e+01  5.09479000e+00  1.15879000e+00  3.25840000e-01  1.02741000e-01
  7.50000000e-01  3.38650000e+01  5.09479000e+00  1.15879000e+00  3.25840000e-01
  1.02741000e-01  7.50000000e-01  3.38650000e+01  5.09479000e+00  1.15879000e+00
  3.25840000e-01  1.02741000e-01  7.50000000e-01  3.38650000e+01  5.09479000e+00
  1.15879000e+00  3.25840000e-01  1.02741000e-01  7.50000000e-01
Contraction coefficients                   R   N=          64
  1.96978815e-03  1.49612859e-02  7.35005308e-02  2.48936766e-01  6.02459433e-01
  2.56201759e-01  1.11906080e-01  9.21666655e-01 -2.56919183e-03  3.83119186e-02
  2.37403116e-01  8.17592398e-01  1.00000000e+00  1.00000000e+00  1.00000000e+00
  1.00000000e+00  1.00000000e+00  1.96665025e-03  1.52306019e-02  7.61269097e-02
  2.60801033e-01  6.16462078e-01  2.21006028e-01  1.14660081e-01  9.19999648e-01
 -3.03068213e-03  4.02486927e-02  2.37593957e-01  8.15853851e-01  1.00000000e+00
  1.00000000e+00  1.00000000e+00  1.00000000e+00  1.00000000e+00  2.54938145e-02
  1.90373109e-01  8.52161486e-01  1.00000000e+00  1.00000000e+00  1.00000000e+00
  2.54938145e-02  1.90373109e-01  8.52161486e-01  1.00000000e+00  1.00000000e+00
  1.00000000e+00  2.54938145e-02  1.90373109e-01  8.52161486e-01  1.00000000e+00
  1.00000000e+00  1.00000000e+00  2.54938145e-02  1.90373109e-01  8.52161486e-01
  1.00000000e+00  1.00000000e+00  1.00000000e+00  2.54938145e-02  1.90373109e-01
  8.52161486e-01  1.00000000e+00  1.00000000e+00  1.00000000e+00
Coordinates of each shell                  R   N=         108
 -1.36607096e+00  9.27838862e-04  1.04241758e-02 -1.36607096e+00  9.27838862e-04
  1.04241758e-02 -1.36607096e+00  9.27838862e-04  1.04241758e-02 -1.36607096e+00
  9.27838862e-04  1.04241758e-02 -1.36607096e+00  9.27838862e-04  1.04241758e-02
 -1.36607096e+00  9.27838862e-04  1.04241758e-02 -1.36607096e+00  9.27838862e-04
  1.04241758e-02 -1.36607096e+00  9.27838862e-04  1.04241758e-02  1.38720746e+00
 -1.10998320e-02 -1.23533867e-01  1.38720746e+00 -1.10998320e-02 -1.23533867e-01
  1.38720746e+00 -1.10998320e-02 -1.23533867e-01  1.38720746e+00 -1.10998320e-02
 -1.23533867e-01  1.38720746e+00 -1.10998320e-02 -1.23533867e-01  1.38720746e+00
 -1.10998320e-02 -1.23533867e-01  1.38720746e+00 -1.10998320e-02 -1.23533867e-01
  1.38720746e+00 -1.10998320e-02 -1.23533867e-01  2.37685347e+00  1.53336230e-01
  1.70433936e+00  2.37685347e+00  1.53336230e-01  1.70433936e+00  2.37685347e+00
  1.53336230e-01  1.70433936e+00  2.37685347e+00  1.53336230e-01  1.70433936e+00
  2.01524417e+00  1.55202521e+00 -1.32440418e+00  2.01524417e+00  1.55202521e+00
 -1.32440418e+00  2.01524417e+00  1.55202521e+00 -1.32440418e+00  2.01524417e+00
  1.55202521e+00 -1.32440418e+00  2.01526880e+00 -1.76343808e+00 -1.02615311e+00
  2.01526880e+00 -1.76343808e+00 -1.02615311e+00  2.01526880e+00 -1.76343808e+00
 -1.02615311e+00  2.01526880e+00 -1.76343808e+00 -1.02615311e+00 -1.97198194e+00
  1.61751771e+00  8.48642049e-01 -1.97198194e+00  1.61751771e+00  8.48642049e-01
 -1.97198194e+00  1.61751771e+00  8.48642049e-01 -1.97198194e+00  1.61751771e+00
  8.48642049e-01 -1.97195767e+00 -1.44016899e+00  1.12363533e+00 -1.97195767e+00
 -1.44016899e+00  1.12363533e+00 -1.97195767e+00 -1.44016899e+00  1.12363533e+00
 -1.97195767e+00 -1.44016899e+00  1.12363533e+00
Total Energy                               R     -9.558735703121725e+01
Alpha Orbital Energies                     R   N=          66
 -1.55306170e+01 -1.12410590e+01 -1.16650709e+00 -8.91151188e-01 -6.57894353e-01
 -6.00276414e-01 -5.52559592e-01 -5.12522503e-01 -3.87986016e-01  1.56752504e-01
  1.92773799e-01  2.09529676e-01  2.31752272e-01  2.57779804e-01  3.77117137e-01
  4.63734788e-01  4.84729523e-01  5.48255154e-01  5.60224300e-01  7.04925328e-01
  7.57216533e-01  8.06096690e-01  8.07291170e-01  8.52727151e-01  9.32844067e-01
  9.53473101e-01  9.71860101e-01  1.26556964e+00  1.29403951e+00  1.29620899e+00
  1.58511262e+00  1.63983609e+00  1.72707339e+00  1.74535942e+00  1.76174975e+00
  1.83056923e+00  1.89253449e+00  1.92596142e+00  1.98487528e+00  2.03419010e+00
  2.14438011e+00  2.25939558e+00  2.32809311e+00  2.44436773e+00  2.47561428e+00
  2.63291050e+00  2.66093763e+00  2.71948650e+00  2.77640536e+00  2.78966024e+00
  2.86263195e+00  2.86647912e+00  2.94664199e+00  3.08827243e+00  3.09304200e+00
  3.20071737e+00  3.32052215e+00  3.50458156e+00  3.83335248e+00  4.14968478e+00
  4.20803919e+00  4.49389112e+00  5.21428807e+00  5.33464782e+00  2.50409413e+01
  3.70034125e+01
Alpha MO coefficients                      R   N=        4356
  5.57655031e-01  4.68257065e-01  7.54249864e-04  1.56411069e-04  1.73907570e-03
  5.00660035e-03 -2.97673507e-04 -6.25801566e-05 -6.95795747e-04 -1.23343728e-03
 -2.58955478e-04  5.40702546e-06  6.01359061e-05  1.39563124e-04  8.32627371e-05
  1.87296870e-05 -3.51617948e-05  7.48797385e-06  8.25539279e-06 -3.42541254e-05
 -4.51618925e-05 -1.78466146e-06 -1.98387784e-05  1.37234558e-04 -3.43493859e-04
  9.36989907e-06  1.04201674e-04  6.83235664e-04 -2.82040939e-04 -3.46392656e-06
 -3.84636055e-05 -5.53135956e-05 -7.20261051e-05  4.92414425e-06  1.50112426e-04
 -6.47559524e-06  3.58471923e-06 -5.69925714e-05 -1.12251757e-05  3.11756315e-05
 -1.37390482e-06 -1.52781392e-05  1.94854958e-05 -6.32459814e-05 -1.72389528e-05
 -6.48913668e-06 -1.59423794e-05  2.07632727e-05  1.94859657e-05 -6.32468265e-05
 -1.72422930e-05 -6.48845512e-06  1.93920140e-05  1.75842733e-05  2.54377620e-04
  2.67236512e-04  5.51821463e-05  8.83774451e-05 -9.54292592e-05  7.19694443e-06
  2.54377776e-04  2.67235455e-04  5.51826700e-05  8.83754663e-05  9.51829506e-05
 -9.94527759e-06 -8.84739830e-05 -1.41239675e-04  9.88646588e-05  3.13848634e-07
  3.48236392e-06  2.82836771e-04  4.96706404e-04 -5.18763953e-06 -5.77272024e-05
  2.14576977e-04  1.17130868e-04 -2.79241921e-06 -3.10613214e-05 -9.23131125e-05
  1.85324399e-05  3.47987664e-06  1.98268932e-04  1.66991329e-06  5.63427565e-01
  4.66560535e-01 -5.16884342e-04  7.13664786e-06  7.94002805e-05  4.13202436e-03
  4.69873645e-04 -8.02082735e-06 -8.91822745e-05 -1.21773379e-03 -6.60817481e-05
  4.61536039e-06  5.13132328e-05  6.92363440e-05  3.52813152e-06 -5.37765288e-06
 -1.79234147e-04  3.14074359e-07  3.41046846e-04  1.26617492e-04  2.21745267e-04
 -3.72102261e-05 -5.14720616e-08 -5.70295330e-07  3.40367894e-04  1.02649251e-04
  2.54331822e-04 -2.59773224e-05  1.12152246e-05 -6.84653027e-06  3.40368514e-04
  1.02646380e-04  2.54333064e-04 -2.59767730e-05 -1.22586498e-05 -4.73586921e-06
  7.92411879e-07  6.62015641e-05 -1.38998975e-05  2.17998506e-05 -4.92684934e-05
 -2.05211732e-05  7.92401781e-07  6.62023066e-05 -1.39006184e-05  2.17992436e-05
  4.48167802e-05 -2.89828585e-05  9.89993126e-02  1.63765825e-01 -1.99408280e-02
 -2.19236826e-03 -2.43761748e-02 -4.35984904e-01 -3.91045459e-02 -3.58288453e-03
 -3.98360400e-02 -3.21989005e-01 -2.67418931e-02 -1.23406910e-03 -1.37201706e-02
  4.92294909e-03  2.45437258e-03  5.46453082e-04 -2.50020012e-03  2.20702907e-04
  5.08834217e-02  8.36333085e-02  3.86126086e-02 -3.06922591e-04 -3.41670430e-03
 -2.12859623e-01  7.89506634e-02 -7.56391846e-04 -8.41751828e-03 -5.71344923e-02
 -1.24129247e-03 -4.85120342e-04 -5.39349068e-03  1.10017712e-02  4.15100346e-03
  4.53227803e-05 -1.85559079e-02  3.73056634e-04 -2.55116954e-02 -3.85462526e-02
  2.67739668e-03  5.62800613e-03  7.33266270e-04  8.15089090e-03 -2.63093154e-02
 -4.23524795e-02  1.18089922e-03  3.89339422e-03  7.46620194e-03 -5.67746310e-03
 -2.63094916e-02 -4.23526722e-02  1.18089961e-03  3.89352870e-03 -8.35954417e-03
 -4.25383397e-03 -7.80965725e-02 -7.91867567e-02 -6.12481400e-04 -8.13432810e-03
  1.78889112e-02  7.46722923e-03 -7.80966704e-02 -7.91868208e-02 -6.12478236e-04
 -8.13407493e-03 -1.62696281e-02  1.05392832e-02  4.09428847e-02  6.80621725e-02
  6.43764073e-02 -2.93748867e-03 -3.26669494e-02 -1.83199671e-01  1.06505257e-01
 -4.78756449e-03 -5.32412935e-02 -1.61979559e-01  4.78390113e-02 -1.93806210e-03
 -2.15524667e-02 -5.49936787e-03  5.05669517e-03  4.11492057e-04  1.40632454e-02
  4.54976230e-04 -8.85486939e-02 -1.46852722e-01  3.89768386e-02 -8.16596514e-04
 -9.07988289e-03  3.79143247e-01  5.08359440e-02 -1.16352578e-03 -1.29373512e-02
  2.52039065e-01  2.53224462e-02  2.86068081e-04  3.17837551e-03  2.97492314e-03
  2.55064140e-03 -2.34125945e-04 -7.73503464e-03  2.29282787e-04  8.05823819e-02
  1.08563056e-01  5.55294639e-03 -6.70713792e-03 -1.45696558e-03 -1.61957594e-02
  8.43164848e-02  1.17540612e-01  9.36152684e-03 -3.74865982e-03 -1.46965135e-02
  1.06496961e-02  8.43167052e-02  1.17540910e-01  9.36166001e-03 -3.74893315e-03
  1.63611698e-02  7.85583907e-03 -6.28003777e-02 -7.87345250e-02 -1.18598107e-02
 -1.08161409e-03  1.25179368e-02  3.68604191e-03 -6.28003044e-02 -7.87344025e-02
 -1.18598199e-02 -1.08139618e-03 -1.16593858e-02  5.86040905e-03  2.25371953e-08
  3.94141747e-08  1.26448492e-06 -1.75937133e-01  1.58229726e-02 -1.01278908e-07
  1.98850978e-06 -2.78252138e-01  2.50247008e-02 -3.57448224e-07  1.25192273e-06
 -1.67436910e-01  1.50582879e-02  3.97489469e-03 -2.09625066e-05 -2.53109376e-02
  2.29487823e-03  2.35228270e-04  1.13196227e-07  1.93266582e-07  5.83026801e-07
 -9.70481530e-02  8.72801134e-03 -5.21151394e-07  9.53888100e-07 -1.60105596e-01
  1.43991069e-02 -6.47580460e-07  6.04145750e-07 -1.02153717e-01  9.18767295e-03
 -1.85445365e-03 -7.30068929e-04  1.18036183e-02 -1.07084284e-03  8.11596935e-03
 -1.62826602e-06 -2.43645639e-06 -9.10760093e-07  1.58672633e-07 -4.06282959e-03
  3.65622888e-04 -6.23806283e-02 -8.35078139e-02 -2.21833385e-02  1.76814302e-03
  2.95829085e-03 -5.56686278e-03  6.23821398e-02  8.35102527e-02  2.21842157e-02
 -1.76834502e-03  3.90447536e-03  4.94943132e-03 -1.19619526e-01 -1.79959124e-01
 -4.91210964e-02 -1.07946516e-02  1.14087956e-02  1.20719599e-02  1.19619586e-01
  1.79959471e-01  4.91211381e-02  1.07945113e-02  9.07196030e-03 -1.39139109e-02
  1.61398222e-02  2.74235966e-02 -9.32271932e-02  1.01231218e-02  1.12569144e-01
 -8.39151472e-02 -1.51022327e-01  1.59868748e-02  1.77774792e-01 -9.39352711e-02
 -9.14916859e-02  1.26010298e-02  1.40120991e-01  1.09292207e-02  2.37172252e-03
  4.41216555e-04 -1.40637756e-02  2.13088959e-04 -2.75114774e-03 -4.22636978e-03
  1.11530242e-01  1.04785123e-02  1.16503642e-01  3.95822803e-03  1.89927891e-01
  1.67483417e-02  1.86213077e-01  2.55065618e-02  8.78450286e-02  9.04154942e-03
  1.00531827e-01  2.51854467e-02  7.58944941e-03  2.85042542e-03 -1.21966201e-02
  6.82469192e-04  1.34418662e-01  2.08245714e-01  8.47442420e-02 -5.17231175e-03
 -1.27638000e-03 -1.41870453e-02 -1.66943231e-02 -2.86998302e-02 -1.32402806e-02
  6.01832341e-03  4.19172250e-03  4.15203864e-03 -1.66907117e-02 -2.86945595e-02
 -1.32385043e-02  6.01828563e-03 -3.38310209e-03  4.83380506e-03  5.74798522e-02
  8.09506565e-02  3.03876335e-02 -1.91288841e-03 -1.04220814e-02  4.15218430e-03
  5.74799635e-02  8.09506820e-02  3.03876633e-02 -1.91310953e-03  1.09956530e-02
  2.22598156e-03  2.17735735e-03  3.66615420e-03  1.51353689e-01  9.91137107e-04
  1.10077440e-02 -1.12307688e-02  2.40543481e-01  1.90032756e-03  2.11098388e-02
  3.04505649e-03  1.82707493e-01  2.56639526e-03  2.85214695e-02 -5.58381547e-03
  1.73093529e-02  6.70757398e-04  1.70678086e-02  1.55698981e-03 -3.88263934e-03
 -6.89194213e-03 -1.14236455e-01  1.18168076e-02  1.31401397e-01  2.32887393e-02
 -1.92229205e-01  1.90012286e-02  2.11292591e-01 -3.02913002e-03 -1.00377659e-01
  1.27245866e-02  1.41496517e-01 -2.16232876e-03  7.37387068e-03  2.86573483e-03
  3.53389648e-02  6.63724839e-04  6.15105019e-02  9.56734569e-02  4.59236294e-02
 -9.23148646e-03 -2.26718561e-04 -2.51809844e-03 -8.81706124e-02 -1.36302011e-01
 -5.45309247e-02 -1.13638826e-03  1.06239488e-02 -1.40685186e-03 -8.81666762e-02
 -1.36296229e-01 -5.45285593e-02 -1.13633962e-03 -1.07042562e-02  5.12136241e-04
 -4.42100984e-02 -7.73259994e-02 -3.38409429e-02  8.49761076e-03  8.46030084e-03
  5.02068328e-03 -4.42100806e-02 -7.73261759e-02 -3.38410882e-02  8.49767228e-03
 -7.42860126e-03  6.44966610e-03 -4.93141559e-08 -8.46264694e-08  9.79363362e-07
 -1.05774051e-01  9.51271341e-03  2.24155759e-07  1.51293882e-06 -1.62640429e-01
  1.46269704e-02  6.75784822e-07  1.08282256e-06 -1.20845503e-01  1.08683426e-02
  2.87400970e-03 -1.29227686e-03 -1.83006053e-02  1.65910335e-03  1.43706503e-02
 -7.42155175e-08 -1.31378509e-07 -1.11997725e-06  1.65540941e-01 -1.48879326e-02
  3.88086358e-07 -1.73778247e-06  2.61419812e-01 -2.35108510e-02  5.85073610e-07
 -1.09146768e-06  1.79639432e-01 -1.61560860e-02  4.31763126e-03 -2.13137093e-03
 -2.74846164e-02  2.49260083e-03  2.37025690e-02  3.13914148e-06  5.19013906e-06
  2.60545808e-06 -3.00343131e-07  9.68301765e-03 -8.71304535e-04  1.27200082e-01
  2.08230885e-01  9.56748513e-02 -5.81560836e-03 -5.87623867e-03  1.21080651e-02
 -1.27203428e-01 -2.08236503e-01 -9.56775290e-02  5.81592242e-03 -7.94316453e-03
 -1.08647804e-02 -8.34758232e-02 -1.37659486e-01 -7.00659595e-02 -5.78964929e-03
  7.44690992e-03  7.53871036e-03  8.34757208e-02  1.37658743e-01  7.00658602e-02
  5.78946997e-03  5.98234038e-03 -8.74640485e-03  2.93835628e-02  5.00815169e-02
  8.68021307e-02  1.96387500e-02  2.18357596e-01 -1.52148059e-01  1.27592352e-01
  2.95737258e-02  3.28821574e-01 -2.02157164e-01  1.82848475e-01  3.63280405e-02
  4.03915517e-01  1.01622861e-02  4.37978162e-03  1.66440081e-03  7.55339014e-04
  3.93909783e-04 -5.65289867e-03 -9.50383497e-03 -3.94002784e-02 -6.30239400e-03
 -7.00753535e-02  2.74731681e-02 -6.17537168e-02 -9.71600613e-03 -1.08030678e-01
 -3.05722246e-02 -1.48269103e-02 -6.73840634e-03 -7.49244132e-02 -8.93460669e-03
 -3.44539533e-02 -1.90051574e-03 -5.47452097e-03 -3.09876538e-03 -9.02676632e-02
 -1.78281795e-01 -9.82553606e-02  3.43793408e-03  6.55433296e-04  7.28430025e-03
  3.66908027e-02  8.39237838e-02  3.10624750e-02 -4.11605834e-03 -6.00397852e-03
 -1.16748948e-03  3.66876276e-02  8.39173028e-02  3.10589412e-02 -4.11602546e-03
  5.69891096e-03 -2.22059629e-03  4.17673900e-02  5.39034868e-02  3.19790434e-02
  1.02799156e-02 -7.37269182e-03  1.57477756e-02  4.17674079e-02  5.39040579e-02
  3.19793200e-02  1.02798931e-02  1.00644146e-02  1.41795568e-02  2.68960939e-02
  4.38761094e-02  3.83558762e-02 -3.78624934e-03 -4.21032162e-02 -8.64055104e-02
  3.16382794e-02 -5.23186985e-03 -5.81768043e-02 -6.46013867e-01  2.92195988e-01
 -1.50284669e-02 -1.67125456e-01 -2.28401144e-03  1.66899238e-03 -2.73737710e-04
  9.36602637e-04  1.50139852e-04  2.80612375e-02  4.42916142e-02 -5.63860212e-02
 -7.42447682e-04 -8.25550233e-03 -1.10676641e-02 -6.74274613e-02 -1.79004431e-04
 -1.98918766e-03 -1.60319625e+00 -2.34148342e-01 -5.28097074e-03 -5.87468854e-02
  2.65070635e-03  6.25583024e-03  1.93436660e-04 -2.45998617e-03  5.62599618e-04
  3.61709610e-03  1.68484219e-03  7.84922134e-01 -5.27302997e-03  2.16208897e-04
  2.40425479e-03  1.22581681e-03  3.76011156e-02  5.24226267e-01 -6.40741422e-03
 -2.35602216e-03  2.96222697e-03  1.22594577e-03  3.76009122e-02  5.24239504e-01
 -6.40738035e-03  2.84655109e-03  2.49409367e-03  1.70732239e-02 -6.08385831e-02
  6.69478391e-01 -4.32252306e-03  5.78049043e-03  5.54348189e-04  1.70732581e-02
 -6.08387963e-02  6.69479890e-01 -4.32243250e-03 -5.58888542e-03  1.57684275e-03
  2.89928741e-02  4.73859924e-02  3.25183250e-03 -3.82691201e-03 -4.25483983e-02
 -8.13758634e-02 -2.56822733e-02 -5.21987672e-03 -5.80346227e-02 -8.40380531e-01
  7.52777684e-02 -1.62038931e-02 -1.80161727e-01 -3.04397772e-03 -1.84707258e-03
 -1.62323459e-04  3.48200640e-03 -1.66057617e-04 -3.73911667e-02 -6.06330350e-02
  1.44738822e-02 -1.53812380e-03 -1.71058076e-02  8.32517962e-02 -1.85759797e-02
 -4.05038163e-04 -4.50512620e-03  1.39514015e+00  2.06437818e-01 -1.74823403e-02
 -1.94410976e-01 -7.71373289e-04  4.17283628e-03 -3.31277654e-04 -2.31857218e-03
  3.75263107e-04 -1.16022142e-02  7.97189558e-02 -5.84801156e-01 -8.48478653e-03
 -1.08124967e-04 -1.20125268e-03 -1.30162118e-02  7.07381540e-02 -9.19610626e-01
 -6.85777158e-03 -2.38881847e-03  5.23589471e-03 -1.30158974e-02  7.07390299e-02
 -9.19602521e-01 -6.85776014e-03  3.28470445e-03  4.72543290e-03  2.02973270e-02
 -5.97901922e-02  7.96497576e-01 -7.37528531e-03  6.95769963e-05 -9.23260456e-04
  2.02973003e-02 -5.97897708e-02  7.96493649e-01 -7.37526268e-03 -2.33256897e-04
 -8.96145269e-04 -9.76957923e-08 -1.62389633e-07  9.08185600e-07 -8.85153158e-02
  7.96097107e-03  2.04916578e-07  9.43889090e-07 -8.23916250e-02  7.41002688e-03
  3.49195514e-06  3.92508126e-06 -4.48633977e-01  4.03522821e-02  3.06376988e-04
  1.20394048e-03 -1.94981080e-03  1.77035873e-04 -1.33884098e-02  1.50188906e-07
  2.53623853e-07  2.76725669e-07 -9.50957820e-02  8.55016539e-03 -4.17496729e-07
  1.73737838e-07 -4.85739508e-02  4.36712653e-03 -4.93383737e-06  2.46796510e-06
 -7.45652767e-01  6.70411177e-02  2.31718850e-03 -1.51901336e-03 -1.47483996e-02
  1.33776307e-03  1.68953377e-02  7.05856903e-07 -4.19884188e-06  6.37735782e-05
  3.81620965e-07  2.87567095e-03 -2.57776413e-04  1.14873052e-02 -9.31479980e-02
  1.17405907e+00  7.36363339e-03  1.53904632e-02 -1.01765037e-02 -1.14877073e-02
  9.31519821e-02 -1.17411652e+00 -7.36416997e-03  1.69605082e-02  7.26670150e-03
  2.10507789e-02 -7.61166470e-02  1.16420861e+00 -4.26918881e-03  7.64210225e-03
  3.45614061e-03 -2.10507720e-02  7.61139182e-02 -1.16420952e+00  4.26903841e-03
  6.90295577e-03 -4.76393618e-03  7.63982546e-03  1.25224778e-02 -7.38764947e-03
 -1.41933871e-03 -1.57706219e-02 -1.72856747e-02 -9.58631293e-03 -7.24255888e-04
 -8.04381282e-03 -2.78138922e-01 -2.59970578e-02 -1.78183585e-02 -1.98061724e-01
 -3.56739399e-03  1.04367387e-02 -4.85906199e-04  8.21989724e-04  9.38415141e-04
 -2.71460132e-03 -4.58618608e-03  7.13155067e-03  1.24577915e-02  1.38541008e-01
  6.68550195e-03 -7.12862854e-03  7.40508291e-03  8.23504510e-02  9.25430126e-02
  3.94192352e-02  1.03783719e-01  1.15415620e+00 -1.39133494e-02 -2.12675752e-02
 -3.58591988e-03 -1.54299593e-02 -1.91275679e-03 -1.82752005e-02  1.90780947e-01
 -2.20676343e+00 -1.47039513e-02 -2.55696279e-03 -2.84231880e-02  6.59854306e-03
 -8.25956253e-02  1.06435567e+00  3.14067623e-03  1.43809627e-02 -7.46740813e-03
  6.59754141e-03 -8.25844269e-02  1.06422504e+00  3.14033481e-03 -1.54810473e-02
 -4.78000815e-03 -2.10427924e-03  2.29312775e-02  1.39184510e-01  9.90394630e-04
 -1.75684746e-03 -5.08111514e-03 -2.10450976e-03  2.29355430e-02  1.39146923e-01
  9.90574777e-04  8.22184524e-04 -5.31268442e-03 -1.04565821e-08 -7.70744166e-09
  6.62896824e-07 -9.38427596e-02  8.43997943e-03 -8.97514529e-08  6.46141483e-07
 -8.11972769e-02  7.30288838e-03  1.19341389e-06  4.71942459e-06 -6.19737696e-01
  5.57357938e-02  2.26779972e-04 -2.76552180e-04 -1.44521587e-03  1.30870386e-04
  3.07564100e-03  1.36790109e-09 -4.90114984e-09 -4.84209100e-07  1.01040662e-01
 -9.08653955e-03  1.21609430e-07 -1.69343220e-07  6.35107200e-02 -5.71161901e-03
 -2.10434852e-06 -5.83014090e-06  9.64496205e-01 -8.67386500e-02 -3.24133228e-03
  6.56814539e-04  2.06332543e-02 -1.87136504e-03 -7.30889132e-03 -2.90687291e-07
  5.25345934e-06 -5.03471319e-05 -3.50164577e-07  6.76108340e-03 -6.08789615e-04
 -1.46734300e-02  6.98564248e-02 -1.53850102e+00 -2.94124070e-03 -1.30009500e-02
  1.36148398e-02  1.46734739e-02 -6.98623308e-02  1.53855692e+00  2.94171222e-03
 -1.52226261e-02 -1.10763679e-02  7.63159637e-03 -6.45081584e-02  1.18551870e+00
 -5.20397759e-05  7.00974947e-03  6.19777720e-03 -7.63136791e-03  6.45126788e-02
 -1.18552729e+00  5.21361020e-05  5.79114655e-03 -7.34948896e-03  2.51700209e-02
  4.13948335e-02 -1.32760554e-01  2.84306327e-03  3.16239128e-02 -4.15905277e-02
 -1.53412290e-01  2.26577014e-03  2.52057492e-02 -1.59836752e+00 -1.22933494e+00
  8.46813292e-03  9.42672671e-02  7.67209957e-03 -6.93084340e-05  1.68091625e-03
  5.25055830e-03 -6.11886574e-06 -1.18590188e-02 -1.80381400e-02 -8.37392411e-02
  1.83154896e-04  2.04027532e-03 -3.50223145e-02 -4.09812835e-02  3.73902473e-04
  4.15669028e-03  1.18016214e+00 -2.24635131e+00  1.24627815e-02  1.38724979e-01
  1.21174970e-02 -2.03992533e-03 -2.16293788e-05 -2.12268774e-02 -1.83694820e-04
  1.02971926e-02  1.34928393e-01  4.40472438e-01  5.86624174e-04  5.46186699e-04
  6.07130959e-03  2.14735256e-02  2.18740441e-01  1.00302060e-01  4.90882363e-04
  7.60250477e-04 -1.24062824e-03  2.14735422e-02  2.18739572e-01  1.00310579e-01
  4.90876004e-04 -9.69467939e-04 -1.08504925e-03 -3.86637965e-03  1.52387401e-01
 -5.80607624e-01  1.11597417e-02 -2.04243286e-02 -5.29066698e-03 -3.86639537e-03
  1.52386723e-01 -5.80606791e-01  1.11593629e-02  1.91527028e-02 -8.85015418e-03
  5.57579750e-08  1.14109305e-07 -8.27810932e-08  1.02804066e-02 -9.24670994e-04
  6.08071569e-07 -2.41163165e-07  3.97655431e-02 -3.57700778e-03 -1.04074670e-05
  9.49716478e-06 -4.90251037e-01  4.40827460e-02  2.46358562e-03 -2.14439088e-03
 -1.56911017e-02  1.42226526e-03  2.38479300e-02  4.17668470e-08  1.28378498e-07
  4.55523763e-07  6.59465624e-03 -5.93387994e-04 -1.69991781e-06  6.10572230e-07
  7.16598265e-02 -6.44512290e-03  1.30318970e-06 -9.25188439e-06  1.79871786e+00
 -1.61767951e-01  4.33904104e-03 -1.74600013e-03 -2.76207729e-02  2.50516509e-03
  1.94171443e-02 -1.14709489e-06 -3.08691002e-05  5.76132985e-06  1.31542298e-06
  1.34821023e-02 -1.21164647e-03 -5.13999049e-02 -1.24376054e+00  1.71165950e-01
  3.31883623e-02  4.82174521e-02 -3.24676923e-02  5.14007825e-02  1.24378791e+00
 -1.71170158e-01 -3.31898957e-02  5.32385153e-02  2.33421057e-02 -3.92977188e-02
  9.82528063e-02 -3.20773395e-01  4.20985498e-02 -8.65068207e-03 -1.68740270e-02
  3.92974941e-02 -9.82266391e-02  3.20765784e-01 -4.20967350e-02 -5.50073719e-03
  1.81449030e-02  7.60639353e-03  1.31494136e-02  2.04447850e-02  4.62077067e-03
  5.13853569e-02 -6.84681324e-02  4.24504873e-02  6.07826760e-03  6.76033482e-02
  1.25239891e-01 -1.36599175e-01  5.78723435e-02  6.43922442e-01  1.18905125e-02
 -2.00767896e-02  1.26336064e-03 -6.65663494e-03 -1.80540421e-03 -2.84109777e-03
 -6.40612573e-03 -1.94666159e-02 -1.97087937e-03 -2.19018219e-02  6.06434557e-02
 -5.88552807e-02 -6.62934150e-03 -7.36926468e-02 -1.07039548e-01 -2.71561300e-01
 -1.69272325e-01 -1.88235930e+00 -5.54985216e-03 -4.18631860e-02 -1.94240105e-03
 -1.17933735e-02 -3.76501486e-03  5.57666672e-02  1.47949973e+00 -1.97154959e-03
 -4.98483756e-02 -5.13882961e-03 -5.71248648e-02 -2.46404835e-02 -6.71032213e-01
  2.96047055e-02  1.18473845e-02  1.18734696e-02 -3.28860617e-02 -2.46401921e-02
 -6.70972753e-01  2.96042781e-02  1.18439547e-02 -1.75492544e-02 -3.02376594e-02
  2.35899644e-02 -2.34018665e-01  7.60151973e-02 -2.34853827e-02  2.19106376e-02
  1.12368723e-02  2.35882222e-02 -2.34092574e-01  7.60632105e-02 -2.34887315e-02
 -1.95572592e-02  1.49679349e-02 -1.24672528e-07 -2.01947871e-07  7.48041321e-07
 -7.64505091e-02  6.87362742e-03  1.87140033e-06  6.95026965e-08 -1.32936759e-01
  1.19523271e-02 -1.31535810e-05  2.54257014e-05 -1.55224532e+00  1.39577818e-01
  6.83941663e-04  4.96283871e-04 -4.35823374e-03  3.95095170e-04 -5.50771667e-03
  3.43936972e-07  7.26263879e-07  1.84773126e-06 -3.85987220e-02  3.47260531e-03
 -4.88405676e-06  6.32738779e-06 -9.97893959e-02  8.97728582e-03 -6.65954994e-07
 -2.05877515e-06  9.70802204e-01 -8.72575715e-02  1.36236677e-03 -3.90503168e-03
 -8.66766296e-03  7.86286110e-04  4.34287780e-02 -8.82200628e-07 -3.85949626e-05
 -1.22739113e-05  1.97781451e-06  6.70118140e-04 -5.89082023e-05  3.79379570e-02
 -1.45830652e-01 -1.85035140e-01  5.85829384e-02  8.24420266e-03 -1.19377513e-02
 -3.79369541e-02  1.45870206e-01  1.85044943e-01 -5.85837878e-02  1.02422120e-02
  1.02764470e-02  6.33676738e-02  1.44344755e+00 -6.82385238e-01  2.81894506e-02
 -3.78414335e-02 -6.91446251e-03 -6.33682061e-02 -1.44341082e+00  6.82376205e-01
 -2.81863159e-02 -3.60000517e-02  1.35534773e-02  1.00516769e-02  1.82333910e-02
  7.06194696e-02 -3.40991160e-03 -3.79303086e-02  2.65274881e-02  4.59452692e-02
 -7.96011338e-03 -8.85284500e-02 -1.52000810e+00  7.60845513e-01 -8.34765235e-02
 -9.28462775e-01  8.76890961e-03  1.41178920e-02 -7.45402240e-04 -2.34119634e-02
  1.26904826e-03  2.62219923e-02  5.43768632e-02  1.16929028e-01 -4.11619890e-03
 -4.57708173e-02 -3.75678777e-01  4.29101151e-01 -1.30496443e-02 -1.45110433e-01
  4.07713494e-01 -5.12794952e-01  4.24058127e-02  4.71790369e-01 -6.61522797e-03
  2.12539474e-02 -4.44063000e-05  1.09587000e-02  1.91167970e-03  4.19342229e-02
  6.71390316e-02 -2.72046445e-01  6.21347295e-02  5.25996845e-04  5.84155128e-03
 -9.20696238e-03 -3.61965635e-02  8.22298166e-02  9.72724568e-03  1.23179881e-03
 -1.13458239e-02 -9.20685402e-03 -3.62140519e-02  8.22131666e-02  9.72881203e-03
 -3.23760271e-03 -1.09438304e-02  4.23883969e-02  1.34653049e+00 -3.12109856e-01
  5.44945463e-02 -3.89310204e-02 -2.69999904e-02  4.23889938e-02  1.34656026e+00
 -3.12124676e-01  5.44953529e-02  3.34905058e-02 -3.35134188e-02  5.72169430e-02
  1.02274387e-01 -8.04494256e-02 -2.76945716e-03 -3.07832338e-02 -3.08270433e-01
 -4.60467096e-03 -7.56727685e-03 -8.41307894e-02 -1.07907099e+00 -5.94452747e-01
 -4.02896282e-02 -4.47974467e-01 -4.09693028e-02 -1.93966232e-02 -3.15835444e-03
  3.61269755e-02 -1.74418935e-03 -5.60390365e-02 -1.08932678e-01 -1.66621546e-01
 -6.72899595e-04 -7.46704250e-03  3.72456363e-01 -5.42833888e-01 -3.20333322e-03
 -3.55650140e-02  1.90471522e+00  4.23360866e-01  2.69349410e-02  2.99549486e-01
  1.35473575e-02  3.01967829e-02 -2.10671635e-03 -4.67016744e-02  2.71545437e-03
 -8.65342138e-03 -7.79556955e-01 -5.81105314e-02  1.58256272e-02  1.01803941e-03
  1.13174950e-02 -2.91319992e-02 -7.31748804e-01  1.28222462e-01 -2.76979782e-02
  7.34999640e-03  1.49640060e-03 -2.91322550e-02 -7.31757642e-01  1.28213833e-01