
    -----------------------------------------------------------------------
          Psi4: An Open-Source Ab Initio Electronic Structure Package
                               Psi4 1.3.2 release

                         Git: Rev {HEAD} ecbda83 


    R. M. Parrish, L. A. Burns, D. G. A. Smith, A. C. Simmonett,
    A. E. DePrince III, E. G. Hohenstein, U. Bozkaya, A. Yu. Sokolov,
    R. Di Remigio, R. M. Richard, J. F. Gonthier, A. M. James,
    H. R. McAlexander, A. Kumar, M. Saitow, X. Wang, B. P. Pritchard,
    P. Verma, H. F. Schaefer III, K. Patkowski, R. A. King, E. F. Valeev,
    F. A. Evangelista, J. M. Turney, T. D. Crawford, and C. D. Sherrill,
    J. Chem. Theory Comput. 13(7) pp 3185--3197 (2017).
    (doi: 10.1021/acs.jctc.7b00174)


                         Additional Contributions by
    P. Kraus, H. Kruse, M. H. Lechner, M. C. Schieber, R. A. Shaw,
    A. Alenaizan, R. Galvelis, Z. L. Glick, S. Lehtola, and J. P. Misiewicz

    -----------------------------------------------------------------------


    Psi4 started on: Monday, 06 April 2020 12:52PM

    Process ID: 91391
    Host:       bme-nova.bme.utexas.edu
    PSIDATADIR: /home/bdw2292/miniconda3/envs/p4env/share/psi4
    Memory:     500.0 MiB
    Threads:    1
    
  ==> Input File <==

--------------------------------------------------------------------------
molecule { 
0 1
 N   -0.715400    0.000000    0.000000
 C    0.715400    0.000000    0.000000
 H    1.106900    0.091600    1.017400
 H    1.099600    0.834900   -0.593000
 H    1.099600   -0.927400   -0.434500
 H   -1.062500    0.856400    0.429400
 H   -1.062500   -0.766100    0.575300
}
set {
 geom_maxiter 400
}
memory 700MB
set_num_threads(1)
psi4_io.set_default_path("/scratch/bdw2292")
optimize('wb97x-d/6-31G*')
clean()
--------------------------------------------------------------------------

  Memory set to 667.572 MiB by Python driver.
  Threads set to 1 by Python driver.
gradient() will perform analytic gradient computation.

*** tstart() called on bme-nova.bme.utexas.edu
*** at Mon Apr  6 12:52:31 2020

   => Loading Basis Set <=

    Name: 6-31G*
    Role: ORBITAL
    Keyword: BASIS
    atoms 1   entry N          line   128 file /home/bdw2292/miniconda3/envs/p4env/share/psi4/basis/6-31gs.gbs 
    atoms 2   entry C          line   111 file /home/bdw2292/miniconda3/envs/p4env/share/psi4/basis/6-31gs.gbs 
    atoms 3-7 entry H          line    44 file /home/bdw2292/miniconda3/envs/p4env/share/psi4/basis/6-31gs.gbs 


         ---------------------------------------------------------
                                   SCF
               by Justin Turney, Rob Parrish, Andy Simmonett
                          and Daniel G. A. Smith
                              RKS Reference
                        1 Threads,    667 MiB Core
         ---------------------------------------------------------

  ==> Geometry <==

    Molecular point group: c1
    Full point group: C1

    Geometry (in Angstrom), charge = 0, multiplicity = 1:

       Center              X                  Y                   Z               Mass       
    ------------   -----------------  -----------------  -----------------  -----------------
         N           -0.707582995931    -0.002902486303    -0.032290971774    14.003074004430
         C            0.723217004069    -0.002902486303    -0.032290971774    12.000000000000
         H            1.114717004069     0.088697513697     0.985109028226     1.007825032230
         H            1.107417004069     0.831997513697    -0.625290971774     1.007825032230
         H            1.107417004069    -0.930302486303    -0.466790971774     1.007825032230
         H           -1.054682995931     0.853497513697     0.397109028226     1.007825032230
         H           -1.054682995931    -0.769002486303     0.543009028226     1.007825032230

  Running in c1 symmetry.

  Rotational constants: A =      3.42917  B =      0.79062  C =      0.75813 [cm^-1]
  Rotational constants: A = 102803.96463  B =  23702.25541  C =  22728.05344 [MHz]
  Nuclear repulsion =   42.454008448959357

  Charge       = 0
  Multiplicity = 1
  Electrons    = 18
  Nalpha       = 9
  Nbeta        = 9

  ==> Algorithm <==

  SCF Algorithm Type is DF.
  DIIS enabled.
  MOM disabled.
  Fractional occupation disabled.
  Guess Type is SAD.
  Energy threshold   = 1.00e-08
  Density threshold  = 1.00e-08
  Integral threshold = 0.00e+00

  ==> Primary Basis <==

  Basis Set: 6-31G*
    Blend: 6-31G*
    Number of shells: 22
    Number of basis function: 40
    Number of Cartesian functions: 40
    Spherical Harmonics?: false
    Max angular momentum: 2

  ==> DFT Potential <==

   => Composite Functional: WB97X-D <= 

    wB97X-D Hyb-GGA Exchange-Correlation Functional

    J.-D. Chai and M. Head-Gordon, Phys. Chem. Chem. Phys. 10, 6615 (2008)

    Deriv               =              1
    GGA                 =           TRUE
    Meta                =          FALSE

    Exchange Hybrid     =           TRUE
    MP2 Hybrid          =          FALSE

   => Exchange-Correlation Functionals <=

    1.0000   wB97D range-separated functional

   => Exact (HF) Exchange <=

    0.7780            HF,LR [omega = 0.2000]
    0.2220               HF 

   => Molecular Quadrature <=

    Radial Scheme          =       TREUTLER
    Pruning Scheme         =           FLAT
    Nuclear Scheme         =       TREUTLER

    BS radius alpha        =              1
    Pruning alpha          =              1
    Radial Points          =             75
    Spherical Points       =            302
    Total Points           =         154241
    Total Blocks           =           1223
    Max Points             =            256
    Max Functions          =             40

   => WB97X-D: Empirical Dispersion <=

    Chai and Head-Gordon Dispersion Correction
    Chai, J.-D.; Head-Gordon, M. (2010), J. Chem. Phys., 132: 6615-6620

        s6 =       1.000000

   => Loading Basis Set <=

    Name: (6-31G* AUX)
    Role: JKFIT
    Keyword: DF_BASIS_SCF
    atoms 1   entry N          line   171 file /home/bdw2292/miniconda3/envs/p4env/share/psi4/basis/cc-pvdz-jkfit.gbs 
    atoms 2   entry C          line   121 file /home/bdw2292/miniconda3/envs/p4env/share/psi4/basis/cc-pvdz-jkfit.gbs 
    atoms 3-7 entry H          line    51 file /home/bdw2292/miniconda3/envs/p4env/share/psi4/basis/cc-pvdz-jkfit.gbs 

  ==> Pre-Iterations <==

   -------------------------------------------------------
    Irrep   Nso     Nmo     Nalpha   Nbeta   Ndocc  Nsocc
   -------------------------------------------------------
     A         40      40       0       0       0       0
   -------------------------------------------------------
    Total      40      40       9       9       9       0
   -------------------------------------------------------

  ==> Integral Setup <==

  ==> DiskDFJK: Density-Fitted J/K Matrices <==

    J tasked:                  Yes
    K tasked:                  Yes
    wK tasked:                 Yes
    Omega:               2.000E-01
    OpenMP threads:              1
    Integrals threads:           1
    Memory [MiB]:              328
    Algorithm:                Core
    Integral Cache:           NONE
    Schwarz Cutoff:          1E-12
    Fitting Condition:       1E-10

   => Auxiliary Basis Set <=

  Basis Set: (6-31G* AUX)
    Blend: CC-PVDZ-JKFIT
    Number of shells: 93
    Number of basis function: 287
    Number of Cartesian functions: 287
    Spherical Harmonics?: false
    Max angular momentum: 3

  Cached 100.0% of DFT collocation blocks in 0.169 [GiB].

  Minimum eigenvalue in the overlap matrix is 8.5301492185E-03.
  Using Symmetric Orthogonalization.

  SCF Guess: Superposition of Atomic Densities via on-the-fly atomic UHF.

  ==> Iterations <==

                           Total Energy        Delta E     RMS |[F,P]|

   @DF-RKS iter SAD:   -95.33082701766867   -9.53308e+01   0.00000e+00 
   @DF-RKS iter   1:   -95.67457104239777   -3.43744e-01   1.38944e-02 DIIS
   @DF-RKS iter   2:   -95.71444714037506   -3.98761e-02   1.23921e-02 DIIS
   @DF-RKS iter   3:   -95.81938471182917   -1.04938e-01   7.33217e-04 DIIS
   @DF-RKS iter   4:   -95.81974833849291   -3.63627e-04   3.46265e-04 DIIS
   @DF-RKS iter   5:   -95.81984095753523   -9.26190e-05   6.98915e-05 DIIS
   @DF-RKS iter   6:   -95.81984548091947   -4.52338e-06   8.35310e-06 DIIS
   @DF-RKS iter   7:   -95.81984564802929   -1.67110e-07   1.80370e-06 DIIS
   @DF-RKS iter   8:   -95.81984565948871   -1.14594e-08   4.63735e-07 DIIS
   @DF-RKS iter   9:   -95.81984566035126   -8.62556e-10   1.08792e-07 DIIS
   @DF-RKS iter  10:   -95.81984566038891   -3.76446e-11   1.71129e-08 DIIS
   @DF-RKS iter  11:   -95.81984566038952   -6.11067e-13   3.02910e-09 DIIS
  Energy and wave function converged.


  ==> Post-Iterations <==

    Orbital Energies [Eh]
    ---------------------

    Doubly Occupied:                                                      

       1A    -14.421083     2A    -10.303783     3A     -0.975178  
       4A     -0.747178     5A     -0.574199     6A     -0.521612  
       7A     -0.487916     8A     -0.443603     9A     -0.305746  

    Virtual:                                                              

      10A      0.171958    11A      0.231983    12A      0.238316  
      13A      0.264411    14A      0.274648    15A      0.333243  
      16A      0.642258    17A      0.658564    18A      0.677942  
      19A      0.828447    20A      0.840125    21A      0.886720  
      22A      0.962628    23A      1.017661    24A      1.022575  
      25A      1.022875    26A      1.071967    27A      1.154282  
      28A      1.465577    29A      1.616531    30A      1.633086  
      31A      2.009116    32A      2.137432    33A      2.157471  
      34A      2.303261    35A      2.434449    36A      2.455052  
      37A      2.544793    38A      2.761047    39A      3.872954  
      40A      4.346962  

    Final Occupation by Irrep:
              A 
    DOCC [     9 ]

  @DF-RKS Final Energy:   -95.81984566038952

   => Energetics <=

    Nuclear Repulsion Energy =             42.4540084489593568
    One-Electron Energy =                -212.4698097323888533
    Two-Electron Energy =                  83.8573416632887643
    DFT Exchange-Correlation Energy =      -9.6600575038254810
    Empirical Dispersion Energy =          -0.0013285364233060
    VV10 Nonlocal Energy =                  0.0000000000000000
    Total Energy =                        -95.8198456603895039

Computation Completed


Properties will be evaluated at   0.000000,   0.000000,   0.000000 [a0]

Properties computed using the SCF density matrix

  Nuclear Dipole Moment: [e a0]
     X:     1.1459      Y:     0.0702      Z:     0.7811

  Electronic Dipole Moment: [e a0]
     X:    -1.0066      Y:    -0.0179      Z:    -0.1992

  Dipole Moment: [e a0]
     X:     0.1394      Y:     0.0523      Z:     0.5820     Total:     0.6007

  Dipole Moment: [D]
     X:     0.3542      Y:     0.1330      Z:     1.4792     Total:     1.5268


*** tstop() called on bme-nova.bme.utexas.edu at Mon Apr  6 12:52:38 2020
Module time:
	user time   =       5.64 seconds =       0.09 minutes
	system time =       0.12 seconds =       0.00 minutes
	total time  =          7 seconds =       0.12 minutes
Total time:
	user time   =       5.64 seconds =       0.09 minutes
	system time =       0.12 seconds =       0.00 minutes
	total time  =          7 seconds =       0.12 minutes

*** tstart() called on bme-nova.bme.utexas.edu
*** at Mon Apr  6 12:52:38 2020


         ------------------------------------------------------------
                                   SCF GRAD                          
                          Rob Parrish, Justin Turney,                
                       Andy Simmonett, and Alex Sokolov              
         ------------------------------------------------------------

  ==> Geometry <==

    Molecular point group: c1
    Full point group: C1

    Geometry (in Angstrom), charge = 0, multiplicity = 1:

       Center              X                  Y                   Z               Mass       
    ------------   -----------------  -----------------  -----------------  -----------------
         N           -0.707582995931    -0.002902486303    -0.032290971774    14.003074004430
         C            0.723217004069    -0.002902486303    -0.032290971774    12.000000000000
         H            1.114717004069     0.088697513697     0.985109028226     1.007825032230
         H            1.107417004069     0.831997513697    -0.625290971774     1.007825032230
         H            1.107417004069    -0.930302486303    -0.466790971774     1.007825032230
         H           -1.054682995931     0.853497513697     0.397109028226     1.007825032230
         H           -1.054682995931    -0.769002486303     0.543009028226     1.007825032230

  Nuclear repulsion =   42.454008448959357

  ==> Basis Set <==

  Basis Set: 6-31G*
    Blend: 6-31G*
    Number of shells: 22
    Number of basis function: 40
    Number of Cartesian functions: 40
    Spherical Harmonics?: false
    Max angular momentum: 2

  ==> DFJKGrad: Density-Fitted SCF Gradients <==

    Gradient:                    1
    J tasked:                  Yes
    K tasked:                  Yes
    wK tasked:                 Yes
    Omega:               2.000E-01
    OpenMP threads:              1
    Integrals threads:           1
    Memory [MiB]:              500
    Schwarz Cutoff:          0E+00
    Fitting Condition:       1E-10

   => Auxiliary Basis Set <=

  Basis Set: (6-31G* AUX)
    Blend: CC-PVDZ-JKFIT
    Number of shells: 93
    Number of basis function: 287
    Number of Cartesian functions: 287
    Spherical Harmonics?: false
    Max angular momentum: 3

  ==> DFT Potential <==

   => Composite Functional: WB97X-D <= 

    wB97X-D Hyb-GGA Exchange-Correlation Functional

    J.-D. Chai and M. Head-Gordon, Phys. Chem. Chem. Phys. 10, 6615 (2008)

    Deriv               =              1
    GGA                 =           TRUE
    Meta                =          FALSE

    Exchange Hybrid     =           TRUE
    MP2 Hybrid          =          FALSE

   => Exchange-Correlation Functionals <=

    1.0000   wB97D range-separated functional

   => Exact (HF) Exchange <=

    0.7780            HF,LR [omega = 0.2000]
    0.2220               HF 

   => Molecular Quadrature <=

    Radial Scheme          =       TREUTLER
    Pruning Scheme         =           FLAT
    Nuclear Scheme         =       TREUTLER

    BS radius alpha        =              1
    Pruning alpha          =              1
    Radial Points          =             75
    Spherical Points       =            302
    Total Points           =         154241
    Total Blocks           =           1223
    Max Points             =            256
    Max Functions          =             40


  -Total Gradient:
     Atom            X                  Y                   Z
    ------   -----------------  -----------------  -----------------
       1        0.023988538181     0.000358308921     0.003695375761
       2       -0.012106794649    -0.000547797680    -0.006405455788
       3       -0.011477030839    -0.000264958605    -0.003046208304
       4        0.000234679359    -0.000003410590     0.000992235387
       5        0.000246269157     0.000140993529     0.000947891768
       6       -0.000433781150     0.002799567820     0.001652214486
       7       -0.000443890427    -0.002483874801     0.002141866431


*** tstop() called on bme-nova.bme.utexas.edu at Mon Apr  6 12:52:39 2020
Module time:
	user time   =       1.02 seconds =       0.02 minutes
	system time =       0.01 seconds =       0.00 minutes
	total time  =          1 seconds =       0.02 minutes
Total time:
	user time   =       6.66 seconds =       0.11 minutes
	system time =       0.13 seconds =       0.00 minutes
	total time  =          8 seconds =       0.13 minutes

			-----------------------------------------
			 OPTKING 2.0: for geometry optimizations 
			  - R.A. King,  Bethel University        
			-----------------------------------------

	Internal coordinates to be generated automatically.
	Detected frag 1 with atoms:  1 2 3 4 5 6 7
	---Fragment 1 Bond Connectivity---
	 1 : 2 6 7
	 2 : 1 3 4 5
	 3 : 2
	 4 : 2
	 5 : 2
	 6 : 1
	 7 : 1

	---Fragment 1 Geometry and Gradient---
	 N          -1.3371380733       -0.0054849042       -0.0610210930
	 C           1.3666820670       -0.0054849042       -0.0610210930
	 H           2.1065098451        0.1676140089        1.8615862671
	 H           2.0927148444        1.5722474379       -1.1816286854
	 H           2.0927148444       -1.7580169129       -0.8821070945
	 H          -1.9930620115        1.6128765496        0.7504273053
	 H          -1.9930620115       -1.4532040889        1.0261383470
	             0.0239885382        0.0003583089        0.0036953758
	            -0.0121067946       -0.0005477977       -0.0064054558
	            -0.0114770308       -0.0002649586       -0.0030462083
	             0.0002346794       -0.0000034106        0.0009922354
	             0.0002462692        0.0001409935        0.0009478918
	            -0.0004337812        0.0027995678        0.0016522145
	            -0.0004438904       -0.0024838748        0.0021418664

	Previous optimization step data not found.  Starting new optimization.

	---Fragment 1 Intrafragment Coordinates---
	 - Coordinate -           - BOHR/RAD -       - ANG/DEG -
	 R(1,2)           =         2.703820	       1.430800
	 R(1,6)           =         1.925559	       1.018962
	 R(1,7)           =         1.925628	       1.018998
	 R(2,3)           =         2.067300	       1.093968
	 R(2,4)           =         2.066912	       1.093763
	 R(2,5)           =         2.067045	       1.093833
	 B(1,2,3)         =         1.936784	     110.969541
	 B(1,2,4)         =         1.929718	     110.564678
	 B(1,2,5)         =         1.929694	     110.563295
	 B(2,1,6)         =         1.918395	     109.915916
	 B(2,1,7)         =         1.918382	     109.915177
	 B(3,2,4)         =         1.890827	     108.336427
	 B(3,2,5)         =         1.890955	     108.343719
	 B(4,2,5)         =         1.884351	     107.965367
	 B(6,1,7)         =         1.852430	     106.136431
	 D(3,2,1,6)       =         1.016237	      58.226094
	 D(3,2,1,7)       =        -1.016481	     -58.240080
	 D(4,2,1,6)       =        -1.082350	     -62.014076
	 D(4,2,1,7)       =        -3.115068	    -178.480250
	 D(5,2,1,6)       =         3.114968	     178.474512
	 D(5,2,1,7)       =         1.082250	      62.008338

	Current energy   :       -95.8198456604

	Generating empirical Hessian (Schlegel '84) for each fragment.
	Taking RFO optimization step.
	Going to follow RFO solution 1.
	Using RFO vector 1.
	Norm of target step-size    0.14562
	Projected energy change by RFO approximation:        -0.0016342109

	Back-transformation to cartesian coordinates...
	Successfully converged to displaced geometry.

	--- Internal Coordinate Step in ANG or DEG, aJ/ANG or AJ/DEG ---
	 ---------------------------------------------------------------------------
	   Coordinate                Previous        Force       Change         New 
	   ----------                --------       ------       ------       ------
	    1 R(1,2)          =      1.430800     0.190306     0.029634     1.460434
	    2 R(1,6)          =      1.018962    -0.026296    -0.003764     1.015198
	    3 R(1,7)          =      1.018998    -0.026551    -0.003801     1.015198
	    4 R(2,3)          =      1.093968     0.057273     0.010592     1.104560
	    5 R(2,4)          =      1.093763     0.003816     0.000705     1.094468
	    6 R(2,5)          =      1.093833     0.003414     0.000631     1.094464
	    7 B(1,2,3)        =    110.969541     0.001169     6.191495   117.161035
	    8 B(1,2,4)        =    110.564678    -0.000257    -1.295869   109.268809
	    9 B(1,2,5)        =    110.563295    -0.000256    -1.295143   109.268152
	   10 B(2,1,6)        =    109.915916     0.000080     0.486097   110.402013
	   11 B(2,1,7)        =    109.915177     0.000080     0.486263   110.401440
	   12 B(3,2,4)        =    108.336427    -0.000332    -1.200854   107.135574
	   13 B(3,2,5)        =    108.343719    -0.000333    -1.207576   107.136143
	   14 B(4,2,5)        =    107.965367    -0.000027    -1.629219   106.336148
	   15 B(6,1,7)        =    106.136431    -0.000042     0.064659   106.201090
	   16 D(3,2,1,6)      =     58.226094     0.000005     0.333655    58.559749
	   17 D(3,2,1,7)      =    -58.240080    -0.000005    -0.325483   -58.565563
	   18 D(4,2,1,6)      =    -62.014076    -0.000037    -1.442692   -63.456768
	   19 D(4,2,1,7)      =   -178.480250    -0.000047    -2.101829  -180.582079
	   20 D(5,2,1,6)      =    178.474512     0.000047     2.101977   180.576488
	   21 D(5,2,1,7)      =     62.008338     0.000037     1.442839    63.451177
	 ---------------------------------------------------------------------------
	Successfully symmetrized geometry.

  ==> Convergence Check <==

  Measures of convergence in internal coordinates in au.
  Criteria marked as inactive (o), active & met (*), and active & unmet ( ).
  --------------------------------------------------------------------------------------------- ~
   Step     Total Energy     Delta E     MAX Force     RMS Force      MAX Disp      RMS Disp    ~
  --------------------------------------------------------------------------------------------- ~
    Convergence Criteria    1.00e-06 *    3.00e-04 *             o    1.20e-03 *             o  ~
  --------------------------------------------------------------------------------------------- ~
      1     -95.81984566   -9.58e+01      2.31e-02      6.64e-03 o    1.08e-01      3.25e-02 o  ~
  ---------------------------------------------------------------------------------------------

	Writing optimization data to binary file.
	Structure for next step:
	Cartesian Geometry (in Angstrom)
	    N    -0.7372014069   0.0026467976   0.0295218000
	    C     0.7214452753  -0.0038128873  -0.0424168041
	    H     1.2736556729   0.0819078817   0.9103515031
	    H     1.0550815059   0.8180547378  -0.6835723239
	    H     1.0550829331  -0.9269136355  -0.5265887173
	    H    -1.0661321620   0.8571820482   0.4679302877
	    H    -1.0661127945  -0.7599823469   0.6133374491
			--------------------------
			 OPTKING Finished Execution 
			--------------------------

    Structure for next step:
    Molecular point group: c1
    Full point group: C1

    Geometry (in Angstrom), charge = 0, multiplicity = 1:

    N           -0.724174826808     0.000646068299     0.007230614024
    C            0.734471861126    -0.005813616698    -0.064707990349
    H            1.286682260889     0.079907152706     0.888060320586
    H            1.068108093032     0.816054011665    -0.705863512647
    H            1.068109520273    -0.928914368505    -0.548879905394
    H           -1.053105583198     0.855181322179     0.445639103521
    H           -1.053086215700    -0.761983079239     0.591046265480

gradient() will perform analytic gradient computation.

*** tstart() called on bme-nova.bme.utexas.edu
*** at Mon Apr  6 12:52:39 2020

   => Loading Basis Set <=

    Name: 6-31G*
    Role: ORBITAL
    Keyword: BASIS
    atoms 1   entry N          line   128 file /home/bdw2292/miniconda3/envs/p4env/share/psi4/basis/6-31gs.gbs 
    atoms 2   entry C          line   111 file /home/bdw2292/miniconda3/envs/p4env/share/psi4/basis/6-31gs.gbs 
    atoms 3-7 entry H          line    44 file /home/bdw2292/miniconda3/envs/p4env/share/psi4/basis/6-31gs.gbs 


         ---------------------------------------------------------
                                   SCF
               by Justin Turney, Rob Parrish, Andy Simmonett
                          and Daniel G. A. Smith
                              RKS Reference
                        1 Threads,    667 MiB Core
         ---------------------------------------------------------

  ==> Geometry <==

    Molecular point group: c1
    Full point group: C1

    Geometry (in Angstrom), charge = 0, multiplicity = 1:

       Center              X                  Y                   Z               Mass       
    ------------   -----------------  -----------------  -----------------  -----------------
         N           -0.724174826808     0.000646068299     0.007230614024    14.003074004430
         C            0.734471861126    -0.005813616698    -0.064707990349    12.000000000000
         H            1.286682260889     0.079907152706     0.888060320586     1.007825032230
         H            1.068108093032     0.816054011665    -0.705863512647     1.007825032230
         H            1.068109520273    -0.928914368505    -0.548879905394     1.007825032230
         H           -1.053105583198     0.855181322179     0.445639103521     1.007825032230
         H           -1.053086215700    -0.761983079239     0.591046265480     1.007825032230

  Running in c1 symmetry.

  Rotational constants: A =      3.46679  B =      0.75871  C =      0.72955 [cm^-1]
  Rotational constants: A = 103931.86677  B =  22745.54351  C =  21871.45344 [MHz]
  Nuclear repulsion =   41.962547078897529

  Charge       = 0
  Multiplicity = 1
  Electrons    = 18
  Nalpha       = 9
  Nbeta        = 9

  ==> Algorithm <==

  SCF Algorithm Type is DF.
  DIIS enabled.
  MOM disabled.
  Fractional occupation disabled.
  Guess Type is READ.
  Energy threshold   = 1.00e-08
  Density threshold  = 1.00e-08
  Integral threshold = 0.00e+00

  ==> Primary Basis <==

  Basis Set: 6-31G*
    Blend: 6-31G*
    Number of shells: 22
    Number of basis function: 40
    Number of Cartesian functions: 40
    Spherical Harmonics?: false
    Max angular momentum: 2

  ==> DFT Potential <==

   => Composite Functional: WB97X-D <= 

    wB97X-D Hyb-GGA Exchange-Correlation Functional

    J.-D. Chai and M. Head-Gordon, Phys. Chem. Chem. Phys. 10, 6615 (2008)

    Deriv               =              1
    GGA                 =           TRUE
    Meta                =          FALSE

    Exchange Hybrid     =           TRUE
    MP2 Hybrid          =          FALSE

   => Exchange-Correlation Functionals <=

    1.0000   wB97D range-separated functional

   => Exact (HF) Exchange <=

    0.7780            HF,LR [omega = 0.2000]
    0.2220               HF 

   => Molecular Quadrature <=

    Radial Scheme          =       TREUTLER
    Pruning Scheme         =           FLAT
    Nuclear Scheme         =       TREUTLER

    BS radius alpha        =              1
    Pruning alpha          =              1
    Radial Points          =             75
    Spherical Points       =            302
    Total Points           =         154273
    Total Blocks           =           1227
    Max Points             =            256
    Max Functions          =             40

   => WB97X-D: Empirical Dispersion <=

    Chai and Head-Gordon Dispersion Correction
    Chai, J.-D.; Head-Gordon, M. (2010), J. Chem. Phys., 132: 6615-6620

        s6 =       1.000000

   => Loading Basis Set <=

    Name: (6-31G* AUX)
    Role: JKFIT
    Keyword: DF_BASIS_SCF
    atoms 1   entry N          line   171 file /home/bdw2292/miniconda3/envs/p4env/share/psi4/basis/cc-pvdz-jkfit.gbs 
    atoms 2   entry C          line   121 file /home/bdw2292/miniconda3/envs/p4env/share/psi4/basis/cc-pvdz-jkfit.gbs 
    atoms 3-7 entry H          line    51 file /home/bdw2292/miniconda3/envs/p4env/share/psi4/basis/cc-pvdz-jkfit.gbs 

   => Loading Basis Set <=

    Name: 6-31G*
    Role: ORBITAL
    Keyword: BASIS
    atoms 1   entry N          line   128 file /home/bdw2292/miniconda3/envs/p4env/share/psi4/basis/6-31gs.gbs 
    atoms 2   entry C          line   111 file /home/bdw2292/miniconda3/envs/p4env/share/psi4/basis/6-31gs.gbs 
    atoms 3-7 entry H          line    44 file /home/bdw2292/miniconda3/envs/p4env/share/psi4/basis/6-31gs.gbs 

  Reading orbitals from file 180, no projection.

  ==> Pre-Iterations <==

   -------------------------------------------------------
    Irrep   Nso     Nmo     Nalpha   Nbeta   Ndocc  Nsocc
   -------------------------------------------------------
     A         40      40       0       0       0       0
   -------------------------------------------------------
    Total      40      40       9       9       9       0
   -------------------------------------------------------

  ==> Integral Setup <==

  ==> DiskDFJK: Density-Fitted J/K Matrices <==

    J tasked:                  Yes
    K tasked:                  Yes
    wK tasked:                 Yes
    Omega:               2.000E-01
    OpenMP threads:              1
    Integrals threads:           1
    Memory [MiB]:              328
    Algorithm:                Core
    Integral Cache:           NONE
    Schwarz Cutoff:          1E-12
    Fitting Condition:       1E-10

   => Auxiliary Basis Set <=

  Basis Set: (6-31G* AUX)
    Blend: CC-PVDZ-JKFIT
    Number of shells: 93
    Number of basis function: 287
    Number of Cartesian functions: 287
    Spherical Harmonics?: false
    Max angular momentum: 3

  Cached 100.0% of DFT collocation blocks in 0.168 [GiB].

  Minimum eigenvalue in the overlap matrix is 9.3243867745E-03.
  Using Symmetric Orthogonalization.

  SCF Guess: Orbitals guess was supplied from a previous computation.

  ==> Iterations <==

                           Total Energy        Delta E     RMS |[F,P]|

   @DF-RKS iter   0:   -95.80690466713071   -9.58069e+01   2.36149e-03 
   @DF-RKS iter   1:   -95.82095860023726   -1.40539e-02   4.22200e-04 DIIS
   @DF-RKS iter   2:   -95.82115867836117   -2.00078e-04   2.24980e-04 DIIS
   @DF-RKS iter   3:   -95.82119757270453   -3.88943e-05   7.00804e-05 DIIS
   @DF-RKS iter   4:   -95.82120292856182   -5.35586e-06   1.81179e-05 DIIS
   @DF-RKS iter   5:   -95.82120324387181   -3.15310e-07   6.73780e-06 DIIS
   @DF-RKS iter   6:   -95.82120328462000   -4.07482e-08   1.24657e-06 DIIS
   @DF-RKS iter   7:   -95.82120328974500   -5.12500e-09   2.51426e-07 DIIS
   @DF-RKS iter   8:   -95.82120328998617   -2.41172e-10   4.34575e-08 DIIS
   @DF-RKS iter   9:   -95.82120328999244   -6.26699e-12   9.56927e-09 DIIS
  Energy and wave function converged.


  ==> Post-Iterations <==

    Orbital Energies [Eh]
    ---------------------

    Doubly Occupied:                                                      

       1A    -14.424443     2A    -10.307023     3A     -0.968057  
       4A     -0.750505     5A     -0.571062     6A     -0.520636  
       7A     -0.479640     8A     -0.444149     9A     -0.310536  

    Virtual:                                                              

      10A      0.174275    11A      0.227221    12A      0.241567  
      13A      0.261998    14A      0.272708    15A      0.325567  
      16A      0.639550    17A      0.652141    18A      0.679017  
      19A      0.830592    20A      0.838092    21A      0.893032  
      22A      0.958059    23A      1.015700    24A      1.023425  
      25A      1.024360    26A      1.068077    27A      1.146382  
      28A      1.471273    29A      1.611254    30A      1.638379  
      31A      1.966651    32A      2.123366    33A      2.148148  
      34A      2.262032    35A      2.410645    36A      2.466147  
      37A      2.545961    38A      2.748269    39A      3.862148  
      40A      4.344868  

    Final Occupation by Irrep:
              A 
    DOCC [     9 ]

  @DF-RKS Final Energy:   -95.82120328999244

   => Energetics <=

    Nuclear Repulsion Energy =             41.9625470788975292
    One-Electron Energy =                -211.5071551555502083
    Two-Electron Energy =                  83.3711307133659716
    DFT Exchange-Correlation Energy =      -9.6464087886963199
    Empirical Dispersion Energy =          -0.0013171380094208
    VV10 Nonlocal Energy =                  0.0000000000000000
    Total Energy =                        -95.8212032899924537

Computation Completed


Properties will be evaluated at   0.000000,   0.000000,   0.000000 [a0]

Properties computed using the SCF density matrix

  Nuclear Dipole Moment: [e a0]
     X:     1.2365      Y:     0.0565      Z:     0.6281

  Electronic Dipole Moment: [e a0]
     X:    -1.0760      Y:    -0.0062      Z:    -0.0691

  Dipole Moment: [e a0]
     X:     0.1605      Y:     0.0503      Z:     0.5590     Total:     0.5838

  Dipole Moment: [D]
     X:     0.4080      Y:     0.1278      Z:     1.4209     Total:     1.4838


*** tstop() called on bme-nova.bme.utexas.edu at Mon Apr  6 12:52:44 2020
Module time:
	user time   =       4.47 seconds =       0.07 minutes
	system time =       0.02 seconds =       0.00 minutes
	total time  =          5 seconds =       0.08 minutes
Total time:
	user time   =      11.14 seconds =       0.19 minutes
	system time =       0.15 seconds =       0.00 minutes
	total time  =         13 seconds =       0.22 minutes

*** tstart() called on bme-nova.bme.utexas.edu
*** at Mon Apr  6 12:52:44 2020


         ------------------------------------------------------------
                                   SCF GRAD                          
                          Rob Parrish, Justin Turney,                
                       Andy Simmonett, and Alex Sokolov              
         ------------------------------------------------------------

  ==> Geometry <==

    Molecular point group: c1
    Full point group: C1

    Geometry (in Angstrom), charge = 0, multiplicity = 1:

       Center              X                  Y                   Z               Mass       
    ------------   -----------------  -----------------  -----------------  -----------------
         N           -0.724174826808     0.000646068299     0.007230614024    14.003074004430
         C            0.734471861126    -0.005813616698    -0.064707990349    12.000000000000
         H            1.286682260889     0.079907152706     0.888060320586     1.007825032230
         H            1.068108093032     0.816054011665    -0.705863512647     1.007825032230
         H            1.068109520273    -0.928914368505    -0.548879905394     1.007825032230
         H           -1.053105583198     0.855181322179     0.445639103521     1.007825032230
         H           -1.053086215700    -0.761983079239     0.591046265480     1.007825032230

  Nuclear repulsion =   41.962547078897529

  ==> Basis Set <==

  Basis Set: 6-31G*
    Blend: 6-31G*
    Number of shells: 22
    Number of basis function: 40
    Number of Cartesian functions: 40
    Spherical Harmonics?: false
    Max angular momentum: 2

  ==> DFJKGrad: Density-Fitted SCF Gradients <==

    Gradient:                    1
    J tasked:                  Yes
    K tasked:                  Yes
    wK tasked:                 Yes
    Omega:               2.000E-01
    OpenMP threads:              1
    Integrals threads:           1
    Memory [MiB]:              500
    Schwarz Cutoff:          0E+00
    Fitting Condition:       1E-10

   => Auxiliary Basis Set <=

  Basis Set: (6-31G* AUX)
    Blend: CC-PVDZ-JKFIT
    Number of shells: 93
    Number of basis function: 287
    Number of Cartesian functions: 287
    Spherical Harmonics?: false
    Max angular momentum: 3

  ==> DFT Potential <==

   => Composite Functional: WB97X-D <= 

    wB97X-D Hyb-GGA Exchange-Correlation Functional

    J.-D. Chai and M. Head-Gordon, Phys. Chem. Chem. Phys. 10, 6615 (2008)

    Deriv               =              1
    GGA                 =           TRUE
    Meta                =          FALSE

    Exchange Hybrid     =           TRUE
    MP2 Hybrid          =          FALSE

   => Exchange-Correlation Functionals <=

    1.0000   wB97D range-separated functional

   => Exact (HF) Exchange <=

    0.7780            HF,LR [omega = 0.2000]
    0.2220               HF 

   => Molecular Quadrature <=

    Radial Scheme          =       TREUTLER
    Pruning Scheme         =           FLAT
    Nuclear Scheme         =       TREUTLER

    BS radius alpha        =              1
    Pruning alpha          =              1
    Radial Points          =             75
    Spherical Points       =            302
    Total Points           =         154273
    Total Blocks           =           1227
    Max Points             =            256
    Max Functions          =             40


  -Total Gradient:
     Atom            X                  Y                   Z
    ------   -----------------  -----------------  -----------------
       1       -0.001786690955    -0.000047552742    -0.000526598668
       2       -0.001816961958     0.000164887398     0.001857064720
       3        0.003279181671    -0.000095255351    -0.001066053492
       4        0.000974216739    -0.000832362623     0.000097064574
       5        0.000972508664     0.000838024560    -0.000052461217
       6       -0.000766753568    -0.000471449153    -0.000139838430
       7       -0.000766015714     0.000438956644    -0.000222281465


*** tstop() called on bme-nova.bme.utexas.edu at Mon Apr  6 12:52:45 2020
Module time:
	user time   =       1.03 seconds =       0.02 minutes
	system time =       0.01 seconds =       0.00 minutes
	total time  =          1 seconds =       0.02 minutes
Total time:
	user time   =      12.17 seconds =       0.20 minutes
	system time =       0.16 seconds =       0.00 minutes
	total time  =         14 seconds =       0.23 minutes

			-----------------------------------------
			 OPTKING 2.0: for geometry optimizations 
			  - R.A. King,  Bethel University        
			-----------------------------------------

	Previous internal coordinate definitions found.
	---Fragment 1 Geometry and Gradient---
	 N          -1.3684920896        0.0012208921        0.0136638802
	 C           1.3879506644       -0.0109861434       -0.1222803799
	 H           2.4314770836        0.1510026341        1.6781907888
	 H           2.0184317682        1.5421185856       -1.3338887209
	 H           2.0184344653       -1.7553937505       -1.0372326970
	 H          -1.9900811334        1.6160584865        0.8421358564
	 H          -1.9900445342       -1.4399393320        1.1169155692
	            -0.0017866910       -0.0000475527       -0.0005265987
	            -0.0018169620        0.0001648874        0.0018570647
	             0.0032791817       -0.0000952554       -0.0010660535
	             0.0009742167       -0.0008323626        0.0000970646
	             0.0009725087        0.0008380246       -0.0000524612
	            -0.0007667536       -0.0004714492       -0.0001398384
	            -0.0007660157        0.0004389566       -0.0002222815

	---Fragment 1 Intrafragment Coordinates---
	 - Coordinate -           - BOHR/RAD -       - ANG/DEG -
	 R(1,2)           =         2.759820	       1.460434
	 R(1,6)           =         1.918447	       1.015198
	 R(1,7)           =         1.918446	       1.015198
	 R(2,3)           =         2.087315	       1.104560
	 R(2,4)           =         2.068245	       1.094468
	 R(2,5)           =         2.068237	       1.094464
	 B(1,2,3)         =         2.044846	     117.161035
	 B(1,2,4)         =         1.907100	     109.268809
	 B(1,2,5)         =         1.907089	     109.268152
	 B(2,1,6)         =         1.926879	     110.402013
	 B(2,1,7)         =         1.926869	     110.401440
	 B(3,2,4)         =         1.869869	     107.135574
	 B(3,2,5)         =         1.869878	     107.136143
	 B(4,2,5)         =         1.855916	     106.336148
	 B(6,1,7)         =         1.853559	     106.201090
	 D(3,2,1,6)       =         1.022060	      58.559749
	 D(3,2,1,7)       =        -1.022162	     -58.565563
	 D(4,2,1,6)       =        -1.107530	     -63.456768
	 D(4,2,1,7)       =         3.131433	     179.417921
	 D(5,2,1,6)       =        -3.131531	    -179.423512
	 D(5,2,1,7)       =         1.107432	      63.451177

	Current energy   :       -95.8212032900

	Energy change for the previous step:
		Projected    :        -0.0016342109
		Actual       :        -0.0013576296
	Energy ratio indicates good step: Trust radius increased to 1.000e+00.


	Performing BFGS update.
	Previous computed or guess Hessian on step 1.
	Steps to be used in Hessian update: 1
	Taking RFO optimization step.
	Going to follow RFO solution 1.
	Using RFO vector 1.
	Norm of target step-size    0.03633
	Projected energy change by RFO approximation:        -0.0003680552

	Back-transformation to cartesian coordinates...
	Successfully converged to displaced geometry.

	--- Internal Coordinate Step in ANG or DEG, aJ/ANG or AJ/DEG ---
	 ---------------------------------------------------------------------------
	   Coordinate                Previous        Force       Change         New 
	   ----------                --------       ------       ------       ------
	    1 R(1,2)          =      1.460434    -0.027377    -0.003131     1.457302
	    2 R(1,6)          =      1.015198     0.001735     0.000159     1.015358
	    3 R(1,7)          =      1.015198     0.001740     0.000160     1.015357
	    4 R(2,3)          =      1.104560    -0.005962    -0.000774     1.103785
	    5 R(2,4)          =      1.094468     0.003275     0.000502     1.094970
	    6 R(2,5)          =      1.094464     0.003293     0.000504     1.094968
	    7 B(1,2,3)        =    117.161035    -0.000343    -1.372581   115.788454
	    8 B(1,2,4)        =    109.268809    -0.000030    -0.108665   109.160144
	    9 B(1,2,5)        =    109.268152    -0.000030    -0.108253   109.159899
	   10 B(2,1,6)        =    110.402013    -0.000098    -0.451995   109.950018
	   11 B(2,1,7)        =    110.401440    -0.000098    -0.451666   109.949774
	   12 B(3,2,4)        =    107.135574     0.000171     0.550192   107.685766
	   13 B(3,2,5)        =    107.136143     0.000171     0.549638   107.685781
	   14 B(4,2,5)        =    106.336148     0.000106     0.675626   107.011774
	   15 B(6,1,7)        =    106.201090     0.000069     0.074689   106.275779
	   16 D(3,2,1,6)      =     58.559749    -0.000004    -0.223794    58.335955
	   17 D(3,2,1,7)      =    -58.565563     0.000004     0.225741   -58.339822
	   18 D(4,2,1,6)      =    -63.456768     0.000007     0.120008   -63.336759
	   19 D(4,2,1,7)      =    179.417921     0.000015     0.569543   179.987464
	   20 D(5,2,1,6)      =   -179.423512    -0.000015    -0.567990  -179.991502
	   21 D(5,2,1,7)      =     63.451177    -0.000007    -0.118455    63.332721
	 ---------------------------------------------------------------------------
	Successfully symmetrized geometry.

  ==> Convergence Check <==

  Measures of convergence in internal coordinates in au.
  Criteria marked as inactive (o), active & met (*), and active & unmet ( ).
  ---------------------------------------------------------------------------------------------
   Step     Total Energy     Delta E     MAX Force     RMS Force      MAX Disp      RMS Disp   
  ---------------------------------------------------------------------------------------------
    Convergence Criteria    1.00e-06 *    3.00e-04 *             o    1.20e-03 *             o
  ---------------------------------------------------------------------------------------------
      2     -95.82120329   -1.36e-03      4.51e-03      1.55e-03 o    2.40e-02      7.89e-03 o  ~
  ---------------------------------------------------------------------------------------------

	Writing optimization data to binary file.
	Structure for next step:
	Cartesian Geometry (in Angstrom)
	    N    -0.7206851247   0.0001493882   0.0017169418
	    C     0.7349199678  -0.0061401409  -0.0683153363
	    H     1.2625151689   0.0807318714   0.8973132833
	    H     1.0676711292   0.8204298010  -0.7047251266
	    H     1.0676789908  -0.9330191659  -0.5469814529
	    H    -1.0425542048   0.8555668722   0.4439984289
	    H    -1.0425408228  -0.7626411358   0.5895181545
			--------------------------
			 OPTKING Finished Execution 
			--------------------------

    Structure for next step:
    Molecular point group: c1
    Full point group: C1

    Geometry (in Angstrom), charge = 0, multiplicity = 1:

    N           -0.722304703816     0.000472937883     0.005302516528
    C            0.733300394381    -0.005816591298    -0.064729761884
    H            1.260895597587     0.081055421381     0.900898861552
    H            1.066051557128     0.820753353872    -0.701139554672
    H            1.066059418786    -0.932695619908    -0.543395880339
    H           -1.044173785153     0.855890425246     0.447584005355
    H           -1.044160403106    -0.762317589089     0.593103731543

gradient() will perform analytic gradient computation.

*** tstart() called on bme-nova.bme.utexas.edu
*** at Mon Apr  6 12:52:45 2020

   => Loading Basis Set <=

    Name: 6-31G*
    Role: ORBITAL
    Keyword: BASIS
    atoms 1   entry N          line   128 file /home/bdw2292/miniconda3/envs/p4env/share/psi4/basis/6-31gs.gbs 
    atoms 2   entry C          line   111 file /home/bdw2292/miniconda3/envs/p4env/share/psi4/basis/6-31gs.gbs 
    atoms 3-7 entry H          line    44 file /home/bdw2292/miniconda3/envs/p4env/share/psi4/basis/6-31gs.gbs 


         ---------------------------------------------------------
                                   SCF
               by Justin Turney, Rob Parrish, Andy Simmonett
                          and Daniel G. A. Smith
                              RKS Reference
                        1 Threads,    667 MiB Core
         ---------------------------------------------------------

  ==> Geometry <==

    Molecular point group: c1
    Full point group: C1

    Geometry (in Angstrom), charge = 0, multiplicity = 1:

       Center              X                  Y                   Z               Mass       
    ------------   -----------------  -----------------  -----------------  -----------------
         N           -0.722304703816     0.000472937883     0.005302516528    14.003074004430
         C            0.733300394381    -0.005816591298    -0.064729761884    12.000000000000
         H            1.260895597587     0.081055421381     0.900898861552     1.007825032230
         H            1.066051557128     0.820753353872    -0.701139554672     1.007825032230
         H            1.066059418786    -0.932695619908    -0.543395880339     1.007825032230
         H           -1.044173785153     0.855890425246     0.447584005355     1.007825032230
         H           -1.044160403106    -0.762317589089     0.593103731543     1.007825032230

  Running in c1 symmetry.

  Rotational constants: A =      3.44141  B =      0.76411  C =      0.73462 [cm^-1]
  Rotational constants: A = 103170.88607  B =  22907.41639  C =  22023.27918 [MHz]
  Nuclear repulsion =   42.031089583782901

  Charge       = 0
  Multiplicity = 1
  Electrons    = 18
  Nalpha       = 9
  Nbeta        = 9

  ==> Algorithm <==

  SCF Algorithm Type is DF.
  DIIS enabled.
  MOM disabled.
  Fractional occupation disabled.
  Guess Type is READ.
  Energy threshold   = 1.00e-08
  Density threshold  = 1.00e-08
  Integral threshold = 0.00e+00

  ==> Primary Basis <==

  Basis Set: 6-31G*
    Blend: 6-31G*
    Number of shells: 22
    Number of basis function: 40
    Number of Cartesian functions: 40
    Spherical Harmonics?: false
    Max angular momentum: 2

  ==> DFT Potential <==

   => Composite Functional: WB97X-D <= 

    wB97X-D Hyb-GGA Exchange-Correlation Functional

    J.-D. Chai and M. Head-Gordon, Phys. Chem. Chem. Phys. 10, 6615 (2008)

    Deriv               =              1
    GGA                 =           TRUE
    Meta                =          FALSE

    Exchange Hybrid     =           TRUE
    MP2 Hybrid          =          FALSE

   => Exchange-Correlation Functionals <=

    1.0000   wB97D range-separated functional

   => Exact (HF) Exchange <=

    0.7780            HF,LR [omega = 0.2000]
    0.2220               HF 

   => Molecular Quadrature <=

    Radial Scheme          =       TREUTLER
    Pruning Scheme         =           FLAT
    Nuclear Scheme         =       TREUTLER

    BS radius alpha        =              1
    Pruning alpha          =              1
    Radial Points          =             75
    Spherical Points       =            302
    Total Points           =         154259
    Total Blocks           =           1224
    Max Points             =            256
    Max Functions          =             40

   => WB97X-D: Empirical Dispersion <=

    Chai and Head-Gordon Dispersion Correction
    Chai, J.-D.; Head-Gordon, M. (2010), J. Chem. Phys., 132: 6615-6620

        s6 =       1.000000

   => Loading Basis Set <=

    Name: (6-31G* AUX)
    Role: JKFIT
    Keyword: DF_BASIS_SCF
    atoms 1   entry N          line   171 file /home/bdw2292/miniconda3/envs/p4env/share/psi4/basis/cc-pvdz-jkfit.gbs 
    atoms 2   entry C          line   121 file /home/bdw2292/miniconda3/envs/p4env/share/psi4/basis/cc-pvdz-jkfit.gbs 
    atoms 3-7 entry H          line    51 file /home/bdw2292/miniconda3/envs/p4env/share/psi4/basis/cc-pvdz-jkfit.gbs 

   => Loading Basis Set <=

    Name: 6-31G*
    Role: ORBITAL
    Keyword: BASIS
    atoms 1   entry N          line   128 file /home/bdw2292/miniconda3/envs/p4env/share/psi4/basis/6-31gs.gbs 
    atoms 2   entry C          line   111 file /home/bdw2292/miniconda3/envs/p4env/share/psi4/basis/6-31gs.gbs 
    atoms 3-7 entry H          line    44 file /home/bdw2292/miniconda3/envs/p4env/share/psi4/basis/6-31gs.gbs 

  Reading orbitals from file 180, no projection.

  ==> Pre-Iterations <==

   -------------------------------------------------------
    Irrep   Nso     Nmo     Nalpha   Nbeta   Ndocc  Nsocc
   -------------------------------------------------------
     A         40      40       0       0       0       0
   -------------------------------------------------------
    Total      40      40       9       9       9       0
   -------------------------------------------------------

  ==> Integral Setup <==

  ==> DiskDFJK: Density-Fitted J/K Matrices <==

    J tasked:                  Yes
    K tasked:                  Yes
    wK tasked:                 Yes
    Omega:               2.000E-01
    OpenMP threads:              1
    Integrals threads:           1
    Memory [MiB]:              328
    Algorithm:                Core
    Integral Cache:           NONE
    Schwarz Cutoff:          1E-12
    Fitting Condition:       1E-10

   => Auxiliary Basis Set <=

  Basis Set: (6-31G* AUX)
    Blend: CC-PVDZ-JKFIT
    Number of shells: 93
    Number of basis function: 287
    Number of Cartesian functions: 287
    Spherical Harmonics?: false
    Max angular momentum: 3

  Cached 100.0% of DFT collocation blocks in 0.168 [GiB].

  Minimum eigenvalue in the overlap matrix is 9.1646476844E-03.
  Using Symmetric Orthogonalization.

  SCF Guess: Orbitals guess was supplied from a previous computation.

  ==> Iterations <==

                           Total Energy        Delta E     RMS |[F,P]|

   @DF-RKS iter   0:   -95.82208796678273   -9.58221e+01   2.51238e-04 
   @DF-RKS iter   1:   -95.82133098490979    7.56982e-04   5.18092e-05 DIIS
   @DF-RKS iter   2:   -95.82133355414560   -2.56924e-06   3.25013e-05 DIIS
   @DF-RKS iter   3:   -95.82133425989721   -7.05752e-07   1.02961e-05 DIIS
   @DF-RKS iter   4:   -95.82133436561476   -1.05718e-07   1.75394e-06 DIIS
   @DF-RKS iter   5:   -95.82133437015099   -4.53623e-09   2.77794e-07 DIIS
   @DF-RKS iter   6:   -95.82133437032275   -1.71752e-10   1.38143e-07 DIIS
   @DF-RKS iter   7:   -95.82133437034115   -1.84031e-11   2.34002e-08 DIIS
   @DF-RKS iter   8:   -95.82133437034197   -8.24230e-13   4.48471e-09 DIIS
  Energy and wave function converged.


  ==> Post-Iterations <==

    Orbital Energies [Eh]
    ---------------------

    Doubly Occupied:                                                      

       1A    -14.423726     2A    -10.306832     3A     -0.969271  
       4A     -0.749461     5A     -0.571959     6A     -0.520177  
       7A     -0.480367     8A     -0.444579     9A     -0.310245  

    Virtual:                                                              

      10A      0.173506    11A      0.228543    12A      0.241527  
      13A      0.261884    14A      0.272387    15A      0.325515  
      16A      0.639294    17A      0.654178    18A      0.679327  
      19A      0.830117    20A      0.836736    21A      0.890957  
      22A      0.957670    23A      1.016780    24A      1.022514  
      25A      1.023656    26A      1.068619    27A      1.147663  
      28A      1.472698    29A      1.609384    30A      1.636085  
      31A      1.976079    32A      2.129016    33A      2.152448  
      34A      2.267442    35A      2.410392    36A      2.459044  
      37A      2.545732    38A      2.750685    39A      3.863909  
      40A      4.345085  

    Final Occupation by Irrep:
              A 
    DOCC [     9 ]

  @DF-RKS Final Energy:   -95.82133437034197

   => Energetics <=

    Nuclear Repulsion Energy =             42.0310895837829008
    One-Electron Energy =                -211.6422222527659756
    Two-Electron Energy =                  83.4392052847613570
    DFT Exchange-Correlation Energy =      -9.6480799529883949
    Empirical Dispersion Energy =          -0.0013270331318369
    VV10 Nonlocal Energy =                  0.0000000000000000
    Total Energy =                        -95.8213343703419724

Computation Completed


Properties will be evaluated at   0.000000,   0.000000,   0.000000 [a0]

Properties computed using the SCF density matrix

  Nuclear Dipole Moment: [e a0]
     X:     1.2252      Y:     0.0588      Z:     0.6534

  Electronic Dipole Moment: [e a0]
     X:    -1.0576      Y:    -0.0079      Z:    -0.0882

  Dipole Moment: [e a0]
     X:     0.1676      Y:     0.0508      Z:     0.5653     Total:     0.5918

  Dipole Moment: [D]
     X:     0.4260      Y:     0.1292      Z:     1.4368     Total:     1.5042


*** tstop() called on bme-nova.bme.utexas.edu at Mon Apr  6 12:52:49 2020
Module time:
	user time   =       4.06 seconds =       0.07 minutes
	system time =       0.03 seconds =       0.00 minutes
	total time  =          4 seconds =       0.07 minutes
Total time:
	user time   =      16.24 seconds =       0.27 minutes
	system time =       0.19 seconds =       0.00 minutes
	total time  =         18 seconds =       0.30 minutes

*** tstart() called on bme-nova.bme.utexas.edu
*** at Mon Apr  6 12:52:49 2020


         ------------------------------------------------------------
                                   SCF GRAD                          
                          Rob Parrish, Justin Turney,                
                       Andy Simmonett, and Alex Sokolov              
         ------------------------------------------------------------

  ==> Geometry <==

    Molecular point group: c1
    Full point group: C1

    Geometry (in Angstrom), charge = 0, multiplicity = 1:

       Center              X                  Y                   Z               Mass       
    ------------   -----------------  -----------------  -----------------  -----------------
         N           -0.722304703816     0.000472937883     0.005302516528    14.003074004430
         C            0.733300394381    -0.005816591298    -0.064729761884    12.000000000000
         H            1.260895597587     0.081055421381     0.900898861552     1.007825032230
         H            1.066051557128     0.820753353872    -0.701139554672     1.007825032230
         H            1.066059418786    -0.932695619908    -0.543395880339     1.007825032230
         H           -1.044173785153     0.855890425246     0.447584005355     1.007825032230
         H           -1.044160403106    -0.762317589089     0.593103731543     1.007825032230

  Nuclear repulsion =   42.031089583782901

  ==> Basis Set <==

  Basis Set: 6-31G*
    Blend: 6-31G*
    Number of shells: 22
    Number of basis function: 40
    Number of Cartesian functions: 40
    Spherical Harmonics?: false
    Max angular momentum: 2

  ==> DFJKGrad: Density-Fitted SCF Gradients <==

    Gradient:                    1
    J tasked:                  Yes
    K tasked:                  Yes
    wK tasked:                 Yes
    Omega:               2.000E-01
    OpenMP threads:              1
    Integrals threads:           1
    Memory [MiB]:              500
    Schwarz Cutoff:          0E+00
    Fitting Condition:       1E-10

   => Auxiliary Basis Set <=

  Basis Set: (6-31G* AUX)
    Blend: CC-PVDZ-JKFIT
    Number of shells: 93
    Number of basis function: 287
    Number of Cartesian functions: 287
    Spherical Harmonics?: false
    Max angular momentum: 3

  ==> DFT Potential <==

   => Composite Functional: WB97X-D <= 

    wB97X-D Hyb-GGA Exchange-Correlation Functional

    J.-D. Chai and M. Head-Gordon, Phys. Chem. Chem. Phys. 10, 6615 (2008)

    Deriv               =              1
    GGA                 =           TRUE
    Meta                =          FALSE

    Exchange Hybrid     =           TRUE
    MP2 Hybrid          =          FALSE

   => Exchange-Correlation Functionals <=

    1.0000   wB97D range-separated functional

   => Exact (HF) Exchange <=

    0.7780            HF,LR [omega = 0.2000]
    0.2220               HF 

   => Molecular Quadrature <=

    Radial Scheme          =       TREUTLER
    Pruning Scheme         =           FLAT
    Nuclear Scheme         =       TREUTLER

    BS radius alpha        =              1
    Pruning alpha          =              1
    Radial Points          =             75
    Spherical Points       =            302
    Total Points           =         154259
    Total Blocks           =           1224
    Max Points             =            256
    Max Functions          =             40


  -Total Gradient:
     Atom            X                  Y                   Z
    ------   -----------------  -----------------  -----------------
       1        0.000786281325     0.000005658857     0.000063658798
       2       -0.001705250055     0.000038103383     0.000433071993
       3        0.000625262829     0.000001288456     0.000013215360
       4        0.000157644084     0.000032099136    -0.000142783411
       5        0.000157111771    -0.000056253864    -0.000134170446
       6        0.000034687397    -0.000147582347    -0.000135583038
       7        0.000035038935     0.000121092935    -0.000160193695


*** tstop() called on bme-nova.bme.utexas.edu at Mon Apr  6 12:52:50 2020
Module time:
	user time   =       1.02 seconds =       0.02 minutes
	system time =       0.00 seconds =       0.00 minutes
	total time  =          1 seconds =       0.02 minutes
Total time:
	user time   =      17.26 seconds =       0.29 minutes
	system time =       0.19 seconds =       0.00 minutes
	total time  =         19 seconds =       0.32 minutes

			-----------------------------------------
			 OPTKING 2.0: for geometry optimizations 
			  - R.A. King,  Bethel University        
			-----------------------------------------

	Previous internal coordinate definitions found.
	---Fragment 1 Geometry and Gradient---
	 N          -1.3649580693        0.0008937231        0.0100203040
	 C           1.3857369131       -0.0109917645       -0.1223215221
	 H           2.3827473522        0.1531725474        1.7024521151
	 H           2.0145454786        1.5509990554       -1.3249617341
	 H           2.0145603350       -1.7625392800       -1.0268693915
	 H          -1.9732024813        1.6173984971        0.8458111883
	 H          -1.9731771929       -1.4405714640        1.1208036166
	             0.0007862813        0.0000056589        0.0000636588
	            -0.0017052501        0.0000381034        0.0004330720
	             0.0006252628        0.0000012885        0.0000132154
	             0.0001576441        0.0000320991       -0.0001427834
	             0.0001571118       -0.0000562539       -0.0001341704
	             0.0000346874       -0.0001475823       -0.0001355830
	             0.0000350389        0.0001210929       -0.0001601937

	---Fragment 1 Intrafragment Coordinates---
	 - Coordinate -           - BOHR/RAD -       - ANG/DEG -
	 R(1,2)           =         2.753902	       1.457302
	 R(1,6)           =         1.918748	       1.015358
	 R(1,7)           =         1.918747	       1.015357
	 R(2,3)           =         2.085852	       1.103785
	 R(2,4)           =         2.069193	       1.094970
	 R(2,5)           =         2.069189	       1.094968
	 B(1,2,3)         =         2.020890	     115.788454
	 B(1,2,4)         =         1.905204	     109.160144
	 B(1,2,5)         =         1.905200	     109.159899
	 B(2,1,6)         =         1.918990	     109.950018
	 B(2,1,7)         =         1.918986	     109.949774
	 B(3,2,4)         =         1.879471	     107.685766
	 B(3,2,5)         =         1.879471	     107.685781
	 B(4,2,5)         =         1.867708	     107.011774
	 B(6,1,7)         =         1.854862	     106.275779
	 D(3,2,1,6)       =         1.018154	      58.335955
	 D(3,2,1,7)       =        -1.018222	     -58.339822
	 D(4,2,1,6)       =        -1.105435	     -63.336759
	 D(4,2,1,7)       =         3.141374	     179.987464
	 D(5,2,1,6)       =        -3.141444	    -179.991502
	 D(5,2,1,7)       =         1.105365	      63.332721

	Current energy   :       -95.8213343703

	Energy change for the previous step:
		Projected    :        -0.0003680552
		Actual       :        -0.0001310803

	Performing BFGS update.
	Previous computed or guess Hessian on step 1.
	Steps to be used in Hessian update: 2 1
	Taking RFO optimization step.
	Going to follow RFO solution 1.
	Using RFO vector 1.
	Norm of target step-size    0.00718
	Projected energy change by RFO approximation:        -0.0000106630

	Back-transformation to cartesian coordinates...
	Successfully converged to displaced geometry.
	First geometry is closer to target in internal coordinates, so am using that one.
	First geometry has RMS(Delta(q)) = 3.79e-06

	--- Internal Coordinate Step in ANG or DEG, aJ/ANG or AJ/DEG ---
	 ---------------------------------------------------------------------------
	   Coordinate                Previous        Force       Change         New 
	   ----------                --------       ------       ------       ------
	    1 R(1,2)          =      1.457302     0.006695     0.001407     1.458710
	    2 R(1,6)          =      1.015358     0.001619     0.000207     1.015565
	    3 R(1,7)          =      1.015357     0.001622     0.000208     1.015565
	    4 R(2,3)          =      1.103785    -0.002673    -0.000408     1.103377
	    5 R(2,4)          =      1.094970    -0.001166    -0.000215     1.094755
	    6 R(2,5)          =      1.094968    -0.001157    -0.000214     1.094754
	    7 B(1,2,3)        =    115.788454    -0.000055    -0.249713   115.538741
	    8 B(1,2,4)        =    109.160144     0.000000    -0.004982   109.155162
	    9 B(1,2,5)        =    109.159899     0.000000    -0.004805   109.155095
	   10 B(2,1,6)        =    109.950018    -0.000007    -0.058245   109.891773
	   11 B(2,1,7)        =    109.949774    -0.000007    -0.058064   109.891709
	   12 B(3,2,4)        =    107.685766     0.000023     0.083928   107.769694
	   13 B(3,2,5)        =    107.685781     0.000023     0.083820   107.769601
	   14 B(4,2,5)        =    107.011774     0.000013     0.120353   107.132127
	   15 B(6,1,7)        =    106.275779     0.000001    -0.045260   106.230519
	   16 D(3,2,1,6)      =     58.335955    -0.000001    -0.060875    58.275080
	   17 D(3,2,1,7)      =    -58.339822     0.000001     0.062376   -58.277446
	   18 D(4,2,1,6)      =    -63.336759     0.000001     0.008542   -63.328218
	   19 D(4,2,1,7)      =    179.987464     0.000003     0.131793   180.119257
	   20 D(5,2,1,6)      =   -179.991502    -0.000003    -0.130295  -180.121796
	   21 D(5,2,1,7)      =     63.332721    -0.000001    -0.007043    63.325678
	 ---------------------------------------------------------------------------
	Successfully symmetrized geometry.

  ==> Convergence Check <==

  Measures of convergence in internal coordinates in au.
  Criteria marked as inactive (o), active & met (*), and active & unmet ( ).
  ---------------------------------------------------------------------------------------------
   Step     Total Energy     Delta E     MAX Force     RMS Force      MAX Disp      RMS Disp   
  ---------------------------------------------------------------------------------------------
    Convergence Criteria    1.00e-06 *    3.00e-04 *             o    1.20e-03 *             o
  ---------------------------------------------------------------------------------------------
      3     -95.82133437   -1.31e-04      8.13e-04      2.83e-04 o    4.36e-03      1.57e-03 o  ~
  ---------------------------------------------------------------------------------------------

	Writing optimization data to binary file.
	Structure for next step:
	Cartesian Geometry (in Angstrom)
	    N    -0.7227659357   0.0004351424   0.0049103150
	    C     0.7342062546  -0.0059296268  -0.0659772284
	    H     1.2579043688   0.0810861892   0.9012916224
	    H     1.0665489668   0.8212405197  -0.7014504303
	    H     1.0665620029  -0.9332270887  -0.5436227594
	    H    -1.0434002137   0.8558976594   0.4484761092
	    H    -1.0433873730  -0.7621604574   0.5939962871
			--------------------------
			 OPTKING Finished Execution 
			--------------------------

    Structure for next step:
    Molecular point group: c1
    Full point group: C1

    Geometry (in Angstrom), charge = 0, multiplicity = 1:

    N           -0.722893621046     0.000490991181     0.005516236285
    C            0.734078574992    -0.005873778113    -0.065371307355
    H            1.257776691236     0.081142038317     0.901897547269
    H            1.066421288456     0.821296371660    -0.700844511797
    H            1.066434324584    -0.933171243584    -0.543016840225
    H           -1.043527900354     0.855953511482     0.449082032278
    H           -1.043515059629    -0.762104611620     0.594602210770

gradient() will perform analytic gradient computation.

*** tstart() called on bme-nova.bme.utexas.edu
*** at Mon Apr  6 12:52:50 2020

   => Loading Basis Set <=

    Name: 6-31G*
    Role: ORBITAL
    Keyword: BASIS
    atoms 1   entry N          line   128 file /home/bdw2292/miniconda3/envs/p4env/share/psi4/basis/6-31gs.gbs 
    atoms 2   entry C          line   111 file /home/bdw2292/miniconda3/envs/p4env/share/psi4/basis/6-31gs.gbs 
    atoms 3-7 entry H          line    44 file /home/bdw2292/miniconda3/envs/p4env/share/psi4/basis/6-31gs.gbs 


         ---------------------------------------------------------
                                   SCF
               by Justin Turney, Rob Parrish, Andy Simmonett
                          and Daniel G. A. Smith
                              RKS Reference
                        1 Threads,    667 MiB Core
         ---------------------------------------------------------

  ==> Geometry <==

    Molecular point group: c1
    Full point group: C1

    Geometry (in Angstrom), charge = 0, multiplicity = 1:

       Center              X                  Y                   Z               Mass       
    ------------   -----------------  -----------------  -----------------  -----------------
         N           -0.722893621046     0.000490991181     0.005516236285    14.003074004430
         C            0.734078574992    -0.005873778113    -0.065371307355    12.000000000000
         H            1.257776691236     0.081142038317     0.901897547269     1.007825032230
         H            1.066421288456     0.821296371660    -0.700844511797     1.007825032230
         H            1.066434324584    -0.933171243584    -0.543016840225     1.007825032230
         H           -1.043527900354     0.855953511482     0.449082032278     1.007825032230
         H           -1.043515059629    -0.762104611620     0.594602210770     1.007825032230

  Running in c1 symmetry.

  Rotational constants: A =      3.43841  B =      0.76336  C =      0.73396 [cm^-1]
  Rotational constants: A = 103080.99857  B =  22884.82517  C =  22003.48205 [MHz]
  Nuclear repulsion =   42.016071146419662

  Charge       = 0
  Multiplicity = 1
  Electrons    = 18
  Nalpha       = 9
  Nbeta        = 9

  ==> Algorithm <==

  SCF Algorithm Type is DF.
  DIIS enabled.
  MOM disabled.
  Fractional occupation disabled.
  Guess Type is READ.
  Energy threshold   = 1.00e-08
  Density threshold  = 1.00e-08
  Integral threshold = 0.00e+00

  ==> Primary Basis <==

  Basis Set: 6-31G*
    Blend: 6-31G*
    Number of shells: 22
    Number of basis function: 40
    Number of Cartesian functions: 40
    Spherical Harmonics?: false
    Max angular momentum: 2

  ==> DFT Potential <==

   => Composite Functional: WB97X-D <= 

    wB97X-D Hyb-GGA Exchange-Correlation Functional

    J.-D. Chai and M. Head-Gordon, Phys. Chem. Chem. Phys. 10, 6615 (2008)

    Deriv               =              1
    GGA                 =           TRUE
    Meta                =          FALSE

    Exchange Hybrid     =           TRUE
    MP2 Hybrid          =          FALSE

   => Exchange-Correlation Functionals <=

    1.0000   wB97D range-separated functional

   => Exact (HF) Exchange <=

    0.7780            HF,LR [omega = 0.2000]
    0.2220               HF 

   => Molecular Quadrature <=

    Radial Scheme          =       TREUTLER
    Pruning Scheme         =           FLAT
    Nuclear Scheme         =       TREUTLER

    BS radius alpha        =              1
    Pruning alpha          =              1
    Radial Points          =             75
    Spherical Points       =            302
    Total Points           =         154257
    Total Blocks           =           1227
    Max Points             =            256
    Max Functions          =             40

   => WB97X-D: Empirical Dispersion <=

    Chai and Head-Gordon Dispersion Correction
    Chai, J.-D.; Head-Gordon, M. (2010), J. Chem. Phys., 132: 6615-6620

        s6 =       1.000000

   => Loading Basis Set <=

    Name: (6-31G* AUX)
    Role: JKFIT
    Keyword: DF_BASIS_SCF
    atoms 1   entry N          line   171 file /home/bdw2292/miniconda3/envs/p4env/share/psi4/basis/cc-pvdz-jkfit.gbs 
    atoms 2   entry C          line   121 file /home/bdw2292/miniconda3/envs/p4env/share/psi4/basis/cc-pvdz-jkfit.gbs 
    atoms 3-7 entry H          line    51 file /home/bdw2292/miniconda3/envs/p4env/share/psi4/basis/cc-pvdz-jkfit.gbs 

   => Loading Basis Set <=

    Name: 6-31G*
    Role: ORBITAL
    Keyword: BASIS
    atoms 1   entry N          line   128 file /home/bdw2292/miniconda3/envs/p4env/share/psi4/basis/6-31gs.gbs 
    atoms 2   entry C          line   111 file /home/bdw2292/miniconda3/envs/p4env/share/psi4/basis/6-31gs.gbs 
    atoms 3-7 entry H          line    44 file /home/bdw2292/miniconda3/envs/p4env/share/psi4/basis/6-31gs.gbs 

  Reading orbitals from file 180, no projection.

  ==> Pre-Iterations <==

   -------------------------------------------------------
    Irrep   Nso     Nmo     Nalpha   Nbeta   Ndocc  Nsocc
   -------------------------------------------------------
     A         40      40       0       0       0       0
   -------------------------------------------------------
    Total      40      40       9       9       9       0
   -------------------------------------------------------

  ==> Integral Setup <==

  ==> DiskDFJK: Density-Fitted J/K Matrices <==

    J tasked:                  Yes
    K tasked:                  Yes
    wK tasked:                 Yes
    Omega:               2.000E-01
    OpenMP threads:              1
    Integrals threads:           1
    Memory [MiB]:              328
    Algorithm:                Core
    Integral Cache:           NONE
    Schwarz Cutoff:          1E-12
    Fitting Condition:       1E-10

   => Auxiliary Basis Set <=

  Basis Set: (6-31G* AUX)
    Blend: CC-PVDZ-JKFIT
    Number of shells: 93
    Number of basis function: 287
    Number of Cartesian functions: 287
    Spherical Harmonics?: false
    Max angular momentum: 3

  Cached 100.0% of DFT collocation blocks in 0.168 [GiB].

  Minimum eigenvalue in the overlap matrix is 9.1729254320E-03.
  Using Symmetric Orthogonalization.

  SCF Guess: Orbitals guess was supplied from a previous computation.

  ==> Iterations <==

                           Total Energy        Delta E     RMS |[F,P]|

   @DF-RKS iter   0:   -95.82099349832860   -9.58210e+01   8.31600e-05 
   @DF-RKS iter   1:   -95.82133923194290   -3.45734e-04   1.69632e-05 DIIS
   @DF-RKS iter   2:   -95.82133942474744   -1.92805e-07   1.27032e-05 DIIS
   @DF-RKS iter   3:   -95.82133952862571   -1.03878e-07   2.31807e-06 DIIS
   @DF-RKS iter   4:   -95.82133953424281   -5.61710e-09   5.93932e-07 DIIS
   @DF-RKS iter   5:   -95.82133953489149   -6.48683e-10   2.31744e-07 DIIS
   @DF-RKS iter   6:   -95.82133953495313   -6.16325e-11   5.10561e-08 DIIS
   @DF-RKS iter   7:   -95.82133953496073   -7.60281e-12   9.18406e-09 DIIS
  Energy and wave function converged.


  ==> Post-Iterations <==

    Orbital Energies [Eh]
    ---------------------

    Doubly Occupied:                                                      

       1A    -14.423714     2A    -10.306881     3A     -0.968953  
       4A     -0.749494     5A     -0.571734     6A     -0.519855  
       7A     -0.480372     8A     -0.444867     9A     -0.310258  

    Virtual:                                                              

      10A      0.173355    11A      0.228609    12A      0.241648  
      13A      0.261882    14A      0.272327    15A      0.324799  
      16A      0.639129    17A      0.654133    18A      0.679075  
      19A      0.830023    20A      0.836742    21A      0.890573  
      22A      0.957864    23A      1.016732    24A      1.022446  
      25A      1.023736    26A      1.068787    27A      1.147894  
      28A      1.472570    29A      1.609192    30A      1.635847  
      31A      1.977156    32A      2.127743    33A      2.152589  
      34A      2.267902    35A      2.409744    36A      2.456732  
      37A      2.545220    38A      2.750407    39A      3.863504  
      40A      4.345308  

    Final Occupation by Irrep:
              A 
    DOCC [     9 ]

  @DF-RKS Final Energy:   -95.82133953496073

   => Energetics <=

    Nuclear Repulsion Energy =             42.0160711464196623
    One-Electron Energy =                -211.6133785996620702
    Two-Electron Energy =                  83.4250607146819334
    DFT Exchange-Correlation Energy =      -9.6477644655987351
    Empirical Dispersion Energy =          -0.0013283308014982
    VV10 Nonlocal Energy =                  0.0000000000000000
    Total Energy =                        -95.8213395349607282

Computation Completed


Properties will be evaluated at   0.000000,   0.000000,   0.000000 [a0]

Properties computed using the SCF density matrix

  Nuclear Dipole Moment: [e a0]
     X:     1.2242      Y:     0.0592      Z:     0.6578

  Electronic Dipole Moment: [e a0]
     X:    -1.0532      Y:    -0.0082      Z:    -0.0912

  Dipole Moment: [e a0]
     X:     0.1709      Y:     0.0510      Z:     0.5666     Total:     0.5940

  Dipole Moment: [D]
     X:     0.4345      Y:     0.1295      Z:     1.4402     Total:     1.5098


*** tstop() called on bme-nova.bme.utexas.edu at Mon Apr  6 12:52:54 2020
Module time:
	user time   =       3.73 seconds =       0.06 minutes
	system time =       0.02 seconds =       0.00 minutes
	total time  =          4 seconds =       0.07 minutes
Total time:
	user time   =      21.00 seconds =       0.35 minutes
	system time =       0.22 seconds =       0.00 minutes
	total time  =         23 seconds =       0.38 minutes

*** tstart() called on bme-nova.bme.utexas.edu
*** at Mon Apr  6 12:52:54 2020


         ------------------------------------------------------------
                                   SCF GRAD                          
                          Rob Parrish, Justin Turney,                
                       Andy Simmonett, and Alex Sokolov              
         ------------------------------------------------------------

  ==> Geometry <==

    Molecular point group: c1
    Full point group: C1

    Geometry (in Angstrom), charge = 0, multiplicity = 1:

       Center              X                  Y                   Z               Mass       
    ------------   -----------------  -----------------  -----------------  -----------------
         N           -0.722893621046     0.000490991181     0.005516236285    14.003074004430
         C            0.734078574992    -0.005873778113    -0.065371307355    12.000000000000
         H            1.257776691236     0.081142038317     0.901897547269     1.007825032230
         H            1.066421288456     0.821296371660    -0.700844511797     1.007825032230
         H            1.066434324584    -0.933171243584    -0.543016840225     1.007825032230
         H           -1.043527900354     0.855953511482     0.449082032278     1.007825032230
         H           -1.043515059629    -0.762104611620     0.594602210770     1.007825032230

  Nuclear repulsion =   42.016071146419662

  ==> Basis Set <==

  Basis Set: 6-31G*
    Blend: 6-31G*
    Number of shells: 22
    Number of basis function: 40
    Number of Cartesian functions: 40
    Spherical Harmonics?: false
    Max angular momentum: 2

  ==> DFJKGrad: Density-Fitted SCF Gradients <==

    Gradient:                    1
    J tasked:                  Yes
    K tasked:                  Yes
    wK tasked:                 Yes
    Omega:               2.000E-01
    OpenMP threads:              1
    Integrals threads:           1
    Memory [MiB]:              500
    Schwarz Cutoff:          0E+00
    Fitting Condition:       1E-10

   => Auxiliary Basis Set <=

  Basis Set: (6-31G* AUX)
    Blend: CC-PVDZ-JKFIT
    Number of shells: 93
    Number of basis function: 287
    Number of Cartesian functions: 287
    Spherical Harmonics?: false
    Max angular momentum: 3

  ==> DFT Potential <==

   => Composite Functional: WB97X-D <= 

    wB97X-D Hyb-GGA Exchange-Correlation Functional

    J.-D. Chai and M. Head-Gordon, Phys. Chem. Chem. Phys. 10, 6615 (2008)

    Deriv               =              1
    GGA                 =           TRUE
    Meta                =          FALSE

    Exchange Hybrid     =           TRUE
    MP2 Hybrid          =          FALSE

   => Exchange-Correlation Functionals <=

    1.0000   wB97D range-separated functional

   => Exact (HF) Exchange <=

    0.7780            HF,LR [omega = 0.2000]
    0.2220               HF 

   => Molecular Quadrature <=

    Radial Scheme          =       TREUTLER
    Pruning Scheme         =           FLAT
    Nuclear Scheme         =       TREUTLER

    BS radius alpha        =              1
    Pruning alpha          =              1
    Radial Points          =             75
    Spherical Points       =            302
    Total Points           =         154257
    Total Blocks           =           1227
    Max Points             =            256
    Max Functions          =             40


  -Total Gradient:
     Atom            X                  Y                   Z
    ------   -----------------  -----------------  -----------------
       1        0.000291298551     0.000016382231     0.000183021130
       2       -0.000501736269    -0.000008283908    -0.000088111224
       3        0.000170609023     0.000004637379     0.000051896215
       4        0.000087904226     0.000030880339    -0.000063010043
       5        0.000087769850    -0.000041193333    -0.000056059392
       6       -0.000020850472    -0.000044711685    -0.000042689609
       7       -0.000020742590     0.000036455765    -0.000050292684


*** tstop() called on bme-nova.bme.utexas.edu at Mon Apr  6 12:52:55 2020
Module time:
	user time   =       1.02 seconds =       0.02 minutes
	system time =       0.00 seconds =       0.00 minutes
	total time  =          1 seconds =       0.02 minutes
Total time:
	user time   =      22.02 seconds =       0.37 minutes
	system time =       0.22 seconds =       0.00 minutes
	total time  =         24 seconds =       0.40 minutes

			-----------------------------------------
			 OPTKING 2.0: for geometry optimizations 
			  - R.A. King,  Bethel University        
			-----------------------------------------

	Previous internal coordinate definitions found.
	---Fragment 1 Geometry and Gradient---
	 N          -1.3660709616        0.0009278389        0.0104241758
	 C           1.3872074613       -0.0110998320       -0.1235338674
	 H           2.3768534734        0.1533362297        1.7043393576
	 H           2.0152441695        1.5520252103       -1.3244041838
	 H           2.0152688043       -1.7634380785       -1.0261531095
	 H          -1.9719819359        1.6175177128        0.8486420489
	 H          -1.9719576705       -1.4401689949        1.1236353319
	             0.0002912986        0.0000163822        0.0001830211
	            -0.0005017363       -0.0000082839       -0.0000881112
	             0.0001706090        0.0000046374        0.0000518962
	             0.0000879042        0.0000308803       -0.0000630100
	             0.0000877698       -0.0000411933       -0.0000560594
	            -0.0000208505       -0.0000447117       -0.0000426896
	            -0.0000207426        0.0000364558       -0.0000502927

	---Fragment 1 Intrafragment Coordinates---
	 - Coordinate -           - BOHR/RAD -       - ANG/DEG -
	 R(1,2)           =         2.756562	       1.458710
	 R(1,6)           =         1.919140	       1.015565
	 R(1,7)           =         1.919140	       1.015565
	 R(2,3)           =         2.085080	       1.103377
	 R(2,4)           =         2.068787	       1.094755
	 R(2,5)           =         2.068785	       1.094754
	 B(1,2,3)         =         2.016531	     115.538741
	 B(1,2,4)         =         1.905117	     109.155162
	 B(1,2,5)         =         1.905116	     109.155095
	 B(2,1,6)         =         1.917973	     109.891773
	 B(2,1,7)         =         1.917972	     109.891709
	 B(3,2,4)         =         1.880936	     107.769694
	 B(3,2,5)         =         1.880934	     107.769601
	 B(4,2,5)         =         1.869808	     107.132127
	 B(6,1,7)         =         1.854072	     106.230519
	 D(3,2,1,6)       =         1.017092	      58.275080
	 D(3,2,1,7)       =        -1.017133	     -58.277446
	 D(4,2,1,6)       =        -1.105286	     -63.328218
	 D(4,2,1,7)       =        -3.139511	    -179.880743
	 D(5,2,1,6)       =         3.139467	     179.878204
	 D(5,2,1,7)       =         1.105242	      63.325678

	Current energy   :       -95.8213395350

	Energy change for the previous step:
		Projected    :        -0.0000106630
		Actual       :        -0.0000051646

	Performing BFGS update.
	Previous computed or guess Hessian on step 1.
	Steps to be used in Hessian update: 3 2
	Taking RFO optimization step.
	Going to follow RFO solution 1.
	Using RFO vector 1.
	Norm of target step-size    0.00368
	Projected energy change by RFO approximation:        -0.0000032806

	Back-transformation to cartesian coordinates...
	Successfully converged to displaced geometry.

	--- Internal Coordinate Step in ANG or DEG, aJ/ANG or AJ/DEG ---
	 ---------------------------------------------------------------------------
	   Coordinate                Previous        Force       Change         New 
	   ----------                --------       ------       ------       ------
	    1 R(1,2)          =      1.458710     0.001563     0.000548     1.459258
	    2 R(1,6)          =      1.015565     0.000426     0.000087     1.015653
	    3 R(1,7)          =      1.015565     0.000428     0.000087     1.015653
	    4 R(2,3)          =      1.103377    -0.001162    -0.000276     1.103101
	    5 R(2,4)          =      1.094755    -0.000598    -0.000158     1.094597
	    6 R(2,5)          =      1.094754    -0.000593    -0.000157     1.094597
	    7 B(1,2,3)        =    115.538741    -0.000006    -0.045426   115.493315
	    8 B(1,2,4)        =    109.155162    -0.000005    -0.033297   109.121865
	    9 B(1,2,5)        =    109.155095    -0.000005    -0.033253   109.121842
	   10 B(2,1,6)        =    109.891773    -0.000008    -0.067614   109.824159
	   11 B(2,1,7)        =    109.891709    -0.000008    -0.067570   109.824140
	   12 B(3,2,4)        =    107.769694     0.000006     0.039493   107.809186
	   13 B(3,2,5)        =    107.769601     0.000006     0.039550   107.809152
	   14 B(4,2,5)        =    107.132127     0.000005     0.040933   107.173059
	   15 B(6,1,7)        =    106.230519     0.000003    -0.030001   106.200518
	   16 D(3,2,1,6)      =     58.275080    -0.000001    -0.057068    58.218012
	   17 D(3,2,1,7)      =    -58.277446     0.000001     0.058210   -58.219236
	   18 D(4,2,1,6)      =    -63.328218    -0.000000    -0.051235   -63.379453
	   19 D(4,2,1,7)      =   -179.880743     0.000001     0.064042  -179.816701
	   20 D(5,2,1,6)      =    179.878204    -0.000001    -0.062791   179.815413
	   21 D(5,2,1,7)      =     63.325678     0.000000     0.052487    63.378165
	 ---------------------------------------------------------------------------
	Successfully symmetrized geometry.

  ==> Convergence Check <==

  Measures of convergence in internal coordinates in au.
  Criteria marked as inactive (o), active & met (*), and active & unmet ( ).
  ---------------------------------------------------------------------------------------------
   Step     Total Energy     Delta E     MAX Force     RMS Force      MAX Disp      RMS Disp   
  ---------------------------------------------------------------------------------------------
    Convergence Criteria    1.00e-06 *    3.00e-04 *             o    1.20e-03 *             o
  ---------------------------------------------------------------------------------------------
      4     -95.82133953   -5.16e-06      1.90e-04 *    7.98e-05 o    1.18e-03 *    8.02e-04 o  ~
  ---------------------------------------------------------------------------------------------


  **** Optimization is complete! (in 4 steps) ****

  ==> Optimization Summary <==

  Measures of convergence in internal coordinates in au.
  --------------------------------------------------------------------------------------------------------------- ~
   Step         Total Energy             Delta E       MAX Force       RMS Force        MAX Disp        RMS Disp  ~
  --------------------------------------------------------------------------------------------------------------- ~
      1     -95.819845660390    -95.819845660390      0.02309894      0.00663917      0.10806197      0.03251749  ~
      2     -95.821203289992     -0.001357629603      0.00450781      0.00155185      0.02395606      0.00788637  ~
      3     -95.821334370342     -0.000131080350      0.00081261      0.00028327      0.00435832      0.00156614  ~
      4     -95.821339534961     -0.000005164619      0.00018968      0.00007984      0.00118009      0.00080219  ~
  --------------------------------------------------------------------------------------------------------------- ~

	Writing optimization data to binary file.
	Final energy is    -95.8213395349607
	Final (previous) structure:
	Cartesian Geometry (in Angstrom)
	    N    -0.7228936182   0.0004909912   0.0055162363
	    C     0.7340785721  -0.0058737781  -0.0653713071
	    H     1.2577766863   0.0811420380   0.9018975437
	    H     1.0664212843   0.8212963684  -0.7008445090
	    H     1.0664343204  -0.9331712399  -0.5430168381
	    H    -1.0435278963   0.8559535081   0.4490820305
	    H    -1.0435150555  -0.7621046086   0.5946022084
	Saving final (previous) structure.
			--------------------------
			 OPTKING Finished Execution 
			--------------------------

    Final optimized geometry and variables:
    Molecular point group: c1
    Full point group: C1

    Geometry (in Angstrom), charge = 0, multiplicity = 1:

    N           -0.722893621046     0.000490991181     0.005516236285
    C            0.734078574992    -0.005873778113    -0.065371307355
    H            1.257776691236     0.081142038317     0.901897547269
    H            1.066421288456     0.821296371660    -0.700844511797
    H            1.066434324584    -0.933171243584    -0.543016840225
    H           -1.043527900354     0.855953511482     0.449082032278
    H           -1.043515059629    -0.762104611620     0.594602210770

	Removing binary optimization data file.
	Cleaning optimization helper files.

    Psi4 stopped on: Monday, 06 April 2020 12:52PM
    Psi4 wall time for execution: 0:00:23.72

*** Psi4 exiting successfully. Buy a developer a beer!
