methylamine Gaussian SP Calculation on bme-nova.bme.utexas.edu          
SP        RMP2-FC                                                     6-311++G(2d,2p)     
Number of atoms                            I                7
Info1-9                                    I   N=           9
          18          18           0           0           0         110
           1           2           1
Charge                                     I                0
Multiplicity                               I                1
Number of electrons                        I               18
Number of alpha electrons                  I                9
Number of beta electrons                   I                9
Number of basis functions                  I              104
Number of independent functions            I              104
Number of point charges in /Mol/           I                0
Number of translation vectors              I                0
Atomic numbers                             I   N=           7
           7           6           1           1           1           1
           1
Nuclear charges                            R   N=           7
  7.00000000E+00  6.00000000E+00  1.00000000E+00  1.00000000E+00  1.00000000E+00
  1.00000000E+00  1.00000000E+00
Current cartesian coordinates              R   N=          21
  1.41936952E+00  3.96136915E-07 -2.37754004E-01 -1.33482128E+00  4.42323539E-07
  3.32043779E-02 -2.03841923E+00 -6.80301408E-05  1.99009327E+00 -2.09893771E+00
 -1.66482038E+00 -9.18799964E-01 -2.09892260E+00  1.66489597E+00 -9.18677131E-01
  2.15481503E+00 -1.53559524E+00  6.56218738E-01  2.15481125E+00  1.53559524E+00
  6.56218738E-01
Force Field                                I                0
Int Atom Types                             I   N=           7
           0           0           0           0           0           0
           0
MM charges                                 R   N=           7
  0.00000000E+00  0.00000000E+00  0.00000000E+00  0.00000000E+00  0.00000000E+00
  0.00000000E+00  0.00000000E+00
Integer atomic weights                     I   N=           7
          14          12           1           1           1           1
           1
Real atomic weights                        R   N=           7
  1.40030740E+01  1.20000000E+01  1.00782504E+00  1.00782504E+00  1.00782504E+00
  1.00782504E+00  1.00782504E+00
Atom fragment info                         I   N=           7
           0           0           0           0           0           0
           0
Atom residue num                           I   N=           7
           0           0           0           0           0           0
           0
Nuclear spins                              I   N=           7
           2           0           1           1           1           1
           1
Nuclear ZEff                               R   N=           7
 -4.55000000E+00 -3.60000000E+00 -1.00000000E+00 -1.00000000E+00 -1.00000000E+00
 -1.00000000E+00 -1.00000000E+00
Nuclear QMom                               R   N=           7
  2.04400000E+00  0.00000000E+00  0.00000000E+00  0.00000000E+00  0.00000000E+00
  0.00000000E+00  0.00000000E+00
Nuclear GFac                               R   N=           7
  4.03761000E-01  0.00000000E+00  2.79284600E+00  2.79284600E+00  2.79284600E+00
  2.79284600E+00  2.79284600E+00
MicOpt                                     I   N=           7
          -1          -1          -1          -1          -1          -1
          -1
Number of contracted shells                I               44
Number of primitive shells                 I               68
Pure/Cartesian d shells                    I                0
Pure/Cartesian f shells                    I                0
Highest angular momentum                   I                2
Largest degree of contraction              I                6
Shell types                                I   N=          44
           0          -1          -1          -1          -1          -2
          -2           0          -1          -1          -1          -1
          -2          -2           0           0           0           0
           1           1           0           0           0           0
           1           1           0           0           0           0
           1           1           0           0           0           0
           1           1           0           0           0           0
           1           1
Number of primitives per shell             I   N=          44
           6           3           1           1           1           1
           1           6           3           1           1           1
           1           1           3           1           1           1
           1           1           3           1           1           1
           1           1           3           1           1           1
           1           1           3           1           1           1
           1           1           3           1           1           1
           1           1
Shell to atom map                          I   N=          44
           1           1           1           1           1           1
           1           2           2           2           2           2
           2           2           3           3           3           3
           3           3           4           4           4           4
           4           4           5           5           5           5
           5           5           6           6           6           6
           6           6           7           7           7           7
           7           7
Primitive exponents                        R   N=          68
  6.29348000E+03  9.49044000E+02  2.18776000E+02  6.36916000E+01  1.88282000E+01
  2.72023000E+00  3.06331000E+01  7.02614000E+00  2.11205000E+00  6.84009000E-01
  2.00878000E-01  6.39000000E-02  1.82600000E+00  4.56500000E-01  4.56324000E+03
  6.82024000E+02  1.54973000E+02  4.44553000E+01  1.30290000E+01  1.82773000E+00
  2.09642000E+01  4.80331000E+00  1.45933000E+00  4.83456000E-01  1.45585000E-01
  4.38000000E-02  1.25200000E+00  3.13000000E-01  3.38650000E+01  5.09479000E+00
  1.15879000E+00  3.25840000E-01  1.02741000E-01  3.60000000E-02  1.50000000E+00
  3.75000000E-01  3.38650000E+01  5.09479000E+00  1.15879000E+00  3.25840000E-01
  1.02741000E-01  3.60000000E-02  1.50000000E+00  3.75000000E-01  3.38650000E+01
  5.09479000E+00  1.15879000E+00  3.25840000E-01  1.02741000E-01  3.60000000E-02
  1.50000000E+00  3.75000000E-01  3.38650000E+01  5.09479000E+00  1.15879000E+00
  3.25840000E-01  1.02741000E-01  3.60000000E-02  1.50000000E+00  3.75000000E-01
  3.38650000E+01  5.09479000E+00  1.15879000E+00  3.25840000E-01  1.02741000E-01
  3.60000000E-02  1.50000000E+00  3.75000000E-01
Contraction coefficients                   R   N=          68
  1.96978815E-03  1.49612859E-02  7.35005308E-02  2.48936766E-01  6.02459433E-01
  2.56201759E-01  1.11906080E-01  9.21666655E-01 -2.56919183E-03  1.00000000E+00
  1.00000000E+00  1.00000000E+00  1.00000000E+00  1.00000000E+00  1.96665025E-03
  1.52306019E-02  7.61269097E-02  2.60801033E-01  6.16462078E-01  2.21006028E-01
  1.14660081E-01  9.19999648E-01 -3.03068213E-03  1.00000000E+00  1.00000000E+00
  1.00000000E+00  1.00000000E+00  1.00000000E+00  2.54938145E-02  1.90373109E-01
  8.52161486E-01  1.00000000E+00  1.00000000E+00  1.00000000E+00  1.00000000E+00
  1.00000000E+00  2.54938145E-02  1.90373109E-01  8.52161486E-01  1.00000000E+00
  1.00000000E+00  1.00000000E+00  1.00000000E+00  1.00000000E+00  2.54938145E-02
  1.90373109E-01  8.52161486E-01  1.00000000E+00  1.00000000E+00  1.00000000E+00
  1.00000000E+00  1.00000000E+00  2.54938145E-02  1.90373109E-01  8.52161486E-01
  1.00000000E+00  1.00000000E+00  1.00000000E+00  1.00000000E+00  1.00000000E+00
  2.54938145E-02  1.90373109E-01  8.52161486E-01  1.00000000E+00  1.00000000E+00
  1.00000000E+00  1.00000000E+00  1.00000000E+00
P(S=P) Contraction coefficients            R   N=          68
  0.00000000E+00  0.00000000E+00  0.00000000E+00  0.00000000E+00  0.00000000E+00
  0.00000000E+00  3.83119186E-02  2.37403116E-01  8.17592398E-01  1.00000000E+00
  1.00000000E+00  1.00000000E+00  0.00000000E+00  0.00000000E+00  0.00000000E+00
  0.00000000E+00  0.00000000E+00  0.00000000E+00  0.00000000E+00  0.00000000E+00
  4.02486927E-02  2.37593957E-01  8.15853851E-01  1.00000000E+00  1.00000000E+00
  1.00000000E+00  0.00000000E+00  0.00000000E+00  0.00000000E+00  0.00000000E+00
  0.00000000E+00  0.00000000E+00  0.00000000E+00  0.00000000E+00  0.00000000E+00
  0.00000000E+00  0.00000000E+00  0.00000000E+00  0.00000000E+00  0.00000000E+00
  0.00000000E+00  0.00000000E+00  0.00000000E+00  0.00000000E+00  0.00000000E+00
  0.00000000E+00  0.00000000E+00  0.00000000E+00  0.00000000E+00  0.00000000E+00
  0.00000000E+00  0.00000000E+00  0.00000000E+00  0.00000000E+00  0.00000000E+00
  0.00000000E+00  0.00000000E+00  0.00000000E+00  0.00000000E+00  0.00000000E+00
  0.00000000E+00  0.00000000E+00  0.00000000E+00  0.00000000E+00  0.00000000E+00
  0.00000000E+00  0.00000000E+00  0.00000000E+00
Coordinates of each shell                  R   N=         132
  1.41936920E+00  0.00000000E+00 -2.37754109E-01  1.41936920E+00  0.00000000E+00
 -2.37754109E-01  1.41936920E+00  0.00000000E+00 -2.37754109E-01  1.41936920E+00
  0.00000000E+00 -2.37754109E-01  1.41936920E+00  0.00000000E+00 -2.37754109E-01
  1.41936920E+00  0.00000000E+00 -2.37754109E-01  1.41936920E+00  0.00000000E+00
 -2.37754109E-01 -1.33482160E+00  0.00000000E+00  3.32042729E-02 -1.33482160E+00
  0.00000000E+00  3.32042729E-02 -1.33482160E+00  0.00000000E+00  3.32042729E-02
 -1.33482160E+00  0.00000000E+00  3.32042729E-02 -1.33482160E+00  0.00000000E+00
  3.32042729E-02 -1.33482160E+00  0.00000000E+00  3.32042729E-02 -1.33482160E+00
  0.00000000E+00  3.32042729E-02 -2.03841955E+00 -6.84842634E-05  1.99009316E+00
 -2.03841955E+00 -6.84842634E-05  1.99009316E+00 -2.03841955E+00 -6.84842634E-05
  1.99009316E+00 -2.03841955E+00 -6.84842634E-05  1.99009316E+00 -2.03841955E+00
 -6.84842634E-05  1.99009316E+00 -2.03841955E+00 -6.84842634E-05  1.99009316E+00
 -2.09893800E+00 -1.66482083E+00 -9.18800069E-01 -2.09893800E+00 -1.66482083E+00
 -9.18800069E-01 -2.09893800E+00 -1.66482083E+00 -9.18800069E-01 -2.09893800E+00
 -1.66482083E+00 -9.18800069E-01 -2.09893800E+00 -1.66482083E+00 -9.18800069E-01
 -2.09893800E+00 -1.66482083E+00 -9.18800069E-01 -2.09892294E+00  1.66489551E+00
 -9.18677236E-01 -2.09892294E+00  1.66489551E+00 -9.18677236E-01 -2.09892294E+00
  1.66489551E+00 -9.18677236E-01 -2.09892294E+00  1.66489551E+00 -9.18677236E-01
 -2.09892294E+00  1.66489551E+00 -9.18677236E-01 -2.09892294E+00  1.66489551E+00
 -9.18677236E-01  2.15481474E+00 -1.53559562E+00  6.56218633E-01  2.15481474E+00
 -1.53559562E+00  6.56218633E-01  2.15481474E+00 -1.53559562E+00  6.56218633E-01
  2.15481474E+00 -1.53559562E+00  6.56218633E-01  2.15481474E+00 -1.53559562E+00
  6.56218633E-01  2.15481474E+00 -1.53559562E+00  6.56218633E-01  2.15481090E+00
  1.53559485E+00  6.56218633E-01  2.15481090E+00  1.53559485E+00  6.56218633E-01
  2.15481090E+00  1.53559485E+00  6.56218633E-01  2.15481090E+00  1.53559485E+00
  6.56218633E-01  2.15481090E+00  1.53559485E+00  6.56218633E-01  2.15481090E+00
  1.53559485E+00  6.56218633E-01
Constraint Structure                       R   N=          21
  1.41936920E+00  0.00000000E+00 -2.37754109E-01 -1.33482160E+00  0.00000000E+00
  3.32042729E-02 -2.03841955E+00 -6.84842634E-05  1.99009316E+00 -2.09893800E+00
 -1.66482083E+00 -9.18800069E-01 -2.09892294E+00  1.66489551E+00 -9.18677236E-01
  2.15481474E+00 -1.53559562E+00  6.56218633E-01  2.15481090E+00  1.53559485E+00
  6.56218633E-01
Num ILSW                                   I              100
ILSW                                       I   N=         100
           0           0           0           0           2           0
           0           0           0           0           0 13421772800
           0           0           0           0           0           0
           0           0           0           0           0           0
           1           0           0           0           0           0
           0           0      100000           0          -1           0
           0           0           0           0           0           0
           0           0           0           1           0           0
           0           0           1           0           0           0
           0           0           4          40           0           0
           0           0           0           0           0           0
           0           0           0           0           0           0
           0           0           0           0           0           0
           0           0           0           0           0           0
           0           0           0           0           0           0
           0           0           0           0           0           0
           0           0           0           0
Num RLSW                                   I               40
RLSW                                       R   N=          40
  1.00000000E+00  1.00000000E+00  1.00000000E+00  1.00000000E+00  1.00000000E+00
  0.00000000E+00  0.00000000E+00  1.00000000E+00  0.00000000E+00  0.00000000E+00
  0.00000000E+00  0.00000000E+00  1.00000000E+00  0.00000000E+00  0.00000000E+00
  0.00000000E+00  0.00000000E+00  1.00000000E+00  0.00000000E+00  0.00000000E+00
  0.00000000E+00  0.00000000E+00  1.00000000E+00  0.00000000E+00  0.00000000E+00
  0.00000000E+00  0.00000000E+00  1.00000000E+00  0.00000000E+00  0.00000000E+00
  0.00000000E+00  0.00000000E+00  0.00000000E+00  0.00000000E+00  0.00000000E+00
  0.00000000E+00  0.00000000E+00  0.00000000E+00  1.00000000E+00  1.00000000E+00
MxBond                                     I                4
NBond                                      I   N=           7
           3           4           1           1           1           1
           1
IBond                                      I   N=          28
           2           6           7           0           1           3
           4           5           2           0           0           0
           2           0           0           0           2           0
           0           0           1           0           0           0
           1           0           0           0
RBond                                      R   N=          28
  1.00000000E+00  1.00000000E+00  1.00000000E+00  0.00000000E+00  1.00000000E+00
  1.00000000E+00  1.00000000E+00  1.00000000E+00  1.00000000E+00  0.00000000E+00
  0.00000000E+00  0.00000000E+00  1.00000000E+00  0.00000000E+00  0.00000000E+00
  0.00000000E+00  1.00000000E+00  0.00000000E+00  0.00000000E+00  0.00000000E+00
  1.00000000E+00  0.00000000E+00  0.00000000E+00  0.00000000E+00  1.00000000E+00
  0.00000000E+00  0.00000000E+00  0.00000000E+00
Virial Ratio                               R      2.001333585805302E+00
SCF Energy                                 R     -9.525001716624072E+01
MP2 Energy                                 R     -9.562063316209752E+01
Total Energy                               R     -9.562063316209752E+01
Post-SCF wavefunction norm                 R      1.055145905697577E+00
RMS Density                                R      9.319913266850767E-09
External E-field                           R   N=          35
  0.00000000E+00  0.00000000E+00  0.00000000E+00  0.00000000E+00  0.00000000E+00
  0.00000000E+00  0.00000000E+00  0.00000000E+00  0.00000000E+00  0.00000000E+00
  0.00000000E+00  0.00000000E+00  0.00000000E+00  0.00000000E+00  0.00000000E+00
  0.00000000E+00  0.00000000E+00  0.00000000E+00  0.00000000E+00  0.00000000E+00
  0.00000000E+00  0.00000000E+00  0.00000000E+00  0.00000000E+00  0.00000000E+00
  0.00000000E+00  0.00000000E+00  0.00000000E+00  0.00000000E+00  0.00000000E+00
  0.00000000E+00  0.00000000E+00  0.00000000E+00  0.00000000E+00  0.00000000E+00
IOpCl                                      I                0
IROHF                                      I                0
Alpha Orbital Energies                     R   N=         104
 -1.55404406E+01 -1.12417538E+01 -1.16962023E+00 -8.94255599E-01 -6.61309274E-01
 -6.03565236E-01 -5.54399581E-01 -5.16268466E-01 -3.92830594E-01  4.01465872E-02
  6.18904900E-02  6.63162048E-02  7.56771110E-02  9.84009432E-02  1.26095353E-01
  1.59676162E-01  1.60747483E-01  1.85392080E-01  2.14997741E-01  2.40415722E-01
  2.49285014E-01  2.96080005E-01  2.99626811E-01  3.09833165E-01  3.23076700E-01
  3.54366962E-01  3.59311612E-01  4.46583865E-01  5.69657186E-01  5.79823138E-01
  6.46265898E-01  6.78796856E-01  7.26547772E-01  7.48654731E-01  7.62008631E-01
  7.71803288E-01  7.88540227E-01  8.14478859E-01  8.39236101E-01  8.55781725E-01
  9.26983946E-01  9.65260151E-01  1.04428181E+00  1.05318071E+00  1.11230831E+00
  1.12107849E+00  1.20239352E+00  1.28548377E+00  1.28846491E+00  1.34028819E+00
  1.37357644E+00  1.40244174E+00  1.44852448E+00  1.48760063E+00  1.50070819E+00
  1.58069698E+00  1.63160929E+00  1.68134997E+00  1.69367851E+00  1.73426528E+00
  1.77549819E+00  1.88555876E+00  1.89797923E+00  1.98673526E+00  2.14951823E+00
  2.17618821E+00  2.86401058E+00  2.92325844E+00  3.07847815E+00  3.22105658E+00
  3.23975416E+00  3.52537441E+00  3.56635816E+00  3.68136160E+00  3.73705764E+00
  3.73896207E+00  3.85100420E+00  3.94575486E+00  3.96316287E+00  4.12529493E+00
  4.16405254E+00  4.19906193E+00  4.21243567E+00  4.28449026E+00  4.29770567E+00
  4.31788815E+00  4.39893730E+00  4.40980973E+00  4.47115758E+00  4.47829215E+00
  4.57543552E+00  4.63012282E+00  4.83948326E+00  5.36486221E+00  5.41205077E+00
  5.49148715E+00  5.54576593E+00  5.58747038E+00  5.62333410E+00  5.63588082E+00
  6.02440355E+00  6.38461890E+00  2.51283360E+01  3.70033264E+01
Alpha MO coefficients                      R   N=       10816
  5.57670134E-01  4.68252166E-01 -4.71460594E-04 -3.07375985E-09  1.73921620E-03
  5.08572253E-03  1.54962305E-04  3.15382332E-09 -7.85029964E-04 -2.18262495E-03
  4.05265349E-04  1.09537350E-09  8.28713909E-05  1.38905372E-03 -1.98264689E-04
  3.33816700E-09 -7.01296272E-05  7.44215997E-06  1.32159332E-05  4.37342456E-10
 -9.34336132E-06  1.29073080E-10  2.36084275E-04 -8.40081766E-05  2.10742886E-10
 -5.49615438E-05  7.48800334E-10  9.11218125E-06 -3.95135604E-05  2.40177675E-05
 -4.92482561E-11 -4.66265241E-06  1.74919507E-04  4.71385779E-04 -5.62578324E-10
 -4.15547588E-05  7.20373699E-04  5.16055339E-04  2.52085634E-09 -2.13583900E-04
 -1.03949493E-03 -3.50217915E-04 -2.13631269E-10  1.76643247E-04 -4.60136763E-05
 -1.91596236E-05  8.73159001E-11  7.80985335E-05 -5.94391996E-11 -1.06875163E-04
  4.61932576E-05  2.71242539E-10  1.67466099E-04 -4.89909162E-10  4.34634388E-06
  9.60057888E-05  3.79290939E-05 -7.75005782E-05  8.43145859E-06  1.63778066E-10
 -1.07444147E-05 -4.73754312E-05  3.08597809E-09 -4.47816651E-05  5.15314966E-06
 -4.50145624E-05 -4.95819485E-06  1.41560988E-04  1.01397100E-06  8.63579036E-06
 -1.92407720E-07  9.10280193E-07  5.07135972E-06  4.51905534E-05  5.15295472E-06
 -4.50092703E-05 -4.96195829E-06  1.41554805E-04  1.01406417E-06 -8.63581509E-06
 -1.92871810E-07  9.08503040E-07 -5.07501955E-06  4.51909467E-05  2.45216512E-04
  4.72991182E-04 -1.25701719E-04  2.26436475E-05 -5.01969405E-05  9.16182734E-05
 -3.65661568E-05 -5.23828523E-05  8.54052470E-05 -4.33877153E-05  2.45217379E-04
  4.72987300E-04 -1.25708405E-04  2.26391932E-05 -5.01969617E-05 -9.16182624E-05
 -3.65658553E-05 -5.23807136E-05 -8.54030232E-05 -4.33860851E-05 -8.68323620E-05
 -1.44414191E-04 -1.02882386E-04 -3.80480285E-11  1.27800973E-05  3.21453668E-04
 -4.88877215E-04 -4.30260698E-10  4.07460581E-05  6.45181660E-04 -2.10115780E-04
 -2.76201906E-09  1.27546267E-04  9.59476132E-04 -2.75034565E-04 -4.11747193E-10
  9.04168569E-05 -6.25703070E-05 -2.85539108E-05 -1.24143031E-10  1.20237243E-04
  6.40152968E-11 -2.82550433E-05 -3.15981475E-05  4.96868856E-10  5.08312468E-05
  5.08500539E-10  5.63409251E-01  4.66534310E-01  5.96719417E-04  3.20282940E-10
  3.22524083E-06  4.56530673E-03 -6.75164747E-04  5.59786072E-09 -3.78880411E-05
  2.08741203E-04 -8.09025378E-04  3.18034370E-09 -2.17874865E-05 -8.15195792E-04
 -6.54520913E-05 -4.56965839E-09  3.22338980E-05 -4.43949332E-06  1.08976970E-06
 -1.30709309E-10 -3.33611515E-05 -7.38176733E-11  1.84094981E-04  5.12378847E-05
  7.34291677E-10 -3.54242900E-04  1.34382638E-10  4.11610885E-04 -4.52079830E-04
 -9.39364163E-05  5.18192630E-05  4.42441849E-05  3.90789852E-09 -1.12288404E-04
 -7.50939648E-05 -1.22107880E-08  3.48786050E-04  4.22128804E-04 -5.59710986E-04
 -1.10005703E-04  1.29339761E-04  4.43586833E-05  9.48654646E-05  5.46731656E-05
 -9.52473023E-05 -3.37290590E-04 -1.84518743E-04  4.22129886E-04 -5.59714994E-04
 -1.10001777E-04  1.29345196E-04  4.43577340E-05 -9.48694959E-05  5.46658663E-05
 -9.52442064E-05  3.37306203E-04 -1.84494476E-04 -5.72266159E-06 -4.99418229E-05
 -1.38927997E-04  1.55695884E-05  1.06057218E-05  9.15739432E-06 -1.10922031E-06
 -1.53483355E-05 -6.42363774E-07 -2.06711172E-05 -5.72308571E-06 -4.99398936E-05
 -1.38925802E-04  1.55711248E-05  1.06060166E-05 -9.15784373E-06 -1.10840674E-06
 -1.53495619E-05  6.43971101E-07 -2.06741523E-05 -9.92002056E-02 -1.64485359E-01
 -1.47954140E-02  1.27575553E-07  2.75017431E-02  4.38060079E-01 -3.51820727E-02
  1.33214005E-07  4.54196872E-02  2.90789497E-01 -4.10894506E-02  7.20720437E-08
 -1.33166371E-05 -5.87818583E-02  2.62899539E-02  2.66568888E-08  3.44927504E-03
 -3.58765544E-03  1.67940468E-03  1.72250282E-08  4.56804802E-04 -3.58160783E-09
 -4.42987126E-03 -4.18231067E-03  4.79865581E-09  9.22428719E-03  2.14184294E-08
 -5.03570555E-02 -8.28944076E-02  3.92534704E-02  9.85605962E-08 -2.04814176E-03
  2.06191299E-01  6.93923444E-02  1.82225105E-07 -4.62081375E-03  4.63444144E-02
  1.20029839E-02  1.19359473E-07  5.75160204E-03  8.09582323E-02  1.82610771E-02
 -2.92907946E-08 -5.71197363E-03 -4.97843674E-03 -1.07833352E-03 -1.37148440E-09
  8.22064229E-03 -2.97942683E-09 -8.29751139E-03  4.96959694E-04  3.58054588E-08
  1.10712180E-02 -1.12018385E-08  2.44389784E-02  4.43850639E-02 -7.81557828E-04
 -1.50518340E-03  1.46162278E-03  1.08905224E-07 -3.02642130E-03  4.61208232E-03
  2.72182577E-07 -8.31526971E-03  2.54506322E-02  4.36114303E-02  1.74998237E-03
 -9.02679928E-03  1.79030358E-03  2.55792596E-03  1.59229509E-03  2.91390628E-03
  5.94443753E-03  2.63598935E-03  2.54508717E-02  4.36115372E-02  1.74975418E-03
 -9.02635571E-03  1.79030189E-03 -2.55806624E-03  1.59212145E-03  2.91381981E-03
 -5.94465045E-03  2.63553434E-03  7.76203535E-02  9.73959766E-02  5.05882870E-03
 -6.32731228E-03 -4.88028461E-03  8.58707654E-03 -4.70636973E-03 -7.69194909E-03
  1.70914229E-02 -6.27132667E-03  7.76206377E-02  9.73961317E-02  5.05878188E-03
 -6.32729031E-03 -4.88028705E-03 -8.58710200E-03 -4.70639522E-03 -7.69190464E-03
 -1.70914498E-02 -6.27129016E-03  4.08393890E-02  6.82126739E-02 -6.93614879E-02
 -1.99715128E-08 -2.35894569E-02 -1.86649200E-01 -1.10922789E-01  3.28477465E-09
 -3.71675784E-02 -1.29489752E-01 -5.84973945E-02 -1.07194477E-08 -7.52132148E-03
 -3.82302090E-02  1.24019802E-02  6.22530255E-08 -4.96905526E-03 -8.42901909E-04
 -3.74329873E-03 -3.90591070E-09  6.26648949E-03  2.41637308E-09 -5.05647658E-03
 -7.17151306E-03 -8.68871661E-09  9.95636658E-03 -1.90844658E-08 -8.87111347E-02
 -1.47575291E-01 -4.03861192E-02  3.04469491E-07 -3.12185266E-03  3.75308462E-01
 -5.37394398E-02  4.70077708E-07 -6.93159147E-03  2.07044762E-01 -1.75192412E-02
  2.03189887E-07 -9.48388294E-04  2.06010472E-02  9.47995679E-03 -3.27591013E-07
  5.33031969E-03  2.78545051E-03 -3.61723636E-04  4.65808788E-09 -5.03559204E-03
  2.14606511E-08 -8.05790725E-04 -5.72255615E-04  1.43037084E-07 -6.69744516E-03
 -8.47273991E-08  8.05020886E-02  1.20522810E-01  1.70764367E-02 -2.32976243E-03
  2.45437462E-03  3.00693809E-07 -8.42756789E-03  4.50518396E-03  5.64049058E-07
 -1.55019193E-02  8.44409805E-02  1.20383482E-01  2.12192252E-02  3.76254214E-03
  2.76626310E-03  7.31973930E-03  4.17400906E-03  3.44468438E-03  1.35884299E-02
  7.07468411E-03  8.44411763E-02  1.20383485E-01  2.12193843E-02  3.76286435E-03
  2.76619651E-03 -7.32008503E-03  4.17348108E-03  3.44466919E-03 -1.35888950E-02
  7.07365888E-03 -6.19732413E-02 -8.29657425E-02 -7.65288863E-03 -5.30026314E-03
  1.19032418E-03 -6.16962569E-03  3.33301709E-03  2.25732543E-03 -1.12315317E-02
  4.21904510E-03 -6.19732735E-02 -8.29656743E-02 -7.65289268E-03 -5.30020121E-03
  1.19030522E-03  6.16963424E-03  3.33302125E-03  2.25728616E-03  1.12315186E-02
  4.21900590E-03  6.33824924E-08  1.12585026E-07 -1.15558846E-08  1.79237557E-01
  8.66440734E-08 -3.26226452E-07  2.24562722E-08  2.76558540E-01  8.90412477E-08
 -5.65703970E-07 -3.83823250E-08  1.60046248E-01 -9.86275893E-08 -1.67844270E-07
 -8.76674756E-08 -5.75880554E-03 -8.93264326E-08  1.24944493E-10 -1.10096984E-08
  1.21175494E-02 -3.02645811E-08  5.02713512E-03  4.36010149E-08  5.42587512E-08
  2.04549908E-02 -1.23505281E-09 -5.12101523E-03  1.26950957E-07  2.20360160E-07
  1.37873738E-07  9.88852290E-02 -1.56961904E-07 -6.04066480E-07  2.29361137E-07
  1.54286944E-01 -1.44898652E-07 -9.27887175E-07  1.53254609E-07  8.57217225E-02
  3.11543222E-07 -5.54989379E-07 -2.66558325E-08 -1.47504222E-03 -7.65845900E-08
 -6.40941926E-07 -3.11321766E-08 -6.75066376E-03 -4.33938353E-07  5.87255794E-04
 -1.02416483E-06  7.32644856E-09 -1.06061072E-02 -5.17114590E-07  1.03649632E-02
 -2.84015300E-06 -4.39126577E-06 -1.46412330E-06  1.46896275E-07 -1.12502893E-07
  2.08274519E-03  2.62285526E-07 -8.04243636E-08  6.74998830E-03  5.85574871E-07
 -6.23406463E-02 -9.25002798E-02 -2.68708294E-02 -5.52493868E-03 -2.70568034E-03
 -2.87956056E-03 -2.80210266E-03 -7.07852570E-04 -3.60294522E-03 -7.16898154E-03
  6.23434285E-02  9.25048231E-02  2.68726971E-02  5.52499183E-03  2.70576748E-03
 -2.87999785E-03  2.80186165E-03  7.08127799E-04 -3.60394303E-03  7.16853760E-03
 -1.19565659E-01 -1.83008894E-01 -6.35433708E-02 -8.20084862E-03  5.64788633E-03
 -6.57898869E-03  6.95454552E-03  1.12162596E-02 -1.30024760E-02  1.35947497E-02
  1.19565750E-01  1.83008874E-01  6.35437725E-02  8.20091342E-03 -5.64787749E-03
 -6.57898119E-03 -6.95456219E-03 -1.12162480E-02 -1.30024717E-02 -1.35947476E-02
  1.62038864E-02  2.74884665E-02  1.07799487E-01  4.22110040E-07  9.89033329E-02
 -7.78067243E-02  1.72442581E-01  6.46979946E-07  1.53737330E-01 -1.48293544E-01
  1.15344586E-01  3.97775660E-07  1.05873331E-01  7.14097374E-02 -2.00063043E-02
 -1.42013631E-07  1.96044115E-02  4.00033604E-03  1.95856738E-03  1.23262626E-08
 -7.59280989E-03  2.57396460E-09  1.53748833E-02  7.78473256E-04  6.82885864E-08
 -1.23247546E-02  6.51642552E-10 -3.20341976E-03 -5.40207237E-03 -9.23877988E-02
 -1.17504686E-07  1.34745012E-01  1.19340041E-02 -1.46299009E-01 -1.02322409E-07
  2.08675097E-01  3.97832722E-02 -7.17538000E-02  4.03820004E-07  1.06787640E-01
 -7.18151756E-02 -1.93598649E-02  5.32997971E-07 -1.03247472E-02  1.40621730E-02
 -1.66594728E-03 -9.86686771E-07 -5.85539262E-03 -8.67957600E-09  1.83701719E-02
  7.26523689E-03 -1.28697939E-06 -8.74211582E-03 -3.90465634E-08  1.36702493E-01
  2.11543314E-01  8.32067206E-02  2.13389828E-02  3.18763063E-03  4.31992813E-07
 -9.61549604E-03 -2.58846754E-04  8.39375419E-07 -1.56004082E-02 -1.74712058E-02
 -3.61353484E-02 -1.75928133E-02 -9.34013592E-04 -2.64750618E-03 -1.49540165E-03
  1.95874230E-03 -4.50947865E-03 -5.87625363E-03  5.98753630E-03 -1.74652340E-02
 -3.61261822E-02 -1.75899754E-02 -9.33973861E-04 -2.64724318E-03  1.49500363E-03
  1.95911876E-03 -4.50940443E-03  5.87554529E-03  5.98868699E-03  5.56514448E-02
  1.00220718E-01  1.93699313E-02  6.79457125E-03  4.16386750E-04  4.99699768E-03
  4.83808879E-05 -6.12372540E-04  1.51322699E-02 -1.69214403E-04  5.56519143E-02
  1.00221363E-01  1.93700147E-02  6.79469459E-03  4.16382467E-04 -4.99702907E-03
  4.83489515E-05 -6.12288199E-04 -1.51322525E-02 -1.69256995E-04 -1.76110795E-03
 -2.85945141E-03  1.48970112E-01  9.03166865E-08 -3.04625413E-02  1.05827566E-02
  2.41921838E-01  1.13529719E-07 -5.09961717E-02  1.80667710E-02  1.87408552E-01
  1.65890750E-07 -4.63262685E-02  2.30015544E-02 -4.74257421E-03 -9.35322957E-08
 -1.32661188E-03  1.25860858E-03  7.71720813E-03  2.14303914E-08 -8.04730852E-03
  1.44038142E-09  1.15551598E-03  2.61819983E-02  3.67405513E-08 -1.61565818E-02
 -4.73427504E-08  3.46741038E-03  5.95703784E-03 -1.33225530E-01 -6.48949995E-08
 -1.15186796E-01 -1.72705833E-02 -2.12940470E-01 -2.66967003E-07 -1.72199929E-01
 -4.64696094E-04 -1.25051488E-01 -6.64065214E-07 -1.07368836E-01 -4.67096063E-02
 -8.44899201E-03 -1.52812462E-07  4.93984740E-04 -9.40803181E-04  7.94969341E-03
  1.01946720E-06 -1.75062608E-02  9.92059972E-08  3.43962397E-03  1.09245481E-02
  1.03770575E-06 -2.35199083E-02  6.92966961E-08 -6.09894836E-02 -1.05348349E-01
 -4.56709284E-02 -3.46997606E-03 -5.00824600E-03 -2.24424252E-07  3.45725270E-03
 -1.04067922E-02 -3.49560925E-07  5.33385210E-03  8.94498197E-02  1.39601945E-01
  5.89508487E-02  1.09636560E-02  4.28227929E-04  7.04933235E-03  1.30651374E-03
  8.88026344E-04  1.07582679E-02  1.32399635E-03  8.94430033E-02  1.39591568E-01
  5.89471911E-02  1.09630121E-02  4.27893739E-04 -7.04910108E-03  1.30568581E-03
  8.87724452E-04 -1.07580729E-02  1.32255130E-03  4.40482634E-02  6.10833579E-02
  3.03721767E-02  6.60041136E-03  3.28800315E-03  3.43501693E-03 -3.47393463E-03
  4.97256704E-03  2.61951033E-03 -4.52392007E-03  4.40482771E-02  6.10833757E-02
  3.03725557E-02  6.60053509E-03  3.28802633E-03 -3.43500847E-03 -3.47394483E-03
  4.97245356E-03 -2.61953524E-03 -4.52388345E-03  1.09734142E-07  1.87110360E-07
  4.98813342E-07 -1.07253942E-01  2.46960498E-07 -5.43694445E-07  8.67217645E-07
 -1.64725828E-01  3.66543606E-07 -1.31903168E-06  6.66481100E-07 -1.17559191E-01