
    -----------------------------------------------------------------------
          Psi4: An Open-Source Ab Initio Electronic Structure Package
                               Psi4 1.3.2 release

                         Git: Rev {HEAD} ecbda83 


    R. M. Parrish, L. A. Burns, D. G. A. Smith, A. C. Simmonett,
    A. E. DePrince III, E. G. Hohenstein, U. Bozkaya, A. Yu. Sokolov,
    R. Di Remigio, R. M. Richard, J. F. Gonthier, A. M. James,
    H. R. McAlexander, A. Kumar, M. Saitow, X. Wang, B. P. Pritchard,
    P. Verma, H. F. Schaefer III, K. Patkowski, R. A. King, E. F. Valeev,
    F. A. Evangelista, J. M. Turney, T. D. Crawford, and C. D. Sherrill,
    J. Chem. Theory Comput. 13(7) pp 3185--3197 (2017).
    (doi: 10.1021/acs.jctc.7b00174)


                         Additional Contributions by
    P. Kraus, H. Kruse, M. H. Lechner, M. C. Schieber, R. A. Shaw,
    A. Alenaizan, R. Galvelis, Z. L. Glick, S. Lehtola, and J. P. Misiewicz

    -----------------------------------------------------------------------


    Psi4 started on: Monday, 06 April 2020 12:53PM

    Process ID: 91466
    Host:       bme-nova.bme.utexas.edu
    PSIDATADIR: /home/bdw2292/miniconda3/envs/p4env/share/psi4
    Memory:     500.0 MiB
    Threads:    1
    
  ==> Input File <==

--------------------------------------------------------------------------
molecule { 
0 1
N           -0.722893621046     0.000490991181     0.005516236285
C            0.734078574992    -0.005873778113    -0.065371307355
H            1.257776691236     0.081142038317     0.901897547269
H            1.066421288456     0.821296371660    -0.700844511797
H            1.066434324584    -0.933171243584    -0.543016840225
H           -1.043527900354     0.855953511482     0.449082032278
H           -1.043515059629    -0.762104611620     0.594602210770
}
memory 700MB
set_num_threads(1)
psi4_io.set_default_path("/scratch/bdw2292")
set freeze_core True
set PROPERTIES_ORIGIN ["COM"]
E, wfn = energy('mp2/6-311G**',properties=['dipole'],return_wfn=True)
fchk(wfn, "methylamine-dma.fchk")
clean()
--------------------------------------------------------------------------

  Memory set to 667.572 MiB by Python driver.
  Threads set to 1 by Python driver.
    SCF Algorithm Type (re)set to DF.

*** tstart() called on bme-nova.bme.utexas.edu
*** at Mon Apr  6 12:53:55 2020

   => Loading Basis Set <=

    Name: 6-311G**
    Role: ORBITAL
    Keyword: BASIS
    atoms 1   entry N          line   132 file /home/bdw2292/miniconda3/envs/p4env/share/psi4/basis/6-311gss.gbs 
    atoms 2   entry C          line   113 file /home/bdw2292/miniconda3/envs/p4env/share/psi4/basis/6-311gss.gbs 
    atoms 3-7 entry H          line    32 file /home/bdw2292/miniconda3/envs/p4env/share/psi4/basis/6-311gss.gbs 


         ---------------------------------------------------------
                                   SCF
               by Justin Turney, Rob Parrish, Andy Simmonett
                          and Daniel G. A. Smith
                              RHF Reference
                        1 Threads,    667 MiB Core
         ---------------------------------------------------------

  ==> Geometry <==

    Molecular point group: c1
    Full point group: C1

    Geometry (in Angstrom), charge = 0, multiplicity = 1:

       Center              X                  Y                   Z               Mass       
    ------------   -----------------  -----------------  -----------------  -----------------
         N           -0.722893621046     0.000490991181     0.005516236285    14.003074004430
         C            0.734078574992    -0.005873778113    -0.065371307355    12.000000000000
         H            1.257776691236     0.081142038317     0.901897547269     1.007825032230
         H            1.066421288456     0.821296371660    -0.700844511797     1.007825032230
         H            1.066434324584    -0.933171243584    -0.543016840225     1.007825032230
         H           -1.043527900354     0.855953511482     0.449082032278     1.007825032230
         H           -1.043515059629    -0.762104611620     0.594602210770     1.007825032230

  Running in c1 symmetry.

  Rotational constants: A =      3.43841  B =      0.76336  C =      0.73396 [cm^-1]
  Rotational constants: A = 103080.99857  B =  22884.82517  C =  22003.48205 [MHz]
  Nuclear repulsion =   42.016071146408848

  Charge       = 0
  Multiplicity = 1
  Electrons    = 18
  Nalpha       = 9
  Nbeta        = 9

  ==> Algorithm <==

  SCF Algorithm Type is DF.
  DIIS enabled.
  MOM disabled.
  Fractional occupation disabled.
  Guess Type is SAD.
  Energy threshold   = 1.00e-08
  Density threshold  = 1.00e-08
  Integral threshold = 0.00e+00

  ==> Primary Basis <==

  Basis Set: 6-311G**
    Blend: 6-311G**
    Number of shells: 36
    Number of basis function: 66
    Number of Cartesian functions: 68
    Spherical Harmonics?: true
    Max angular momentum: 2

   => Loading Basis Set <=

    Name: (6-311G** AUX)
    Role: JKFIT
    Keyword: DF_BASIS_SCF
    atoms 1   entry N          line   177 file /home/bdw2292/miniconda3/envs/p4env/share/psi4/basis/cc-pvtz-jkfit.gbs 
    atoms 2   entry C          line   125 file /home/bdw2292/miniconda3/envs/p4env/share/psi4/basis/cc-pvtz-jkfit.gbs 
    atoms 3-7 entry H          line    51 file /home/bdw2292/miniconda3/envs/p4env/share/psi4/basis/cc-pvtz-jkfit.gbs 

  ==> Pre-Iterations <==

   -------------------------------------------------------
    Irrep   Nso     Nmo     Nalpha   Nbeta   Ndocc  Nsocc
   -------------------------------------------------------
     A         66      66       0       0       0       0
   -------------------------------------------------------
    Total      66      66       9       9       9       0
   -------------------------------------------------------

  ==> Integral Setup <==

  DFHelper Memory: AOs need 0.012 GiB; user supplied 0.489 GiB. Using in-core AOs.

  ==> MemDFJK: Density-Fitted J/K Matrices <==

    J tasked:                   Yes
    K tasked:                   Yes
    wK tasked:                   No
    OpenMP threads:               1
    Memory [MiB]:               500
    Algorithm:                 Core
    Schwarz Cutoff:           1E-12
    Mask sparsity (%):       0.0000
    Fitting Condition:        1E-10

   => Auxiliary Basis Set <=

  Basis Set: (6-311G** AUX)
    Blend: CC-PVTZ-JKFIT
    Number of shells: 100
    Number of basis function: 308
    Number of Cartesian functions: 367
    Spherical Harmonics?: true
    Max angular momentum: 4

  Minimum eigenvalue in the overlap matrix is 5.5546961882E-03.
  Using Symmetric Orthogonalization.

  SCF Guess: Superposition of Atomic Densities via on-the-fly atomic UHF.

  ==> Iterations <==

                           Total Energy        Delta E     RMS |[F,P]|

   @DF-RHF iter SAD:   -94.64785872511453   -9.46479e+01   0.00000e+00 
   @DF-RHF iter   1:   -95.15035696158284   -5.02498e-01   6.20966e-03 DIIS
   @DF-RHF iter   2:   -95.22256562603914   -7.22087e-02   3.16154e-03 DIIS
   @DF-RHF iter   3:   -95.24075290468909   -1.81873e-02   5.00108e-04 DIIS
   @DF-RHF iter   4:   -95.24177172978725   -1.01883e-03   1.21390e-04 DIIS
   @DF-RHF iter   5:   -95.24181769349322   -4.59637e-05   3.21166e-05 DIIS
   @DF-RHF iter   6:   -95.24182107281058   -3.37932e-06   6.24114e-06 DIIS
   @DF-RHF iter   7:   -95.24182129298401   -2.20173e-07   1.55128e-06 DIIS
   @DF-RHF iter   8:   -95.24182131103152   -1.80475e-08   4.00654e-07 DIIS
   @DF-RHF iter   9:   -95.24182131256504   -1.53352e-09   9.26277e-08 DIIS
   @DF-RHF iter  10:   -95.24182131264220   -7.71649e-11   2.20895e-08 DIIS
   @DF-RHF iter  11:   -95.24182131264567   -3.46745e-12   3.59543e-09 DIIS
  Energy and wave function converged.


  ==> Post-Iterations <==

    Orbital Energies [Eh]
    ---------------------

    Doubly Occupied:                                                      

       1A    -15.530617     2A    -11.241059     3A     -1.166507  
       4A     -0.891151     5A     -0.657894     6A     -0.600276  
       7A     -0.552560     8A     -0.512523     9A     -0.387986  

    Virtual:                                                              

      10A      0.156753    11A      0.192774    12A      0.209530  
      13A      0.231752    14A      0.257780    15A      0.377117  
      16A      0.463735    17A      0.484730    18A      0.548255  
      19A      0.560224    20A      0.704925    21A      0.757217  
      22A      0.806097    23A      0.807291    24A      0.852727  
      25A      0.932844    26A      0.953473    27A      0.971860  
      28A      1.265570    29A      1.294040    30A      1.296209  
      31A      1.585113    32A      1.639836    33A      1.727073  
      34A      1.745359    35A      1.761750    36A      1.830569  
      37A      1.892534    38A      1.925961    39A      1.984875  
      40A      2.034190    41A      2.144380    42A      2.259396  
      43A      2.328093    44A      2.444368    45A      2.475614  
      46A      2.632910    47A      2.660938    48A      2.719487  
      49A      2.776405    50A      2.789660    51A      2.862632  
      52A      2.866479    53A      2.946642    54A      3.088272  
      55A      3.093042    56A      3.200717    57A      3.320522  
      58A      3.504582    59A      3.833352    60A      4.149685  
      61A      4.208039    62A      4.493891    63A      5.214288  
      64A      5.334648    65A     25.040941    66A     37.003412  

    Final Occupation by Irrep:
              A 
    DOCC [     9 ]

  @DF-RHF Final Energy:   -95.24182131264567

   => Energetics <=

    Nuclear Repulsion Energy =             42.0160711464088479
    One-Electron Energy =                -211.4346387426823242
    Two-Electron Energy =                  74.1767462836278071
    Total Energy =                        -95.2418213126456692

Computation Completed


Properties will be evaluated at  -0.000000,  -0.000000,  -0.000000 [a0]

Properties computed using the SCF density matrix

  Nuclear Dipole Moment: [e a0]
     X:     1.2242      Y:     0.0592      Z:     0.6578

  Electronic Dipole Moment: [e a0]
     X:    -1.0382      Y:    -0.0103      Z:    -0.1150

  Dipole Moment: [e a0]
     X:     0.1860      Y:     0.0488      Z:     0.5428     Total:     0.5759

  Dipole Moment: [D]
     X:     0.4727      Y:     0.1241      Z:     1.3797     Total:     1.4637


*** tstop() called on bme-nova.bme.utexas.edu at Mon Apr  6 12:53:56 2020
Module time:
	user time   =       0.94 seconds =       0.02 minutes
	system time =       0.02 seconds =       0.00 minutes
	total time  =          1 seconds =       0.02 minutes
Total time:
	user time   =       0.94 seconds =       0.02 minutes
	system time =       0.02 seconds =       0.00 minutes
	total time  =          1 seconds =       0.02 minutes

*** tstart() called on bme-nova.bme.utexas.edu
*** at Mon Apr  6 12:53:56 2020


  //>>>>>>>>>>>>>>>>>>>>>>>>>>>>>>>>>>>//
  //               DFMP2               //
  //<<<<<<<<<<<<<<<<<<<<<<<<<<<<<<<<<<<//

   => Loading Basis Set <=

    Name: (6-311G** AUX)
    Role: RIFIT
    Keyword: DF_BASIS_MP2
    atoms 1   entry N          line   257 file /home/bdw2292/miniconda3/envs/p4env/share/psi4/basis/cc-pvtz-ri.gbs 
    atoms 2   entry C          line   209 file /home/bdw2292/miniconda3/envs/p4env/share/psi4/basis/cc-pvtz-ri.gbs 
    atoms 3-7 entry H          line    19 file /home/bdw2292/miniconda3/envs/p4env/share/psi4/basis/cc-pvtz-ri.gbs 

	 --------------------------------------------------------
	                          DF-MP2                         
	      2nd-Order Density-Fitted Moller-Plesset Theory     
	              RMP2 Wavefunction,   1 Threads             
	                                                         
	        Rob Parrish, Justin Turney, Andy Simmonett,      
	           Ed Hohenstein, and C. David Sherrill          
	 --------------------------------------------------------

   => Auxiliary Basis Set <=

  Basis Set: (6-311G** AUX)
    Blend: CC-PVTZ-RI
    Number of shells: 96
    Number of basis function: 312
    Number of Cartesian functions: 377
    Spherical Harmonics?: true
    Max angular momentum: 4

	 --------------------------------------------------------
	                 NBF =    66, NAUX =   312
	 --------------------------------------------------------
	   CLASS    FOCC     OCC    AOCC    AVIR     VIR    FVIR
	   PAIRS       2       9       7      57      57       0
	 --------------------------------------------------------

	-----------------------------------------------------------
	 ==================> DF-MP2 Energies <==================== 
	-----------------------------------------------------------
	 Reference Energy          =     -95.2418213126456692 [Eh]
	 Singles Energy            =      -0.0000000000000000 [Eh]
	 Same-Spin Energy          =      -0.0778082053510221 [Eh]
	 Opposite-Spin Energy      =      -0.2677275132205658 [Eh]
	 Correlation Energy        =      -0.3455357185715878 [Eh]
	 Total Energy              =     -95.5873570312172518 [Eh]
	-----------------------------------------------------------
	 ================> DF-SCS-MP2 Energies <================== 
	-----------------------------------------------------------
	 SCS Same-Spin Scale       =       0.3333333333333333 [-]
	 SCS Opposite-Spin Scale   =       1.2000000000000000 [-]
	 SCS Same-Spin Energy      =      -0.0259360684503407 [Eh]
	 SCS Opposite-Spin Energy  =      -0.3212730158646789 [Eh]
	 SCS Correlation Energy    =      -0.3472090843150196 [Eh]
	 SCS Total Energy          =     -95.5890303969606947 [Eh]
	-----------------------------------------------------------


*** tstop() called on bme-nova.bme.utexas.edu at Mon Apr  6 12:53:57 2020
Module time:
	user time   =       0.23 seconds =       0.00 minutes
	system time =       0.01 seconds =       0.00 minutes
	total time  =          1 seconds =       0.02 minutes
Total time:
	user time   =       1.17 seconds =       0.02 minutes
	system time =       0.03 seconds =       0.00 minutes
	total time  =          2 seconds =       0.03 minutes

    Psi4 stopped on: Monday, 06 April 2020 12:53PM
    Psi4 wall time for execution: 0:00:01.34

*** Psi4 exiting successfully. Buy a developer a beer!
