 Entering Gaussian System, Link 0=g09
 Input=methylamine-esp.com
 Output=methylamine-esp.log
 Initial command:
 /opt/g09gh/gaussian/g09/l1.exe /scratch/bdw2292/Gau-methylamine/Gau-8513.inp -scrdir=/scratch/bdw2292/Gau-methylamine/
 Entering Link 1 = /opt/g09gh/gaussian/g09/l1.exe PID=      8514.
  
 Copyright (c) 1988,1990,1992,1993,1995,1998,2003,2009, Gaussian, Inc.
                  All Rights Reserved.
  
 This is part of the Gaussian(R) 09 program.  It is based on
 the Gaussian(R) 03 system (copyright 2003, Gaussian, Inc.),
 the Gaussian(R) 98 system (copyright 1998, Gaussian, Inc.),
 the Gaussian(R) 94 system (copyright 1995, Gaussian, Inc.),
 the Gaussian 92(TM) system (copyright 1992, Gaussian, Inc.),
 the Gaussian 90(TM) system (copyright 1990, Gaussian, Inc.),
 the Gaussian 88(TM) system (copyright 1988, Gaussian, Inc.),
 the Gaussian 86(TM) system (copyright 1986, Carnegie Mellon
 University), and the Gaussian 82(TM) system (copyright 1983,
 Carnegie Mellon University). Gaussian is a federally registered
 trademark of Gaussian, Inc.
  
 This software contains proprietary and confidential information,
 including trade secrets, belonging to Gaussian, Inc.
  
 This software is provided under written license and may be
 used, copied, transmitted, or stored only in accord with that
 written license.
  
 The following legend is applicable only to US Government
 contracts under FAR:
  
                    RESTRICTED RIGHTS LEGEND
  
 Use, reproduction and disclosure by the US Government is
 subject to restrictions as set forth in subparagraphs (a)
 and (c) of the Commercial Computer Software - Restricted
 Rights clause in FAR 52.227-19.
  
 Gaussian, Inc.
 340 Quinnipiac St., Bldg. 40, Wallingford CT 06492
  
  
 ---------------------------------------------------------------
 Warning -- This program may not be used in any manner that
 competes with the business of Gaussian, Inc. or will provide
 assistance to any competitor of Gaussian, Inc.  The licensee
 of this program is prohibited from giving any competitor of
 Gaussian, Inc. access to this program.  By using this program,
 the user acknowledges that Gaussian, Inc. is engaged in the
 business of creating and licensing software in the field of
 computational chemistry and represents and warrants to the
 licensee that it is not a competitor of Gaussian, Inc. and that
 it will not use this program in any manner prohibited above.
 ---------------------------------------------------------------
  

 Cite this work as:
 Gaussian 09, Revision A.02,
 M. J. Frisch, G. W. Trucks, H. B. Schlegel, G. E. Scuseria, 
 M. A. Robb, J. R. Cheeseman, G. Scalmani, V. Barone, B. Mennucci, 
 G. A. Petersson, H. Nakatsuji, M. Caricato, X. Li, H. P. Hratchian, 
 A. F. Izmaylov, J. Bloino, G. Zheng, J. L. Sonnenberg, M. Hada, 
 M. Ehara, K. Toyota, R. Fukuda, J. Hasegawa, M. Ishida, T. Nakajima, 
 Y. Honda, O. Kitao, H. Nakai, T. Vreven, J. A. Montgomery, Jr., 
 J. E. Peralta, F. Ogliaro, M. Bearpark, J. J. Heyd, E. Brothers, 
 K. N. Kudin, V. N. Staroverov, R. Kobayashi, J. Normand, 
 K. Raghavachari, A. Rendell, J. C. Burant, S. S. Iyengar, J. Tomasi, 
 M. Cossi, N. Rega, J. M. Millam, M. Klene, J. E. Knox, J. B. Cross, 
 V. Bakken, C. Adamo, J. Jaramillo, R. Gomperts, R. E. Stratmann, 
 O. Yazyev, A. J. Austin, R. Cammi, C. Pomelli, J. W. Ochterski, 
 R. L. Martin, K. Morokuma, V. G. Zakrzewski, G. A. Voth, 
 P. Salvador, J. J. Dannenberg, S. Dapprich, A. D. Daniels, 
 O. Farkas, J. B. Foresman, J. V. Ortiz, J. Cioslowski, 
 and D. J. Fox, Gaussian, Inc., Wallingford CT, 2009.
 
 ******************************************
 Gaussian 09:  EM64L-G09RevA.02 11-Jun-2009
                20-Dec-2019 
 ******************************************
 %RWF=/scratch/bdw2292/Gau-methylamine/,100GB
 %Nosave
 %Chk=methylamine-esp.chk
 %Mem=700MB
 %Nproc=1
 Will use up to    1 processors via shared memory.
 ----------------------------------------------------------------------
 #P MP2/6-311++G(2d,2p) Sp Density=MP2 SCF=Save Guess=Huckel MaxDisk=10
 0GB
 ----------------------------------------------------------------------
 1/30=1,38=1/1;
 2/12=2,17=6,18=5,40=1/2;
 3/5=4,6=6,7=1212,11=9,16=1,25=1,30=1,71=1/1,2,3;
 4/11=4/1;
 5/5=2,36=1,38=5/2;
 8/6=4,10=2/1;
 9/15=1,16=-3/6;
 10/5=1,13=10/2;
 6/7=2,8=2,9=2,10=2,22=2/1;
 99/5=1,9=1/99;
 Leave Link    1 at Fri Dec 20 10:18:53 2019, MaxMem=   91750400 cpu:       0.0
 (Enter /opt/g09gh/gaussian/g09/l101.exe)
 --------------------------------------------------------------
 methylamine Gaussian SP Calculation on bme-nova.bme.utexas.edu
 --------------------------------------------------------------
 Symbolic Z-matrix:
 Charge =  0 Multiplicity = 1
 N                     0.7511    0.       -0.12581 
 C                    -0.70636   0.        0.01757 
 H                    -1.07869  -0.00004   1.05311 
 H                    -1.11071  -0.88099  -0.48621 
 H                    -1.1107    0.88103  -0.48614 
 H                     1.14028  -0.8126    0.34726 
 H                     1.14028   0.8126    0.34726 
 
 NAtoms=      7 NQM=      7 NQMF=      0 NMic=      0 NMicF=      0 NTot=      7.
                    Isotopes and Nuclear Properties:
 (Nuclear quadrupole moments (NQMom) in fm**2, nuclear magnetic moments (NMagM)
  in nuclear magnetons)

  Atom         1           2           3           4           5           6           7
 IAtWgt=          14          12           1           1           1           1           1
 AtmWgt=  14.0030740  12.0000000   1.0078250   1.0078250   1.0078250   1.0078250   1.0078250
 NucSpn=           2           0           1           1           1           1           1
 AtZEff=   0.0000000   0.0000000   0.0000000   0.0000000   0.0000000   0.0000000   0.0000000
 NQMom=    2.0440000   0.0000000   0.0000000   0.0000000   0.0000000   0.0000000   0.0000000
 NMagM=    0.4037610   0.0000000   2.7928460   2.7928460   2.7928460   2.7928460   2.7928460
 Leave Link  101 at Fri Dec 20 10:18:53 2019, MaxMem=   91750400 cpu:       0.3
 (Enter /opt/g09gh/gaussian/g09/l202.exe)
                          Input orientation:                          
 ---------------------------------------------------------------------
 Center     Atomic      Atomic             Coordinates (Angstroms)
 Number     Number       Type             X           Y           Z
 ---------------------------------------------------------------------
      1          7           0        0.751098    0.000000   -0.125814
      2          6           0       -0.706357    0.000000    0.017571
      3          1           0       -1.078685   -0.000036    1.053112
      4          1           0       -1.110710   -0.880985   -0.486208
      5          1           0       -1.110702    0.881025   -0.486143
      6          1           0        1.140279   -0.812602    0.347256
      7          1           0        1.140277    0.812602    0.347256
 ---------------------------------------------------------------------
                    Distance matrix (angstroms):
                    1          2          3          4          5
     1  N    0.000000
     2  C    1.464491   0.000000
     3  H    2.176688   1.100442   0.000000
     4  H    2.091016   1.092442   1.773867   0.000000
     5  H    2.091014   1.092441   1.773866   1.762010   0.000000
     6  H    1.017634   2.044280   2.466231   2.401310   2.937659
     7  H    1.017633   2.044278   2.466253   2.937659   2.401279
                    6          7
     6  H    0.000000
     7  H    1.625204   0.000000
 Stoichiometry    CH5N
 Framework group  C1[X(CH5N)]
 Deg. of freedom    15
 Full point group                 C1      NOp   1
 Largest Abelian subgroup         C1      NOp   1
 Largest concise Abelian subgroup C1      NOp   1
                         Standard orientation:                         
 ---------------------------------------------------------------------
 Center     Atomic      Atomic             Coordinates (Angstroms)
 Number     Number       Type             X           Y           Z
 ---------------------------------------------------------------------
      1          7           0        0.751098    0.000000   -0.125814
      2          6           0       -0.706357    0.000000    0.017571
      3          1           0       -1.078685   -0.000036    1.053112
      4          1           0       -1.110710   -0.880985   -0.486208
      5          1           0       -1.110702    0.881025   -0.486143
      6          1           0        1.140279   -0.812602    0.347256
      7          1           0        1.140277    0.812602    0.347256
 ---------------------------------------------------------------------
 Rotational constants (GHZ):    102.8970158     22.7878121     21.9186537
 Leave Link  202 at Fri Dec 20 10:18:55 2019, MaxMem=   91750400 cpu:       0.5
 (Enter /opt/g09gh/gaussian/g09/l301.exe)
 Standard basis: 6-311++G(2d,2p) (5D, 7F)
 Ernie: Thresh=  0.10000D-02 Tol=  0.10000D-05 Strict=F.
 There are   104 symmetry adapted basis functions of A   symmetry.
 Integral buffers will be    131072 words long.
 Raffenetti 1 integral format.
 Two-electron integral symmetry is turned on.
   104 basis functions,   144 primitive gaussians,   108 cartesian basis functions
     9 alpha electrons        9 beta electrons
       nuclear repulsion energy        41.9581702936 Hartrees.
 IExCor=    0 DFT=F Ex=HF Corr=None ExCW=0 ScaHFX=  1.000000
 ScaDFX=  1.000000  1.000000  1.000000  1.000000 ScalE2=  1.000000  1.000000
 IRadAn=      0 IRanWt=     -1 IRanGd=            0 ICorTp=0
 NAtoms=    7 NActive=    7 NUniq=    7 SFac= 7.50D-01 NAtFMM=   80 NAOKFM=F Big=F
 Leave Link  301 at Fri Dec 20 10:18:55 2019, MaxMem=   91750400 cpu:       0.3
 (Enter /opt/g09gh/gaussian/g09/l302.exe)
 NPDir=0 NMtPBC=     1 NCelOv=     1 NCel=       1 NClECP=     1 NCelD=      1
         NCelK=      1 NCelE2=     1 NClLst=     1 CellRange=     0.0.
 One-electron integrals computed using PRISM.
 NBasis=   104 RedAO= T  NBF=   104
 NBsUse=   104 1.00D-06 NBFU=   104
 Leave Link  302 at Fri Dec 20 10:18:56 2019, MaxMem=   91750400 cpu:       0.3
 (Enter /opt/g09gh/gaussian/g09/l303.exe)
 DipDrv:  MaxL=1.
 Leave Link  303 at Fri Dec 20 10:18:57 2019, MaxMem=   91750400 cpu:       1.2
 (Enter /opt/g09gh/gaussian/g09/l401.exe)
 Projected New-EHT guess.
 Enter ItEHT:  IZDO=4 IZDPar=0 Conv= 1.00D-06 N=   13
 It=   1                  EEH= -86.3209961067     EQH= 0.000000000000E+00 EH= -86.3209961067    
 Initial guess orbital symmetries:
       Occupied  (A) (A) (A) (A) (A) (A) (A) (A) (A)
       Virtual   (A) (A) (A) (A) (A) (A) (A) (A) (A) (A) (A) (A)
                 (A) (A) (A) (A) (A) (A) (A) (A) (A) (A) (A) (A)
                 (A) (A) (A) (A) (A) (A) (A) (A) (A) (A) (A) (A)
                 (A) (A) (A) (A) (A) (A) (A) (A) (A) (A) (A) (A)
                 (A) (A) (A) (A) (A) (A) (A) (A) (A) (A) (A) (A)
                 (A) (A) (A) (A) (A) (A) (A) (A) (A) (A) (A) (A)
                 (A) (A) (A) (A) (A) (A) (A) (A) (A) (A) (A) (A)
                 (A) (A) (A) (A) (A) (A) (A) (A) (A) (A) (A)
 The electronic state of the initial guess is 1-A.
 Leave Link  401 at Fri Dec 20 10:18:57 2019, MaxMem=   91750400 cpu:       0.4
 (Enter /opt/g09gh/gaussian/g09/l502.exe)
 Closed shell SCF:
 Requested convergence on RMS density matrix=1.00D-08 within 128 cycles.
 Requested convergence on MAX density matrix=1.00D-06.
 Requested convergence on             energy=1.00D-06.
 No special actions if energy rises.
 Using DIIS extrapolation, IDIIS=  1040.
 Integral symmetry usage will be decided dynamically.
 Keep R1 ints in memory in canonical form, NReq=18200051.
 IEnd=       54596 IEndB=       54596 NGot=    91750400 MDV=    74398748
 LenX=    74398748 LenY=    74386643
 Symmetry not used in FoFDir.
 MinBra= 0 MaxBra= 2 Meth= 1.
 IRaf=       0 NMat=   1 IRICut=       1 DoRegI=T DoRafI=F ISym2E= 0 JSym2E=0.

 Cycle   1  Pass 1  IDiag  1:
 E= -94.6161282138494    
 DIIS: error= 2.40D-01 at cycle   1 NSaved=   1.
 NSaved= 1 IEnMin= 1 EnMin= -94.6161282138494     IErMin= 1 ErrMin= 2.40D-01
 ErrMax= 2.40D-01 EMaxC= 1.00D-01 BMatC= 2.64D+00 BMatP= 2.64D+00
 IDIUse=3 WtCom= 0.00D+00 WtEn= 1.00D+00
 Coeff-Com:  0.100D+01
 Coeff-En:   0.100D+01
 Coeff:      0.100D+01
 Gap=     1.007 Goal=   None    Shift=    0.000
 GapD=    1.007 DampG=2.000 DampE=0.250 DampFc=0.5000 IDamp=-1.
 Damping current iteration by 5.00D-01
 RMSDP=4.85D-03 MaxDP=2.23D-01              OVMax= 2.15D-01

 Cycle   2  Pass 1  IDiag  1:
 E= -94.9168305852326     Delta-E=       -0.300702371383 Rises=F Damp=T
 DIIS: error= 1.24D-01 at cycle   2 NSaved=   2.
 NSaved= 2 IEnMin= 2 EnMin= -94.9168305852326     IErMin= 2 ErrMin= 1.24D-01
 ErrMax= 1.24D-01 EMaxC= 1.00D-01 BMatC= 7.32D-01 BMatP= 2.64D+00
 IDIUse=3 WtCom= 0.00D+00 WtEn= 1.00D+00
 Coeff-Com: -0.109D+01 0.209D+01
 Coeff-En:   0.000D+00 0.100D+01
 Coeff:      0.000D+00 0.100D+01
 Gap=     0.409 Goal=   None    Shift=    0.000
 RMSDP=2.59D-03 MaxDP=1.15D-01 DE=-3.01D-01 OVMax= 1.99D-02

 Cycle   3  Pass 1  IDiag  1:
 E= -95.2441701470830     Delta-E=       -0.327339561850 Rises=F Damp=F
 DIIS: error= 8.04D-03 at cycle   3 NSaved=   3.
 NSaved= 3 IEnMin= 3 EnMin= -95.2441701470830     IErMin= 3 ErrMin= 8.04D-03
 ErrMax= 8.04D-03 EMaxC= 1.00D-01 BMatC= 4.91D-03 BMatP= 7.32D-01
 IDIUse=3 WtCom= 9.20D-01 WtEn= 8.04D-02
 Coeff-Com:  0.449D+00-0.930D+00 0.148D+01
 Coeff-En:   0.000D+00 0.000D+00 0.100D+01
 Coeff:      0.413D+00-0.855D+00 0.144D+01
 Gap=     0.432 Goal=   None    Shift=    0.000
 RMSDP=8.37D-04 MaxDP=2.31D-02 DE=-3.27D-01 OVMax= 3.32D-02

 Cycle   4  Pass 1  IDiag  1:
 E= -95.2494684776917     Delta-E=       -0.005298330609 Rises=F Damp=F
 DIIS: error= 1.32D-03 at cycle   4 NSaved=   4.
 NSaved= 4 IEnMin= 4 EnMin= -95.2494684776917     IErMin= 4 ErrMin= 1.32D-03
 ErrMax= 1.32D-03 EMaxC= 1.00D-01 BMatC= 2.37D-04 BMatP= 4.91D-03
 IDIUse=3 WtCom= 9.87D-01 WtEn= 1.32D-02
 Coeff-Com:  0.411D-01-0.697D-01-0.179D+00 0.121D+01
 Coeff-En:   0.000D+00 0.000D+00 0.000D+00 0.100D+01
 Coeff:      0.405D-01-0.688D-01-0.177D+00 0.120D+01
 Gap=     0.434 Goal=   None    Shift=    0.000
 RMSDP=2.62D-04 MaxDP=7.65D-03 DE=-5.30D-03 OVMax= 1.27D-02

 Cycle   5  Pass 1  IDiag  1:
 E= -95.2499701099916     Delta-E=       -0.000501632300 Rises=F Damp=F
 DIIS: error= 3.55D-04 at cycle   5 NSaved=   5.
 NSaved= 5 IEnMin= 5 EnMin= -95.2499701099916     IErMin= 5 ErrMin= 3.55D-04
 ErrMax= 3.55D-04 EMaxC= 1.00D-01 BMatC= 1.28D-05 BMatP= 2.37D-04
 IDIUse=3 WtCom= 9.96D-01 WtEn= 3.55D-03
 Coeff-Com: -0.189D-01 0.377D-01-0.289D-01-0.264D+00 0.127D+01
 Coeff-En:   0.000D+00 0.000D+00 0.000D+00 0.000D+00 0.100D+01
 Coeff:     -0.188D-01 0.376D-01-0.288D-01-0.263D+00 0.127D+01
 Gap=     0.433 Goal=   None    Shift=    0.000
 RMSDP=9.00D-05 MaxDP=1.66D-03 DE=-5.02D-04 OVMax= 5.26D-03

 Cycle   6  Pass 1  IDiag  1:
 E= -95.2500144257620     Delta-E=       -0.000044315770 Rises=F Damp=F
 DIIS: error= 9.06D-05 at cycle   6 NSaved=   6.
 NSaved= 6 IEnMin= 6 EnMin= -95.2500144257620     IErMin= 6 ErrMin= 9.06D-05
 ErrMax= 9.06D-05 EMaxC= 1.00D-01 BMatC= 7.99D-07 BMatP= 1.28D-05
 IDIUse=1 WtCom= 1.00D+00 WtEn= 0.00D+00
 Coeff-Com:  0.114D-03-0.118D-02 0.187D-01-0.710D-01-0.770D-01 0.113D+01
 Coeff:      0.114D-03-0.118D-02 0.187D-01-0.710D-01-0.770D-01 0.113D+01
 Gap=     0.433 Goal=   None    Shift=    0.000
 RMSDP=1.85D-05 MaxDP=5.29D-04 DE=-4.43D-05 OVMax= 1.27D-03

 Cycle   7  Pass 1  IDiag  1:
 E= -95.2500169742540     Delta-E=       -0.000002548492 Rises=F Damp=F
 DIIS: error= 2.90D-05 at cycle   7 NSaved=   7.
 NSaved= 7 IEnMin= 7 EnMin= -95.2500169742540     IErMin= 7 ErrMin= 2.90D-05
 ErrMax= 2.90D-05 EMaxC= 1.00D-01 BMatC= 5.43D-08 BMatP= 7.99D-07
 IDIUse=1 WtCom= 1.00D+00 WtEn= 0.00D+00
 Coeff-Com:  0.888D-03-0.176D-02 0.102D-02 0.159D-01-0.692D-01-0.685D-01
 Coeff-Com:  0.112D+01
 Coeff:      0.888D-03-0.176D-02 0.102D-02 0.159D-01-0.692D-01-0.685D-01
 Coeff:      0.112D+01
 Gap=     0.433 Goal=   None    Shift=    0.000
 RMSDP=4.46D-06 MaxDP=1.42D-04 DE=-2.55D-06 OVMax= 3.48D-04

 Cycle   8  Pass 1  IDiag  1:
 E= -95.2500171510687     Delta-E=       -0.000000176815 Rises=F Damp=F
 DIIS: error= 8.36D-06 at cycle   8 NSaved=   8.
 NSaved= 8 IEnMin= 8 EnMin= -95.2500171510687     IErMin= 8 ErrMin= 8.36D-06
 ErrMax= 8.36D-06 EMaxC= 1.00D-01 BMatC= 5.12D-09 BMatP= 5.43D-08
 IDIUse=1 WtCom= 1.00D+00 WtEn= 0.00D+00
 Coeff-Com:  0.951D-04-0.135D-03-0.997D-03 0.643D-02-0.548D-03-0.104D+00
 Coeff-Com:  0.140D+00 0.959D+00
 Coeff:      0.951D-04-0.135D-03-0.997D-03 0.643D-02-0.548D-03-0.104D+00
 Coeff:      0.140D+00 0.959D+00
 Gap=     0.433 Goal=   None    Shift=    0.000
 RMSDP=1.25D-06 MaxDP=2.81D-05 DE=-1.77D-07 OVMax= 9.20D-05

 Cycle   9  Pass 1  IDiag  1:
 E= -95.2500171648257     Delta-E=       -0.000000013757 Rises=F Damp=F
 DIIS: error= 2.65D-06 at cycle   9 NSaved=   9.
 NSaved= 9 IEnMin= 9 EnMin= -95.2500171648257     IErMin= 9 ErrMin= 2.65D-06
 ErrMax= 2.65D-06 EMaxC= 1.00D-01 BMatC= 3.50D-10 BMatP= 5.12D-09
 IDIUse=1 WtCom= 1.00D+00 WtEn= 0.00D+00
 Coeff-Com: -0.111D-03 0.205D-03 0.181D-03-0.327D-02 0.655D-02 0.297D-01
 Coeff-Com: -0.124D+00-0.216D+00 0.131D+01
 Coeff:     -0.111D-03 0.205D-03 0.181D-03-0.327D-02 0.655D-02 0.297D-01
 Coeff:     -0.124D+00-0.216D+00 0.131D+01
 Gap=     0.433 Goal=   None    Shift=    0.000
 RMSDP=5.43D-07 MaxDP=1.32D-05 DE=-1.38D-08 OVMax= 3.59D-05

 Cycle  10  Pass 1  IDiag  1:
 E= -95.2500171661848     Delta-E=       -0.000000001359 Rises=F Damp=F
 DIIS: error= 4.34D-07 at cycle  10 NSaved=  10.
 NSaved=10 IEnMin=10 EnMin= -95.2500171661848     IErMin=10 ErrMin= 4.34D-07
 ErrMax= 4.34D-07 EMaxC= 1.00D-01 BMatC= 1.41D-11 BMatP= 3.50D-10
 IDIUse=1 WtCom= 1.00D+00 WtEn= 0.00D+00
 Coeff-Com:  0.193D-04-0.381D-04 0.217D-04 0.357D-03-0.136D-02-0.274D-03
 Coeff-Com:  0.182D-01-0.255D-02-0.291D+00 0.128D+01
 Coeff:      0.193D-04-0.381D-04 0.217D-04 0.357D-03-0.136D-02-0.274D-03
 Coeff:      0.182D-01-0.255D-02-0.291D+00 0.128D+01
 Gap=     0.433 Goal=   None    Shift=    0.000
 RMSDP=9.31D-08 MaxDP=2.18D-06 DE=-1.36D-09 OVMax= 6.67D-06

 Cycle  11  Pass 1  IDiag  1:
 E= -95.2500171662389     Delta-E=       -0.000000000054 Rises=F Damp=F
 DIIS: error= 7.82D-08 at cycle  11 NSaved=  11.
 NSaved=11 IEnMin=11 EnMin= -95.2500171662389     IErMin=11 ErrMin= 7.82D-08
 ErrMax= 7.82D-08 EMaxC= 1.00D-01 BMatC= 6.06D-13 BMatP= 1.41D-11
 IDIUse=1 WtCom= 1.00D+00 WtEn= 0.00D+00
 Coeff-Com: -0.156D-05 0.344D-05-0.110D-04 0.358D-05 0.162D-03-0.106D-02
 Coeff-Com: -0.449D-03 0.102D-01 0.254D-01-0.350D+00 0.132D+01
 Coeff:     -0.156D-05 0.344D-05-0.110D-04 0.358D-05 0.162D-03-0.106D-02
 Coeff:     -0.449D-03 0.102D-01 0.254D-01-0.350D+00 0.132D+01
 Gap=     0.433 Goal=   None    Shift=    0.000
 RMSDP=3.63D-08 MaxDP=7.68D-07 DE=-5.41D-11 OVMax= 1.09D-06

 Cycle  12  Pass 1  IDiag  1:
 E= -95.2500171662407     Delta-E=       -0.000000000002 Rises=F Damp=F
 DIIS: error= 1.50D-08 at cycle  12 NSaved=  12.
 NSaved=12 IEnMin=12 EnMin= -95.2500171662407     IErMin=12 ErrMin= 1.50D-08
 ErrMax= 1.50D-08 EMaxC= 1.00D-01 BMatC= 1.87D-14 BMatP= 6.06D-13
 IDIUse=1 WtCom= 1.00D+00 WtEn= 0.00D+00
 Coeff-Com: -0.624D-06 0.113D-05 0.180D-05-0.201D-04 0.227D-04 0.344D-03
 Coeff-Com: -0.813D-03-0.274D-02 0.624D-02 0.408D-01-0.331D+00 0.129D+01
 Coeff:     -0.624D-06 0.113D-05 0.180D-05-0.201D-04 0.227D-04 0.344D-03
 Coeff:     -0.813D-03-0.274D-02 0.624D-02 0.408D-01-0.331D+00 0.129D+01
 Gap=     0.433 Goal=   None    Shift=    0.000
 RMSDP=9.32D-09 MaxDP=2.20D-07 DE=-1.82D-12 OVMax= 1.59D-07

 SCF Done:  E(RHF) =  -95.2500171662     A.U. after   12 cycles
             Convg  =    0.9320D-08             -V/T =  2.0013
 KE= 9.512316226729D+01 PE=-3.063906504910D+02 EE= 7.405930076392D+01
 Leave Link  502 at Fri Dec 20 10:18:59 2019, MaxMem=   91750400 cpu:       1.2
 (Enter /opt/g09gh/gaussian/g09/l801.exe)
 ExpMin= 3.60D-02 ExpMax= 6.29D+03 ExpMxC= 9.49D+02 IAcc=3 IRadAn=         5 AccDes= 0.00D+00
 HarFok:  IExCor=  205 AccDes= 0.00D+00 IRadAn=         5 IDoV=-2
 ScaDFX=  1.000000  1.000000  1.000000  1.000000
 Largest valence mixing into a core orbital is  1.34D-04
 Largest core mixing into a valence orbital is  3.36D-05
 Range of M.O.s used for correlation:     3   104
 NBasis=   104 NAE=     9 NBE=     9 NFC=     2 NFV=     0
 NROrb=    102 NOA=     7 NOB=     7 NVA=    95 NVB=    95

 **** Warning!!: The largest alpha MO coefficient is  0.17990989D+02

 Leave Link  801 at Fri Dec 20 10:19:00 2019, MaxMem=   91750400 cpu:       0.3
 (Enter /opt/g09gh/gaussian/g09/l906.exe)
 Frozen-core derivative calculation, NFC=   2 NFV=   0.
 FulOut=F Deriv=T AODrv=F NAtomX=     7
   MMem=         139  MDisk=           7 MDiskD=           7
  W3Min=      101088 MinDsk=      255146 NBas6D=         108
 NBas2D=        6024    NTT=        5886    LW2=     2040000
    MDV=    91612517 MDiskM=       11524 NBas2p=        6024
 Fully in-core method, ICMem=    42695424.
 IMap=   1   2   3   4   5   6   7   8   9
 JobTyp=1 Pass  1 fully in-core, NPsUse=  1.
 Compute canonical integrals, IntTyp=   4.
 Symmetry not used in FoFDir.
 MinBra= 0 MaxBra= 2 Meth= 1.
 IRaf=       0 NMat=   1 IRICut=       1 DoRegI=T DoRafI=F ISym2E= 0 JSym2E=0.
 Spin components of T(2) and E(2):
     alpha-alpha T2 =       0.1339808461D-01 E2=     -0.4180821307D-01
     alpha-beta  T2 =       0.8653671308D-01 E2=     -0.2869995697D+00
     beta-beta   T2 =       0.1339808461D-01 E2=     -0.4180821307D-01
 The integrals were generated   1 times.
 ANorm=    0.1055145906D+01
 E2 =    -0.3706159959D+00 EUMP2 =    -0.95620633162098D+02
 Leave Link  906 at Fri Dec 20 10:19:03 2019, MaxMem=   91750400 cpu:       3.3
 (Enter /opt/g09gh/gaussian/g09/l1002.exe)
 Minotr:  Closed shell wavefunction.
          Computing MP2/KS-MP2 derivatives.
          Using Z-Vector for PSCF gradient.
          Skipping F1 and S1 gradient terms here.
          Frozen-core window.
          Direct CPHF calculation.
          Differentiating once with respect to electric field.
                with respect to dipole field.
          Electric field/nuclear overlap derivatives assumed to be zero.
          Requested convergence is 1.0D-10 RMS, and 1.0D-09 maximum.
          NewPWx=F KeepS1=T KeepF1=T KeepIn=T MapXYZ=F SortEE=F KeepMc=T.
          MDV=      91750340 using IRadAn=       0.
          Keep R1 ints in memory in canonical form, NReq=18146240.
 Symmetry not used in FoFDir.
 MinBra= 0 MaxBra= 2 Meth= 1.
 IRaf=       0 NMat=   1 IRICut=       1 DoRegI=T DoRafI=F ISym2E= 0 JSym2E=0.
          Solving linear equations separately, MaxMat=       0.
          There are     1 degrees of freedom in the 1st order CPHF.  IDoFFX=0.
 LinEq1:  Iter=  0 NonCon=     1 RMS=3.77D-03 Max=4.31D-02
 AX will form     1 AO Fock derivatives at one time.
 LinEq1:  Iter=  1 NonCon=     1 RMS=9.00D-04 Max=9.44D-03
 LinEq1:  Iter=  2 NonCon=     1 RMS=3.31D-04 Max=3.18D-03
 LinEq1:  Iter=  3 NonCon=     1 RMS=7.13D-05 Max=6.59D-04
 LinEq1:  Iter=  4 NonCon=     1 RMS=2.37D-05 Max=1.92D-04
 LinEq1:  Iter=  5 NonCon=     1 RMS=5.93D-06 Max=4.38D-05
 LinEq1:  Iter=  6 NonCon=     1 RMS=1.20D-06 Max=8.37D-06
 LinEq1:  Iter=  7 NonCon=     1 RMS=2.06D-07 Max=1.68D-06
 LinEq1:  Iter=  8 NonCon=     1 RMS=3.44D-08 Max=2.69D-07
 LinEq1:  Iter=  9 NonCon=     1 RMS=6.94D-09 Max=4.64D-08
 LinEq1:  Iter= 10 NonCon=     1 RMS=1.04D-09 Max=6.36D-09
 LinEq1:  Iter= 11 NonCon=     1 RMS=1.68D-10 Max=1.26D-09
 LinEq1:  Iter= 12 NonCon=     0 RMS=2.34D-11 Max=1.32D-10
 Linear equations converged to 1.000D-10 1.000D-09 after    12 iterations.
 End of Minotr Frequency-dependent properties file   721 does not exist.
 End of Minotr Frequency-dependent properties file   722 does not exist.
 Leave Link 1002 at Fri Dec 20 10:19:04 2019, MaxMem=   91750400 cpu:       1.5
 (Enter /opt/g09gh/gaussian/g09/l601.exe)
 Copying SCF densities to generalized density rwf, IOpCl= 0 IROHF=0.

 **********************************************************************

            Population analysis using the MP2 density.

 **********************************************************************

 Orbital symmetries:
       Occupied  (A) (A) (A) (A) (A) (A) (A) (A) (A)
       Virtual   (A) (A) (A) (A) (A) (A) (A) (A) (A) (A) (A) (A)
                 (A) (A) (A) (A) (A) (A) (A) (A) (A) (A) (A) (A)
                 (A) (A) (A) (A) (A) (A) (A) (A) (A) (A) (A) (A)
                 (A) (A) (A) (A) (A) (A) (A) (A) (A) (A) (A) (A)
                 (A) (A) (A) (A) (A) (A) (A) (A) (A) (A) (A) (A)
                 (A) (A) (A) (A) (A) (A) (A) (A) (A) (A) (A) (A)
                 (A) (A) (A) (A) (A) (A) (A) (A) (A) (A) (A) (A)
                 (A) (A) (A) (A) (A) (A) (A) (A) (A) (A) (A)
 The electronic state is 1-A.
 Alpha  occ. eigenvalues --  -15.54044 -11.24175  -1.16962  -0.89426  -0.66131
 Alpha  occ. eigenvalues --   -0.60357  -0.55440  -0.51627  -0.39283
 Alpha virt. eigenvalues --    0.04015   0.06189   0.06632   0.07568   0.09840
 Alpha virt. eigenvalues --    0.12610   0.15968   0.16075   0.18539   0.21500
 Alpha virt. eigenvalues --    0.24042   0.24929   0.29608   0.29963   0.30983
 Alpha virt. eigenvalues --    0.32308   0.35437   0.35931   0.44658   0.56966
 Alpha virt. eigenvalues --    0.57982   0.64627   0.67880   0.72655   0.74865
 Alpha virt. eigenvalues --    0.76201   0.77180   0.78854   0.81448   0.83924
 Alpha virt. eigenvalues --    0.85578   0.92698   0.96526   1.04428   1.05318
 Alpha virt. eigenvalues --    1.11231   1.12108   1.20239   1.28548   1.28846
 Alpha virt. eigenvalues --    1.34029   1.37358   1.40244   1.44852   1.48760
 Alpha virt. eigenvalues --    1.50071   1.58070   1.63161   1.68135   1.69368
 Alpha virt. eigenvalues --    1.73427   1.77550   1.88556   1.89798   1.98674
 Alpha virt. eigenvalues --    2.14952   2.17619   2.86401   2.92326   3.07848
 Alpha virt. eigenvalues --    3.22106   3.23975   3.52537   3.56636   3.68136
 Alpha virt. eigenvalues --    3.73706   3.73896   3.85100   3.94575   3.96316
 Alpha virt. eigenvalues --    4.12529   4.16405   4.19906   4.21244   4.28449
 Alpha virt. eigenvalues --    4.29771   4.31789   4.39894   4.40981   4.47116
 Alpha virt. eigenvalues --    4.47829   4.57544   4.63012   4.83948   5.36486
 Alpha virt. eigenvalues --    5.41205   5.49149   5.54577   5.58747   5.62333
 Alpha virt. eigenvalues --    5.63588   6.02440   6.38462  25.12834  37.00333
          Condensed to atoms (all electrons):
              1          2          3          4          5          6
     1  N    6.552156   0.187344  -0.063646  -0.037861  -0.037860   0.372406
     2  C    0.187344   4.868496   0.385513   0.390655   0.390653  -0.040521
     3  H   -0.063646   0.385513   0.705411  -0.037405  -0.037403  -0.001037
     4  H   -0.037861   0.390655  -0.037405   0.635115  -0.023793  -0.007112
     5  H   -0.037860   0.390653  -0.037403  -0.023793   0.635115   0.006224
     6  H    0.372406  -0.040521  -0.001037  -0.007112   0.006224   0.564765
     7  H    0.372407  -0.040521  -0.001036   0.006224  -0.007112  -0.039031
              7
     1  N    0.372407
     2  C   -0.040521
     3  H   -0.001036
     4  H    0.006224
     5  H   -0.007112
     6  H   -0.039031
     7  H    0.564765
 Mulliken atomic charges:
              1
     1  N   -0.344947
     2  C   -0.141618
     3  H    0.049602
     4  H    0.074177
     5  H    0.074176
     6  H    0.144305
     7  H    0.144305
 Sum of Mulliken atomic charges =   0.00000
 Mulliken charges with hydrogens summed into heavy atoms:
              1
     1  N   -0.056336
     2  C    0.056336
 Sum of Mulliken charges with hydrogens summed into heavy atoms =   0.00000
 Electronic spatial extent (au):  <R**2>=             96.2548
 Charge=              0.0000 electrons
 Dipole moment (field-independent basis, Debye):
    X=             -0.3377    Y=              0.0000    Z=              1.3972  Tot=              1.4374
 Quadrupole moment (field-independent basis, Debye-Ang):
   XX=            -14.4082   YY=            -12.8570   ZZ=            -15.8266
   XY=              0.0000   XZ=              2.1569   YZ=              0.0000
 Traceless Quadrupole moment (field-independent basis, Debye-Ang):
   XX=             -0.0443   YY=              1.5069   ZZ=             -1.4627
   XY=              0.0000   XZ=              2.1569   YZ=              0.0000
 Octapole moment (field-independent basis, Debye-Ang**2):
  XXX=              2.3053  YYY=              0.0001  ZZZ=              1.8844  XYY=              1.8840
  XXY=              0.0000  XXZ=              2.3300  XZZ=             -1.0266  YZZ=             -0.0001
  YYZ=              0.4098  XYZ=              0.0000
 Hexadecapole moment (field-independent basis, Debye-Ang**3):
 XXXX=            -79.3941 YYYY=            -24.5694 ZZZZ=            -27.5201 XXXY=              0.0000
 XXXZ=              4.5940 YYYX=             -0.0001 YYYZ=              0.0000 ZZZX=              2.0183
 ZZZY=              0.0000 XXYY=            -15.1933 XXZZ=            -18.9887 YYZZ=             -8.6151
 XXYZ=              0.0000 YYXZ=              2.2183 ZZXY=              0.0001
 N-N= 4.195817029357D+01 E-N=-3.065821410344D+02  KE= 9.554259968060D+01
 No NMR shielding tensors so no spin-rotation constants.
 Leave Link  601 at Fri Dec 20 10:19:04 2019, MaxMem=   91750400 cpu:       0.1
 (Enter /opt/g09gh/gaussian/g09/l9999.exe)
 1\1\GINC-BME-NOVA\SP\RMP2-FC\6-311++G(2d,2p)\C1H5N1\BDW2292\20-Dec-201
 9\0\\#P MP2/6-311++G(2d,2p) Sp Density=MP2 SCF=Save Guess=Huckel MaxDi
 sk=100GB\\methylamine Gaussian SP Calculation on bme-nova.bme.utexas.e
 du\\0,1\N,0,0.751098,0.,-0.125814\C,0,-0.706357,0.,0.017571\H,0,-1.078
 685,-0.000036,1.053112\H,0,-1.11071,-0.880985,-0.486208\H,0,-1.110702,
 0.881025,-0.486143\H,0,1.140279,-0.812602,0.347256\H,0,1.140277,0.8126
 02,0.347256\\Version=EM64L-G09RevA.02\State=1-A\HF=-95.2500172\MP2=-95
 .6206332\RMSD=9.320e-09\Dipole=-0.1328578,0.0000011,0.5496822\Quadrupo
 le=-0.0329152,1.1203681,-1.0874529,-0.0000094,1.6036337,0.000003\PG=C0
 1 [X(C1H5N1)]\\@


            ARSENIC

 FOR SMELTER FUMES HAVE I BEEN NAMED,
    I AM AN EVIL POISONOUS SMOKE...
 BUT WHEN FROM POISON I AM FREED,
    THROUGH ART AND SLEIGHT OF HAND,
 THEN CAN I CURE BOTH MAN AND BEAST,
    FROM DIRE DISEASE OFTTIMES DIRECT THEM;
 BUT PREPARE ME CORRECTLY, AND TAKE GREAT CARE
    THAT YOU FAITHFULLY KEEP WATCHFUL GUARD OVER ME;
 FOR ELSE I AM POISON, AND POISON REMAIN,
    THAT PIERCES THE HEART OF MANY A ONE.

 ATTRIBUTED TO THE PROBABLY MYTHICAL 15TH
 CENTURY MONK, BASILIUS VALENTINUS
 Job cpu time:  0 days  0 hours  0 minutes 11.8 seconds.
 File lengths (MBytes):  RWF=     10 Int=      0 D2E=      0 Chk=      2 Scr=      1
 Normal termination of Gaussian 09 at Fri Dec 20 10:19:05 2019.
