18
ModifiedRes-sp-13-1-3-7-270.log	Energy: -567360.9291998
N          1.01666       -1.24087       -0.59365
H          0.48304       -1.85243       -1.20682
C          0.56731        0.16844       -0.65622
H          0.39890        0.36898       -1.72305
C          1.58310        1.25943       -0.16279
O          1.14781        2.33584        0.25800
C         -0.73862        0.42972        0.13812
S         -2.06869       -0.70424       -0.43727
C         -3.42737        0.08202        0.21445
N         -4.36229        0.62652        0.69800
H         -0.57626        0.26942        1.20689
H         -1.06577        1.45766       -0.03646
C          1.84137       -1.86117        0.30195
O          2.50107       -1.28795        1.16825
N          2.91852        1.06273       -0.32499
H          1.88738       -2.95335        0.16101
H          3.32233        0.14167       -0.24658
H          3.49340        1.84351       -0.03736
