18
ModifiedRes-opt-3-1-13-14-251.log	Energy: -567272.5147252
N          1.00688        1.11934       -0.12367
H          1.75654        1.25770       -0.76973
C          0.56707       -0.22915        0.08728
H          0.08306       -0.29604        1.05414
C          1.78359       -1.15876        0.03993
O          2.64929       -0.97694       -0.76746
C         -0.40838       -0.71256       -1.00025
S         -2.02048        0.14486       -0.98577
C         -2.62450       -0.49649        0.47750
N         -3.00319       -0.91897        1.46360
H          0.00812       -0.50661       -1.97728
H         -0.58760       -1.77623       -0.92392
C          0.61757        2.19283        0.60768
O          1.04581        3.29469        0.46436
N          1.76414       -2.19867        0.89492
H         -0.14089        1.95329        1.35366
H          1.11413       -2.26344        1.64385
H          2.54649       -2.81565        0.89954
