18
ModifiedRes-opt-3-7-8-9-041.log	Energy: -567277.2916466
N         -0.31083        0.91204        0.49828
H          0.26541        0.86284        1.30924
C         -0.57140       -0.29523       -0.26399
H         -0.70693        0.00631       -1.29368
C         -1.86072       -0.97932        0.22057
O         -1.83012       -2.00829        0.83713
C          0.58614       -1.28412       -0.16468
S          2.15189       -0.69475       -0.90834
C          2.75666        0.25155        0.37686
N          3.16000        0.88135        1.23435
H          0.76832       -1.58944        0.85407
H          0.34298       -2.17693       -0.72202
C         -0.82251        2.10849        0.15144
O         -1.58832        2.28109       -0.75555
N         -2.99035       -0.33442       -0.11492
H         -0.47486        2.92287        0.78267
H         -2.96687        0.56720       -0.54031
H         -3.85148       -0.68025        0.24561
