18
ModifiedRes-opt-13-1-3-7-175.log	Energy: -567275.7647379
N          0.97242       -0.88656        0.75749
H          0.59644       -0.86045        1.67988
C          0.60508        0.16552       -0.17622
H          0.71653       -0.24517       -1.17036
C          1.54429        1.37418       -0.02947
O          1.19134        2.37747        0.52351
C         -0.83473        0.61394        0.04408
S         -1.95648       -0.82137       -0.17724
C         -3.44854        0.00208       -0.10209
N         -4.45601        0.52720       -0.05338
H         -0.96672        1.02850        1.03130
H         -1.09269        1.37212       -0.67835
C          1.91554       -1.80857        0.47452
O          2.53910       -1.84860       -0.54765
N          2.76306        1.19584       -0.56722
H          2.05972       -2.53317        1.27303
H          3.05459        0.30569       -0.90859
H          3.44630        1.90524       -0.42098
