18
ModifiedRes-sp-1-3-7-8-343.log	Energy: -567364.7536265
N         -0.94769       -0.98394       -0.53204
H         -0.43787       -1.08393       -1.40530
C         -0.65495        0.15155        0.37139
H         -0.94445       -0.16760        1.38182
C         -1.51215        1.37506       -0.05164
O         -1.00775        2.32943       -0.64818
C          0.85857        0.52846        0.37097
S          1.99536       -0.76358       -0.29253
C          3.48729       -0.04862        0.09879
N          4.51721        0.44910        0.40908
H          1.00822        1.43438       -0.22060
H          1.15643        0.71358        1.40646
C         -1.99506       -1.83394       -0.31529
O         -2.77717       -1.71427        0.63472
N         -2.82964        1.31032        0.27982
H         -2.08351       -2.64093       -1.05973
H         -3.21607        0.48213        0.72417
H         -3.41050        2.09508        0.01797
