18
ModifiedRes-sp-3-1-13-14-195.log	Energy: -567360.2385635
N          1.26821        0.93039       -0.28929
H          1.71363        1.05739       -1.19093
C          0.68730       -0.31874        0.24480
H          0.54505       -0.20196        1.32595
C          1.63450       -1.50516       -0.05548
O          2.22485       -1.56667       -1.13385
C         -0.67398       -0.62985       -0.40681
S         -1.84453        0.77765       -0.16137
C         -3.28240       -0.10416        0.05898
N         -4.29282       -0.70392        0.21427
H         -0.54781       -0.79177       -1.48086
H         -1.11184       -1.52595        0.04004
C          1.62112        1.96818        0.52972
O          1.90246        3.09190        0.10917
N          1.70592       -2.47245        0.89890
H          1.66151        1.72683        1.60490
H          1.23042       -2.39454        1.78971
H          2.31464       -3.25397        0.69614
