18
ModifiedRes-opt-7-3-5-15-219.log	Energy: -567275.7647385
N          0.97252       -0.88654        0.75753
H          0.59624       -0.86069        1.67979
C          0.60513        0.16552       -0.17617
H          0.71656       -0.24510       -1.17034
C          1.54425        1.37425       -0.02947
O          1.19117        2.37762        0.52329
C         -0.83471        0.61393        0.04416
S         -1.95644       -0.82137       -0.17736
C         -3.44851        0.00207       -0.10206
N         -4.45602        0.52710       -0.05327
H         -0.96673        1.02835        1.03144
H         -1.09268        1.37220       -0.67816
C          1.91555       -1.80863        0.47452
O          2.53905       -1.84872       -0.54766
N          2.76309        1.19588       -0.56703
H          2.05969       -2.53323        1.27304
H          3.05470        0.30576       -0.90840
H          3.44619        1.90546       -0.42105
