18
ModifiedRes-sp-3-7-8-9-281.log	Energy: -567370.0433004
N          0.80635        0.83425       -0.99054
H          0.65055        0.69679       -1.98469
C          0.42782       -0.22381       -0.03123
H          0.13987        0.27169        0.90678
C          1.64623       -1.13938        0.23720
O          1.72153       -2.24765       -0.29974
C         -0.75026       -1.07990       -0.55026
S         -2.22509       -0.02380       -0.85880
C         -2.78059        0.11728        0.74153
N         -3.12850        0.23472        1.86819
H         -0.49026       -1.56900       -1.49171
H         -0.95256       -1.85743        0.18971
C          1.38664        2.00367       -0.58925
O          1.69681        2.23825        0.58435
N          2.58796       -0.63694        1.07921
H          1.56140        2.72363       -1.40448
H          2.51395        0.31554        1.42593
H          3.39211       -1.21673        1.27649
