18
ModifiedRes-sp-13-1-3-7-024.log	Energy: -567344.9709720
N          0.66880        1.40151        0.44015
H          1.40854        1.67790        1.07608
C          0.75901       -0.08000        0.25295
H          0.44642       -0.50782        1.21580
C          2.21529       -0.58475       -0.04240
O          2.39424       -1.62262       -0.68346
C         -0.11755       -0.72616       -0.87047
S         -1.93119       -0.41220       -0.83426
C         -2.23226       -1.10443        0.69115
N         -2.42866       -1.62076        1.74204
H          0.20869       -0.33209       -1.83670
H          0.01798       -1.81060       -0.85800
C         -0.25638        2.38284        0.20054
O         -1.31708        2.30862       -0.41055
N          3.26726        0.07557        0.51871
H          0.08126        3.34622        0.62166
H          3.18185        0.71885        1.29310
H          4.17663       -0.30447        0.29148
