18
ModifiedRes-opt-7-3-5-15-276.log	Energy: -567275.7647053
N          0.97252       -0.88623        0.75761
H          0.59583       -0.86047        1.67971
C          0.60517        0.16562       -0.17633
H          0.71673       -0.24525       -1.17038
C          1.54434        1.37424       -0.02959
O          1.19117        2.37769        0.52302
C         -0.83465        0.61410        0.04379
S         -1.95635       -0.82129       -0.17741
C         -3.44849        0.00198       -0.10193
N         -4.45592        0.52715       -0.05301
H         -0.96675        1.02876        1.03095
H         -1.09261        1.37215       -0.67876
C          1.91520       -1.80869        0.47460
O          2.53865       -1.84917       -0.54760
N          2.76341        1.19562       -0.56644
H          2.05912       -2.53328        1.27318
H          3.05485        0.30580       -0.90871
H          3.44627        1.90556       -0.42113
