18
ModifiedRes-opt-7-3-5-15-314.log	Energy: -567275.7647159
N          0.97253       -0.88643        0.75769
H          0.59654       -0.86043        1.68007
C          0.60514        0.16559       -0.17594
H          0.71660       -0.24513       -1.17007
C          1.54444        1.37426       -0.02943
O          1.19179        2.37763        0.52351
C         -0.83472        0.61397        0.04439
S         -1.95647       -0.82129       -0.17738
C         -3.44850        0.00221       -0.10216
N         -4.45597        0.52731       -0.05343
H         -0.96679        1.02824        1.03173
H         -1.09267        1.37237       -0.67780
C          1.91521       -1.80879        0.47459
O          2.53860       -1.84908       -0.54768
N          2.76305        1.19574       -0.56759
H          2.05950       -2.53323        1.27321
H          3.05433        0.30556       -0.90911
H          3.44638        1.90515       -0.42187
