18
ModifiedRes-opt-13-1-3-7-119.log	Energy: -567275.7647279
N          0.97266       -0.88650        0.75766
H          0.59628       -0.86091        1.67989
C          0.60517        0.16553       -0.17595
H          0.71658       -0.24504       -1.17015
C          1.54420        1.37436       -0.02945
O          1.19106        2.37787        0.52300
C         -0.83466        0.61385        0.04448
S         -1.95639       -0.82140       -0.17747
C         -3.44846        0.00203       -0.10213
N         -4.45590        0.52720       -0.05328
H         -0.96668        1.02799        1.03188
H         -1.09260        1.37231       -0.67765
C          1.91543       -1.80882        0.47445
O          2.53890       -1.84886       -0.54774
N          2.76307        1.19595       -0.56699
H          2.05921       -2.53369        1.27279
H          3.05477        0.30581       -0.90823
H          3.44614        1.90560       -0.42116
