18
ModifiedRes-sp-13-1-3-7-346.log	Energy: -567357.9482135
N         -1.28193        1.25938       -0.53672
H         -1.86762        1.53382       -1.32196
C         -0.93168       -0.18189       -0.56823
H         -0.85025       -0.43477       -1.63444
C         -2.02212       -1.10993        0.04865
O         -1.71949       -2.21400        0.50469
C          0.40379       -0.58107        0.12782
S          1.83213        0.35747       -0.57771
C          3.10654       -0.60455        0.00881
N          4.01689       -1.25495        0.40338
H          0.34874       -0.37678        1.19938
H          0.58790       -1.64485       -0.04299
C         -0.75619        2.26658        0.22713
O          0.02692        2.11775        1.16456
N         -3.31851       -0.70719       -0.05706
H         -1.13164        3.26186       -0.06318
H         -3.57047        0.24229       -0.29576
H         -4.00735       -1.34657        0.31602
