18
ModifiedRes-sp-13-1-3-7-119.log	Energy: -567367.8330665
N         -1.10968        0.83745        0.84812
H         -1.25284        0.56652        1.81679
C         -0.76886       -0.18798       -0.15946
H         -0.86557        0.28479       -1.14613
C         -1.75536       -1.37549       -0.06874
O         -1.41044       -2.43980        0.44758
C          0.67367       -0.70114        0.03008
S          1.88526        0.67959       -0.11379
C          3.31946       -0.23362       -0.08678
N          4.33420       -0.84669       -0.07027
H          0.78784       -1.17756        1.00622
H          0.89928       -1.43707       -0.74533
C         -1.43562        2.12104        0.51382
O         -1.46572        2.52648       -0.65039
N         -2.99273       -1.15152       -0.58765
H         -1.66704        2.76832        1.37456
H         -3.22737       -0.26612       -1.02219
H         -3.65140       -1.91737       -0.54572
