18
ModifiedRes-sp-3-7-8-9-041.log	Energy: -567365.0170205
N         -0.20344        0.82036        0.60967
H          0.28794        0.68430        1.48832
C         -0.54044       -0.33510       -0.24347
H         -0.52263        0.01155       -1.28544
C         -1.96846       -0.82120        0.10852
O         -2.13059       -1.82910        0.80138
C          0.45555       -1.51303       -0.07719
S          2.23251       -1.16004       -0.47156
C          2.59037        0.38796        0.13870
N          2.87373        1.46383        0.55277
H          0.44182       -1.84383        0.96489
H          0.08739       -2.31498       -0.72185
C         -0.54905        2.09869        0.27268
O         -1.22049        2.37139       -0.72982
N         -2.98788       -0.07226       -0.38992
H         -0.18270        2.86599        0.97218
H         -2.79806        0.80021       -0.87533
H         -3.92983       -0.36829       -0.17343
