18
ModifiedRes-opt-7-3-5-15-068.log	Energy: -567275.7647404
N          0.97237       -0.88655        0.75747
H          0.59629       -0.86049        1.67981
C          0.60512        0.16554       -0.17622
H          0.71659       -0.24509       -1.17038
C          1.54431        1.37422       -0.02947
O          1.19121        2.37764        0.52320
C         -0.83470        0.61398        0.04402
S         -1.95642       -0.82135       -0.17735
C         -3.44852        0.00203       -0.10202
N         -4.45597        0.52717       -0.05320
H         -0.96672        1.02853        1.03124
H         -1.09265        1.37217       -0.67840
C          1.91545       -1.80862        0.47454
O          2.53897       -1.84875       -0.54764
N          2.76319        1.19575       -0.56684
H          2.05959       -2.53319        1.27309
H          3.05475        0.30567       -0.90834
H          3.44630        1.90535       -0.42097
