18
ModifiedRes-opt-3-1-13-14-167.log	Energy: -567270.2714823
N          1.23208        0.88949       -0.27701
H          1.66010        0.82116       -1.17862
C          0.64064       -0.31565        0.24042
H          0.49897       -0.19749        1.30781
C          1.55315       -1.51109       -0.05878
O          2.12674       -1.58127       -1.10695
C         -0.71871       -0.60109       -0.41110
S         -1.83684        0.83271       -0.15683
C         -3.30718       -0.00587        0.06134
N         -4.29634       -0.54522        0.21657
H         -0.59430       -0.76276       -1.47187
H         -1.17685       -1.47661        0.02557
C          1.65217        1.92698        0.49833
O          2.32733        2.82540        0.11026
N          1.59942       -2.47110        0.88501
H          1.28676        1.87133        1.52460
H          1.22656       -2.34589        1.79719
H          2.18922       -3.25806        0.72478
