18
ModifiedRes-opt-13-1-3-7-346.log	Energy: -567272.3084653
N         -1.05751        1.14668       -0.74760
H         -0.88182        1.60282       -1.61497
C         -0.68295       -0.25259       -0.62801
H         -0.51892       -0.60290       -1.64105
C         -1.79888       -1.15212       -0.07482
O         -1.52267       -2.17640        0.47673
C          0.59684       -0.48476        0.17976
S          1.94975        0.50268       -0.57403
C          3.29399       -0.25549        0.14893
N          4.21146       -0.74134        0.61290
H          0.46805       -0.18546        1.20649
H          0.86131       -1.52737        0.13889
C         -1.32275        1.93139        0.32967
O         -1.44938        1.52124        1.44151
N         -3.06380       -0.78200       -0.36824
H         -1.43714        2.98370        0.07313
H         -3.27351        0.15964       -0.60152
H         -3.78620       -1.31398        0.06510
