18
ModifiedRes-opt-13-1-3-7-270.log	Energy: -567272.3084917
N         -1.05757        1.14649       -0.74777
H         -0.88366        1.60206       -1.61579
C         -0.68305       -0.25273       -0.62796
H         -0.51891       -0.60322       -1.64091
C         -1.79890       -1.15237       -0.07472
O         -1.52252       -2.17710        0.47594
C          0.59676       -0.48466        0.17986
S          1.94966        0.50271       -0.57404
C          3.29392       -0.25548        0.14891
N          4.21119       -0.74155        0.61303
H          0.46790       -0.18514        1.20653
H          0.86127       -1.52726        0.13921
C         -1.32259        1.93168        0.32917
O         -1.44854        1.52212        1.44131
N         -3.06395       -0.78185       -0.36711
H         -1.43735        2.98382        0.07206
H         -3.27368        0.16004       -0.59933
H         -3.78615       -1.31404        0.06633
