18
ModifiedRes-sp-1-3-7-8-211.log	Energy: -567367.7450520
N          1.54662       -0.99676        0.86192
H          1.39856       -1.05536        1.86529
C          0.63601       -0.16678        0.04680
H          0.75665       -0.49911       -0.99295
C          1.04700        1.32123        0.15042
O          0.53371        2.05435        0.99885
C         -0.82565       -0.37565        0.51332
S         -1.98116       -0.16325       -0.90460
C         -3.44896       -0.27426       -0.05377
N         -4.48533       -0.34817        0.51759
H         -0.93320       -1.37777        0.93499
H         -1.07582        0.36145        1.28069
C          2.73422       -1.45022        0.36070
O          3.10031       -1.23985       -0.80102
N          2.00841        1.72191       -0.72385
H          3.33698       -2.02876        1.07851
H          2.50724        1.03938       -1.28724
H          2.29228        2.69119       -0.68293
