18
ModifiedRes-opt-1-3-7-8-230.log	Energy: -567273.7882337
N          1.56861       -1.04012        0.74894
H          1.39372       -1.17835        1.72020
C          0.63787       -0.22465       -0.01349
H          0.80131       -0.46723       -1.05416
C          0.95161        1.25870        0.23702
O          0.39971        1.87296        1.10500
C         -0.78963       -0.57742        0.39760
S         -1.96261        0.08500       -0.84394
C         -3.42150       -0.30737       -0.05552
N         -4.40519       -0.56914        0.45150
H         -0.90237       -1.65063        0.43426
H         -1.02158       -0.13991        1.35628
C          2.78332       -1.37181        0.26101
O          3.17966       -1.07578       -0.82933
N          1.89858        1.77133       -0.57122
H          3.37975       -1.95578        0.95901
H          2.47322        1.17170       -1.12254
H          2.23861        2.68355       -0.35962
