18
ModifiedRes-sp-3-1-13-14-223.log	Energy: -567350.4224291
N          1.24679        1.00045       -0.33123
H          1.68332        1.14718       -1.23395
C          0.74207       -0.26842        0.23034
H          0.59600       -0.13744        1.30986
C          1.75640       -1.40281       -0.04895
O          2.34694       -1.45117       -1.12814
C         -0.60050       -0.67246       -0.40948
S         -1.85414        0.66717       -0.18986
C         -3.23307       -0.29886        0.05543
N         -4.17168       -0.99185        0.26628
H         -0.46747       -0.84862       -1.48042
H         -0.98313       -1.58346        0.05758
C          1.53387        2.05792        0.48528
O          1.26813        3.22467        0.19293
N          1.88681       -2.34435        0.92467
H          2.04727        1.78976        1.42353
H          1.40534       -2.27803        1.81327
H          2.53837       -3.09417        0.73588
