18
ModifiedRes-sp-1-3-7-8-002.log	Energy: -567362.6681760
N         -0.63887        0.89977        0.62763
H         -0.19017        0.75740        1.52667
C         -0.59377       -0.16795       -0.40115
H         -0.71251        0.31968       -1.37943
C         -1.78156       -1.13890       -0.15103
O         -1.57678       -2.32349        0.12644
C          0.77123       -0.92362       -0.45592
S          2.03327       -0.40093        0.78873
C          3.23241        0.22654       -0.24270
N          4.08087        0.66849       -0.94216
H          0.58967       -1.98988       -0.30834
H          1.22436       -0.76878       -1.43853
C         -1.38702        2.03360        0.48607
O         -2.11024        2.24823       -0.49315
N         -3.03068       -0.61410       -0.27206
H         -1.29255        2.74479        1.32188
H         -3.17340        0.33663       -0.60012
H         -3.80853       -1.23999       -0.11357
