18
ModifiedRes-sp-3-1-13-14-307.log	Energy: -567354.5943329
N          1.06085       -0.83562        0.78255
H          0.69200       -0.78760        1.72825
C          0.65837        0.20097       -0.18811
H          0.76811       -0.23737       -1.18991
C          1.59130        1.43055       -0.07387
O          1.20000        2.45933        0.47981
C         -0.80631        0.63479        0.02997
S         -1.94138       -0.80605       -0.14498
C         -3.42344        0.02445       -0.07795
N         -4.46984        0.57979       -0.03407
H         -0.93570        1.07665        1.02048
H         -1.07820        1.38062       -0.72070
C          2.03694       -1.74648        0.50914
O          2.04270       -2.42983       -0.51596
N          2.83325        1.29106       -0.61297
H          2.80668       -1.83365        1.29195
H          3.10839        0.45966       -1.12428
H          3.44827        2.09021       -0.54063
