18
ModifiedRes-sp-1-3-7-8-078.log	Energy: -567368.1627261
N         -0.84798       -1.15475       -0.27083
H         -0.11133       -1.37817       -0.93462
C         -0.65995       -0.00411        0.64128
H         -1.28086       -0.17206        1.53310
C         -1.15433        1.28895       -0.06982
O         -0.39383        2.22119       -0.32873
C          0.80390        0.08037        1.13698
S          2.03623        0.78986       -0.06300
C          2.99561       -0.60355       -0.26337
N          3.67012       -1.57301       -0.37169
H          0.81774        0.69623        2.03911
H          1.16640       -0.92323        1.37703
C         -2.02075       -1.84718       -0.36740
O         -3.03394       -1.55286        0.27645
N         -2.48133        1.33293       -0.36852
H         -1.98854       -2.69415       -1.07080
H         -3.11729        0.59767       -0.07392
H         -2.81635        2.16627       -0.83230
