18
ModifiedRes-opt-13-1-3-7-043.log	Energy: -567275.7647253
N          0.97259       -0.88652        0.75755
H          0.59560       -0.86119        1.67953
C          0.60509        0.16549       -0.17619
H          0.71652       -0.24510       -1.17036
C          1.54419        1.37425       -0.02949
O          1.19106        2.37756        0.52335
C         -0.83472        0.61385        0.04415
S         -1.95648       -0.82139       -0.17776
C         -3.44856        0.00199       -0.10194
N         -4.45598        0.52712       -0.05283
H         -0.96678        1.02810        1.03149
H         -1.09264        1.37226       -0.67804
C          1.91558       -1.80862        0.47461
O          2.53942       -1.84850       -0.54738
N          2.76300        1.19597       -0.56711
H          2.05954       -2.53334        1.27305
H          3.05468        0.30583       -0.90836
H          3.44614        1.90548       -0.42095
