18
ModifiedRes-opt-13-1-3-7-081.log	Energy: -567275.7646889
N          0.97242       -0.88679        0.75738
H          0.59777       -0.85972        1.68028
C          0.60501        0.16541       -0.17620
H          0.71630       -0.24517       -1.17039
C          1.54404        1.37424       -0.02959
O          1.19063        2.37776        0.52273
C         -0.83483        0.61369        0.04432
S         -1.95653       -0.82152       -0.17764
C         -3.44860        0.00192       -0.10192
N         -4.45610        0.52693       -0.05287
H         -0.96683        1.02783        1.03171
H         -1.09280        1.37221       -0.67773
C          1.91631       -1.80816        0.47467
O          2.53943       -1.84842       -0.54770
N          2.76314        1.19585       -0.56641
H          2.06118       -2.53225        1.27354
H          3.05484        0.30610       -0.90859
H          3.44584        1.90597       -0.42121
