18
ModifiedRes-opt-7-3-5-15-295.log	Energy: -567275.7647373
N          0.97255       -0.88643        0.75764
H          0.59669       -0.86024        1.68006
C          0.60515        0.16559       -0.17608
H          0.71658       -0.24513       -1.17021
C          1.54433        1.37427       -0.02948
O          1.19139        2.37768        0.52328
C         -0.83467        0.61397        0.04423
S         -1.95641       -0.82137       -0.17716
C         -3.44846        0.00212       -0.10214
N         -4.45591        0.52727       -0.05355
H         -0.96669        1.02847        1.03147
H         -1.09267        1.37217       -0.67816
C          1.91535       -1.80871        0.47450
O          2.53857       -1.84905       -0.54784
N          2.76312        1.19577       -0.56711
H          2.05957       -2.53320        1.27310
H          3.05453        0.30573       -0.90883
H          3.44629        1.90535       -0.42145
