18
ModifiedRes-opt-3-1-13-14-279.log	Energy: -567275.7647366
N          0.97232       -0.88653        0.75746
H          0.59627       -0.86042        1.67981
C          0.60511        0.16557       -0.17628
H          0.71661       -0.24511       -1.17040
C          1.54440        1.37414       -0.02944
O          1.19157        2.37737        0.52372
C         -0.83470        0.61405        0.04393
S         -1.95644       -0.82132       -0.17708
C         -3.44851        0.00215       -0.10211
N         -4.45599        0.52727       -0.05353
H         -0.96671        1.02879        1.03107
H         -1.09270        1.37208       -0.67864
C          1.91536       -1.80863        0.47453
O          2.53882       -1.84878       -0.54767
N          2.76310        1.19579       -0.56735
H          2.05957       -2.53314        1.27312
H          3.05459        0.30567       -0.90880
H          3.44638        1.90515       -0.42107
