18
ModifiedRes-sp-7-3-5-15-200.log	Energy: -567370.5197633
N          1.00630       -0.90424        0.78186
H          0.63290       -0.89006        1.72656
C          0.61150        0.15336       -0.17085
H          0.73013       -0.26894       -1.17833
C          1.55168        1.37340       -0.02375
O          1.17202        2.38393        0.57212
C         -0.85127        0.59322        0.03943
S         -1.98945       -0.83818       -0.17463
C         -3.47304       -0.01099       -0.10984
N         -4.52131        0.54043       -0.06834
H         -0.98878        1.01801        1.03625
H         -1.11037        1.35456       -0.70008
C          1.97721       -1.81933        0.48901
O          2.59988       -1.82402       -0.57896
N          2.78042        1.24229       -0.59128
H          2.15800       -2.55777        1.28597
H          3.06794        0.36064       -1.00701
H          3.41189        2.02787       -0.51431
