18
ModifiedRes-opt-7-3-5-15-087.log	Energy: -567275.7647297
N          0.97270       -0.88632        0.75762
H          0.59705       -0.85997        1.68013
C          0.60505        0.16556       -0.17619
H          0.71635       -0.24521       -1.17031
C          1.54423        1.37425       -0.02961
O          1.19127        2.37764        0.52319
C         -0.83476        0.61386        0.04433
S         -1.95649       -0.82147       -0.17711
C         -3.44860        0.00194       -0.10215
N         -4.45593        0.52729       -0.05355
H         -0.96665        1.02828        1.03163
H         -1.09282        1.37214       -0.67795
C          1.91572       -1.80842        0.47456
O          2.53877       -1.84881       -0.54789
N          2.76306        1.19567       -0.56707
H          2.06030       -2.53271        1.27328
H          3.05443        0.30558       -0.90875
H          3.44627        1.90519       -0.42128
