18
ModifiedRes-opt-7-3-5-15-049.log	Energy: -567275.7647172
N          0.97243       -0.88617        0.75761
H          0.59683       -0.85953        1.68013
C          0.60518        0.16575       -0.17635
H          0.71672       -0.24513       -1.17038
C          1.54452        1.37432       -0.02967
O          1.19165        2.37789        0.52286
C         -0.83465        0.61419        0.04383
S         -1.95631       -0.82124       -0.17711
C         -3.44847        0.00206       -0.10199
N         -4.45588        0.52729       -0.05328
H         -0.96664        1.02897        1.03096
H         -1.09272        1.37222       -0.67871
C          1.91493       -1.80878        0.47463
O          2.53798       -1.84960       -0.54782
N          2.76346        1.19532       -0.56663
H          2.05917       -2.53306        1.27341
H          3.05475        0.30509       -0.90796
H          3.44677        1.90468       -0.42058
