18
ModifiedRes-opt-1-3-7-8-249.log	Energy: -567275.7647147
N          0.97266       -0.88654        0.75753
H          0.59792       -0.85972        1.68040
C          0.60515        0.16555       -0.17600
H          0.71653       -0.24505       -1.17016
C          1.54419        1.37441       -0.02951
O          1.19091        2.37801        0.52268
C         -0.83472        0.61387        0.04436
S         -1.95636       -0.82151       -0.17652
C         -3.44843        0.00200       -0.10230
N         -4.45585        0.52724       -0.05421
H         -0.96666        1.02867        1.03150
H         -1.09278        1.37191       -0.67819
C          1.91560       -1.80866        0.47419
O          2.53842       -1.84906       -0.54838
N          2.76326        1.19573       -0.56634
H          2.06026       -2.53304        1.27280
H          3.05462        0.30591       -0.90863
H          3.44612        1.90573       -0.42134
