18
ModifiedRes-sp-13-1-3-7-156.log	Energy: -567370.4055209
N          0.99983       -0.91973        0.76148
H          0.63329       -0.93509        1.70883
C          0.60632        0.14614       -0.18215
H          0.71961       -0.26599       -1.19422
C          1.53783        1.37335       -0.02509
O          1.14171        2.38689        0.55497
C         -0.85633        0.58474        0.03940
S         -1.99531       -0.84482       -0.18261
C         -3.47893       -0.01896       -0.10357
N         -4.52736        0.53136       -0.05233
H         -0.98933        1.00034        1.04069
H         -1.11893        1.35297       -0.69172
C          2.00410       -1.80393        0.48450
O          2.65176       -1.78415       -0.56839
N          2.78155        1.24498       -0.55910
H          2.18821       -2.54262        1.28067
H          3.08200        0.36630       -0.97176
H          3.40621        2.03497       -0.47223
