18
ModifiedRes-opt-3-7-8-9-311.log	Energy: -567276.1065367
N          0.71181        0.70569       -1.05535
H          0.52631        0.43882       -1.99608
C          0.43397       -0.23646        0.01326
H          0.15837        0.34108        0.88491
C          1.69398       -1.05804        0.33430
O          1.82016       -2.18602       -0.05551
C         -0.69395       -1.19423       -0.35757
S         -2.28798       -0.39937       -0.76411
C         -2.66403        0.29661        0.74807
N         -2.92753        0.76726        1.74931
H         -0.43951       -1.76478       -1.24028
H         -0.85173       -1.90156        0.44137
C          1.23150        1.92696       -0.82485
O          1.56825        2.32923        0.25240
N          2.60969       -0.40609        1.06974
H          1.32406        2.53048       -1.72550
H          2.52738        0.57252        1.24334
H          3.48899       -0.84937        1.21770
