18
ModifiedRes-opt-7-3-5-15-238.log	Energy: -567275.7647341
N          0.97256       -0.88649        0.75769
H          0.59674       -0.86029        1.68013
C          0.60519        0.16553       -0.17607
H          0.71655       -0.24520       -1.17020
C          1.54435        1.37428       -0.02948
O          1.19117        2.37780        0.52294
C         -0.83467        0.61395        0.04419
S         -1.95643       -0.82133       -0.17745
C         -3.44854        0.00204       -0.10202
N         -4.45598        0.52719       -0.05314
H         -0.96669        1.02834        1.03146
H         -1.09256        1.37224       -0.67814
C          1.91548       -1.80870        0.47458
O          2.53861       -1.84903       -0.54782
N          2.76326        1.19579       -0.56679
H          2.05982       -2.53315        1.27322
H          3.05482        0.30573       -0.90835
H          3.44630        1.90553       -0.42129
