18
ModifiedRes-sp-3-1-13-14-139.log	Energy: -567157.0311631
N          1.37948       -0.92698        0.98730
H          0.86794       -0.38190        1.65313
C          0.40376        0.02899       -0.13013
H          0.10396       -0.44926       -1.32648
C          1.45105        1.29956       -0.11185
O          1.07692        2.33524        0.55415
C         -1.02381        0.53955        0.04452
S         -2.06908       -0.88557       -0.19017
C         -3.52472       -0.05655       -0.07834
N         -4.57925        0.47154        0.03595
H         -1.02235        1.02980        1.00204
H         -1.31354        1.29032       -0.74690
C          2.13539       -1.73222        0.00370
O          3.23352       -1.48487       -0.11795
N          2.64653        1.29435       -0.70549
H          0.94893       -2.88275       -0.10466
H          2.93828        0.41151       -1.06455
H          3.32116        2.00003       -0.45114
