18
ModifiedRes-sp-1-3-7-8-324.log	Energy: -567368.3458321
N          0.94415       -0.94221        0.64008
H          0.48430       -0.97811        1.54568
C          0.63697        0.16647       -0.28906
H          0.84628       -0.20447       -1.30166
C          1.55922        1.37333        0.01891
O          1.12261        2.36583        0.60648
C         -0.84895        0.59764       -0.19846
S         -1.99479       -0.82069        0.07361
C         -3.47761       -0.00963       -0.10815
N         -4.52547        0.53048       -0.22995
H         -0.98121        1.31306        0.61671
H         -1.12939        1.07547       -1.14041
C          1.94047       -1.84384        0.39458
O          2.66252       -1.79563       -0.60773
N          2.84761        1.25000       -0.39864
H          2.04564       -2.62271        1.16623
H          3.17556        0.38971       -0.82890
H          3.46978        2.02471       -0.21277
