18
ModifiedRes-sp-1-3-7-8-040.log	Energy: -567369.2334304
N          0.58391        1.02910       -0.40977
H         -0.08636        0.99297       -1.17137
C          0.61993       -0.06900        0.58585
H          1.04196        0.34723        1.51160
C          1.54191       -1.19713        0.05464
O          1.08103       -2.31834       -0.17265
C         -0.78687       -0.60360        0.94815
S         -1.92381       -0.74404       -0.50450
C         -3.09436        0.39956       -0.03663
N         -3.92080        1.19138        0.27081
H         -0.68613       -1.59165        1.40215
H         -1.26505        0.06637        1.66741
C          1.51067        2.03140       -0.43943
O          2.46956        2.08649        0.33871
N          2.85313       -0.88096       -0.12077
H          1.33250        2.78960       -1.21824
H          3.21931        0.02343        0.16185
H          3.45858       -1.61258       -0.46719
