18
ModifiedRes-opt-1-3-7-8-287.log	Energy: -567275.7647103
N          0.97246       -0.88655        0.75747
H          0.59461       -0.86176        1.67911
C          0.60520        0.16551       -0.17627
H          0.71680       -0.24501       -1.17048
C          1.54421        1.37435       -0.02950
O          1.19055        2.37807        0.52225
C         -0.83468        0.61387        0.04389
S         -1.95642       -0.82133       -0.17842
C         -3.44857        0.00181       -0.10163
N         -4.45593        0.52703       -0.05179
H         -0.96691        1.02792        1.03130
H         -1.09247        1.37242       -0.67819
C          1.91535       -1.80876        0.47469
O          2.53955       -1.84853       -0.54711
N          2.76350        1.19571       -0.56588
H          2.05882       -2.53374        1.27298
H          3.05539        0.30548       -0.90672
H          3.44636        1.90554       -0.41995
