18
ModifiedRes-sp-13-1-3-7-251.log	Energy: -567356.6583339
N          1.01955       -1.24140       -0.42243
H          0.33560       -1.91591       -0.75745
C          0.52938        0.15068       -0.59366
H          0.38827        0.27101       -1.67627
C          1.48575        1.31746       -0.14770
O          0.98251        2.39632        0.18163
C         -0.80941        0.42079        0.14877
S         -2.09942       -0.78587       -0.36673
C         -3.49358        0.00473        0.19876
N         -4.45322        0.55468        0.62387
H         -0.66818        0.33971        1.22925
H         -1.16297        1.42268       -0.10737
C          2.04862       -1.83116        0.26100
O          2.97791       -1.26742        0.84121
N          2.83371        1.20412       -0.24234
H          1.98475       -2.93193        0.22408
H          3.31729        0.32276       -0.15448
H          3.34782        2.03757        0.01042
