18
ModifiedRes-opt-3-1-13-14-055.log	Energy: -567275.7647348
N          0.97252       -0.88652        0.75763
H          0.59656       -0.86038        1.68002
C          0.60513        0.16548       -0.17620
H          0.71657       -0.24527       -1.17030
C          1.54430        1.37417       -0.02947
O          1.19130        2.37738        0.52366
C         -0.83470        0.61392        0.04406
S         -1.95647       -0.82138       -0.17730
C         -3.44855        0.00204       -0.10209
N         -4.45596        0.52728       -0.05335
H         -0.96672        1.02849        1.03127
H         -1.09264        1.37208       -0.67840
C          1.91560       -1.80857        0.47459
O          2.53891       -1.84874       -0.54771
N          2.76299        1.19598       -0.56734
H          2.06001       -2.53300        1.27323
H          3.05455        0.30599       -0.90906
H          3.44606        1.90565       -0.42157
