18
ModifiedRes-opt-13-1-3-7-308.log	Energy: -567272.3084898
N         -1.05764        1.14659       -0.74770
H         -0.88349        1.60230       -1.61560
C         -0.68316       -0.25264       -0.62804
H         -0.51928       -0.60311       -1.64105
C         -1.79898       -1.15223       -0.07465
O         -1.52261       -2.17693        0.47604
C          0.59676       -0.48474        0.17960
S          1.94973        0.50216       -0.57468
C          3.29380       -0.25546        0.14919
N          4.21114       -0.74096        0.61379
H          0.46816       -0.18504        1.20625
H          0.86101       -1.52741        0.13905
C         -1.32240        1.93169        0.32937
O         -1.44833        1.52203        1.44148
N         -3.06404       -0.78165       -0.36700
H         -1.43701        2.98388        0.07241
H         -3.27366        0.16028       -0.59921
H         -3.78623       -1.31373        0.06656
