
    -----------------------------------------------------------------------
          Psi4: An Open-Source Ab Initio Electronic Structure Package
                               Psi4 1.4a2.dev224 

                         Git: Rev {master} e453b16 


    R. M. Parrish, L. A. Burns, D. G. A. Smith, A. C. Simmonett,
    A. E. DePrince III, E. G. Hohenstein, U. Bozkaya, A. Yu. Sokolov,
    R. Di Remigio, R. M. Richard, J. F. Gonthier, A. M. James,
    H. R. McAlexander, A. Kumar, M. Saitow, X. Wang, B. P. Pritchard,
    P. Verma, H. F. Schaefer III, K. Patkowski, R. A. King, E. F. Valeev,
    F. A. Evangelista, J. M. Turney, T. D. Crawford, and C. D. Sherrill,
    J. Chem. Theory Comput. 13(7) pp 3185--3197 (2017).
    (doi: 10.1021/acs.jctc.7b00174)


                         Additional Contributions by
    P. Kraus, H. Kruse, M. H. Lechner, M. C. Schieber, R. A. Shaw,
    A. Alenaizan, R. Galvelis, Z. L. Glick, S. Lehtola, and J. P. Misiewicz

    -----------------------------------------------------------------------


    Psi4 started on: Wednesday, 08 January 2020 03:28PM

    Process ID: 69070
    Host:       node144.bme.utexas.edu
    PSIDATADIR: /home/liuchw/anaconda3/envs/psi4env/share/psi4
    Memory:     500.0 MiB
    Threads:    1
    
  ==> Input File <==

--------------------------------------------------------------------------
molecule { 
0 1
C         -0.47371        4.27503       -0.77187
C          0.87084        4.19244       -0.43065
C          1.54727        2.99041       -0.63159
C          0.82084        1.92625       -1.18243
N         -0.46815        1.98992       -1.51144
C         -1.09708        3.14998       -1.30056
C          2.96911        2.78932       -0.25382
C          3.90008        3.81935       -0.15464
C          5.18600        3.44690        0.23537
N          5.54537        2.19763        0.49695
C          4.57198        1.27516        0.35487
N          3.31198        1.52371       -0.00190
N          4.96076       -0.01077        0.61383
C          4.24521       -1.21694        0.49486
C          4.96913       -2.42652        0.47940
C          4.24867       -3.60943        0.33791
C          2.86290       -3.65084        0.19525
C          2.17146       -2.44338        0.21738
C          2.85964       -1.24338        0.39422
N          0.78490       -2.30552        0.03968
C         -0.15513       -3.23277       -0.33055
C         -1.47460       -2.60135       -0.67488
C         -1.54971       -1.35841       -1.31049
C         -2.78202       -0.77912       -1.57429
C         -3.96543       -1.41030       -1.19124
C         -3.88375       -2.67771       -0.60766
C         -2.65364       -3.27465       -0.35738
C         -5.30246       -0.70455       -1.34847
N         -5.69259        0.22593       -0.30001
C         -5.02549        1.52255       -0.24816
C         -3.81574        1.57764        0.70257
N         -4.11336        1.06917        2.03871
C         -4.90226        1.97855        2.85066
C         -4.67962       -0.27421        1.93997
C         -5.91455       -0.33999        1.02601
O          0.03689       -4.43661       -0.36416
C          6.47194       -2.44212        0.59879
H         -1.03315        5.19170       -0.61922
H          1.37594        5.04559        0.01306
H          1.32497        0.98089       -1.36624
H         -2.15207        3.17672       -1.56481
H          3.66108        4.85110       -0.38072
H          5.96756        4.19707        0.33808
H          5.94202       -0.07680        0.83961
H          4.79702       -4.54804        0.32434
H          2.33406       -4.58494        0.06432
H          2.31440       -0.31214        0.42006
H          0.44625       -1.35913        0.13117
H         -0.65324       -0.83345       -1.62738
H         -2.80990        0.19025       -2.06536
H         -4.79847       -3.19756       -0.33129
H         -2.59000       -4.25717        0.09963
H         -5.30814       -0.14953       -2.29438
H         -6.09480       -1.46039       -1.42276
H         -4.72347        1.80357       -1.26422
H         -5.76682        2.26792        0.07741
H         -3.45832        2.61151        0.79194
H         -2.99089        0.98223        0.29567
H         -5.91224        2.20611        2.46639
H         -4.36451        2.92792        2.95067
H         -5.01815        1.55190        3.85296
H         -4.93834       -0.62252        2.94729
H         -3.89774       -0.93786        1.55273
H         -6.74334        0.20860        1.49778
H         -6.24836       -1.37780        0.91525
H          6.81749       -2.03147        1.55741
H          6.95197       -1.86475       -0.20204
H          6.85243       -3.46459        0.53387
}
memory 100GB
set_num_threads(10)
psi4_io.set_default_path("/scratch/liuchw")
set freeze_core True
E, wfn = energy('mp2/6-311G**',return_wfn=True)
gdma(wfn)
fchk(wfn, "MOLECULE0-dma.fchk")
clean()
--------------------------------------------------------------------------

  Memory set to  93.132 GiB by Python driver.
  Threads set to 10 by Python driver.

Scratch directory: /scratch/liuchw/

Scratch directory: /scratch/liuchw/
    SCF Algorithm Type (re)set to DF.

*** tstart() called on node144.bme.utexas.edu
*** at Wed Jan  8 15:28:54 2020

   => Loading Basis Set <=

    Name: 6-311G**
    Role: ORBITAL
    Keyword: BASIS
    atoms 1-4, 6-9, 11, 14-19, 21-28, 30-31, 33-35, 37 entry C          line   113 file /home/liuchw/anaconda3/envs/psi4env/share/psi4/basis/6-311gss.gbs 
    atoms 5, 10, 12-13, 20, 29, 32                     entry N          line   132 file /home/liuchw/anaconda3/envs/psi4env/share/psi4/basis/6-311gss.gbs 
    atoms 36                                           entry O          line   151 file /home/liuchw/anaconda3/envs/psi4env/share/psi4/basis/6-311gss.gbs 
    atoms 38-68                                        entry H          line    32 file /home/liuchw/anaconda3/envs/psi4env/share/psi4/basis/6-311gss.gbs 


         ---------------------------------------------------------
                                   SCF
               by Justin Turney, Rob Parrish, Andy Simmonett
                          and Daniel G. A. Smith
                              RHF Reference
                       10 Threads,  95367 MiB Core
         ---------------------------------------------------------

  ==> Geometry <==

    Molecular point group: c1
    Full point group: C1

    Geometry (in Angstrom), charge = 0, multiplicity = 1:

       Center              X                  Y                   Z               Mass       
    ------------   -----------------  -----------------  -----------------  -----------------
         C           -0.535522433868     4.289266468258    -0.754722696836    12.000000000000
         C            0.809027566132     4.206676468258    -0.413502696836    12.000000000000
         C            1.485457566132     3.004646468258    -0.614442696836    12.000000000000
         C            0.759027566132     1.940486468258    -1.165282696836    12.000000000000
         N           -0.529962433868     2.004156468258    -1.494292696836    14.003074004430
         C           -1.158892433868     3.164216468258    -1.283412696836    12.000000000000
         C            2.907297566132     2.803556468258    -0.236672696836    12.000000000000
         C            3.838267566132     3.833586468258    -0.137492696836    12.000000000000
         C            5.124187566132     3.461136468258     0.252517303164    12.000000000000
         N            5.483557566132     2.211866468258     0.514097303164    14.003074004430
         C            4.510167566132     1.289396468258     0.372017303164    12.000000000000
         N            3.250167566132     1.537946468258     0.015247303164    14.003074004430
         N            4.898947566132     0.003466468258     0.630977303164    14.003074004430
         C            4.183397566132    -1.202703531742     0.512007303164    12.000000000000
         C            4.907317566132    -2.412283531742     0.496547303164    12.000000000000
         C            4.186857566132    -3.595193531742     0.355057303164    12.000000000000
         C            2.801087566132    -3.636603531742     0.212397303164    12.000000000000
         C            2.109647566132    -2.429143531742     0.234527303164    12.000000000000
         C            2.797827566132    -1.229143531742     0.411367303164    12.000000000000
         N            0.723087566132    -2.291283531742     0.056827303164    14.003074004430
         C           -0.216942433868    -3.218533531742    -0.313402696836    12.000000000000
         C           -1.536412433868    -2.587113531742    -0.657732696836    12.000000000000
         C           -1.611522433868    -1.344173531742    -1.293342696836    12.000000000000
         C           -2.843832433868    -0.764883531742    -1.557142696836    12.000000000000
         C           -4.027242433868    -1.396063531742    -1.174092696836    12.000000000000
         C           -3.945562433868    -2.663473531742    -0.590512696836    12.000000000000
         C           -2.715452433868    -3.260413531742    -0.340232696836    12.000000000000
         C           -5.364272433868    -0.690313531742    -1.331322696836    12.000000000000
         N           -5.754402433868     0.240166468258    -0.282862696836    14.003074004430
         C           -5.087302433868     1.536786468258    -0.231012696836    12.000000000000
         C           -3.877552433868     1.591876468258     0.719717303164    12.000000000000
         N           -4.175172433868     1.083406468258     2.055857303164    14.003074004430
         C           -4.964072433868     1.992786468258     2.867807303164    12.000000000000
         C           -4.741432433868    -0.259973531742     1.957117303164    12.000000000000
         C           -5.976362433868    -0.325753531742     1.043157303164    12.000000000000
         O           -0.024922433868    -4.422373531742    -0.347012696836    15.994914619570
         C            6.410127566132    -2.427883531742     0.615937303164    12.000000000000
         H           -1.094962433868     5.205936468258    -0.602072696836     1.007825032230
         H            1.314127566132     5.059826468258     0.030207303164     1.007825032230
         H            1.263157566132     0.995126468258    -1.349092696836     1.007825032230
         H           -2.213882433868     3.190956468258    -1.547662696836     1.007825032230
         H            3.599267566132     4.865336468258    -0.363572696836     1.007825032230
         H            5.905747566132     4.211306468258     0.355227303164     1.007825032230
         H            5.880207566132    -0.062563531742     0.856757303164     1.007825032230
         H            4.735207566132    -4.533803531742     0.341487303164     1.007825032230
         H            2.272247566132    -4.570703531742     0.081467303164     1.007825032230
         H            2.252587566132    -0.297903531742     0.437207303164     1.007825032230
         H            0.384437566132    -1.344893531742     0.148317303164     1.007825032230
         H           -0.715052433868    -0.819213531742    -1.610232696836     1.007825032230
         H           -2.871712433868     0.204486468258    -2.048212696836     1.007825032230
         H           -4.860282433868    -3.183323531742    -0.314142696836     1.007825032230
         H           -2.651812433868    -4.242933531742     0.116777303164     1.007825032230
         H           -5.369952433868    -0.135293531742    -2.277232696836     1.007825032230
         H           -6.156612433868    -1.446153531742    -1.405612696836     1.007825032230
         H           -4.785282433868     1.817806468258    -1.247072696836     1.007825032230
         H           -5.828632433868     2.282156468258     0.094557303164     1.007825032230
         H           -3.520132433868     2.625746468258     0.809087303164     1.007825032230
         H           -3.052702433868     0.996466468258     0.312817303164     1.007825032230
         H           -5.974052433868     2.220346468258     2.483537303164     1.007825032230
         H           -4.426322433868     2.942156468258     2.967817303164     1.007825032230
         H           -5.079962433868     1.566136468258     3.870107303164     1.007825032230
         H           -5.000152433868    -0.608283531742     2.964437303164     1.007825032230
         H           -3.959552433868    -0.923623531742     1.569877303164     1.007825032230
         H           -6.805152433868     0.222836468258     1.514927303164     1.007825032230
         H           -6.310172433868    -1.363563531742     0.932397303164     1.007825032230
         H            6.755677566132    -2.017233531742     1.574557303164     1.007825032230
         H            6.890157566132    -1.850513531742    -0.184892696836     1.007825032230
         H            6.790617566132    -3.450353531742     0.551017303164     1.007825032230

  Running in c1 symmetry.

  Rotational constants: A =      0.00470  B =      0.00222  C =      0.00166 [cm^-1]
  Rotational constants: A =    140.90297  B =     66.57784  C =     49.69944 [MHz]
  Nuclear repulsion = 3895.117956314546518

  Charge       = 0
  Multiplicity = 1
  Electrons    = 262
  Nalpha       = 131
  Nbeta        = 131

  ==> Algorithm <==

  SCF Algorithm Type is DF.
  DIIS enabled.
  MOM disabled.
  Fractional occupation disabled.
  Guess Type is SAD.
  Energy threshold   = 1.00e-08
  Density threshold  = 1.00e-08
  Integral threshold = 0.00e+00

  ==> Primary Basis <==

  Basis Set: 6-311G**
    Blend: 6-311G**
    Number of shells: 420
    Number of basis function: 852
    Number of Cartesian functions: 889
    Spherical Harmonics?: true
    Max angular momentum: 2

   => Loading Basis Set <=

    Name: (6-311G** AUX)
    Role: JKFIT
    Keyword: DF_BASIS_SCF
    atoms 1-4, 6-9, 11, 14-19, 21-28, 30-31, 33-35, 37 entry C          line   125 file /home/liuchw/anaconda3/envs/psi4env/share/psi4/basis/cc-pvtz-jkfit.gbs 
    atoms 5, 10, 12-13, 20, 29, 32                     entry N          line   177 file /home/liuchw/anaconda3/envs/psi4env/share/psi4/basis/cc-pvtz-jkfit.gbs 
    atoms 36                                           entry O          line   229 file /home/liuchw/anaconda3/envs/psi4env/share/psi4/basis/cc-pvtz-jkfit.gbs 
    atoms 38-68                                        entry H          line    51 file /home/liuchw/anaconda3/envs/psi4env/share/psi4/basis/cc-pvtz-jkfit.gbs 

  ==> Pre-Iterations <==

   -------------------------------------------------------
    Irrep   Nso     Nmo     Nalpha   Nbeta   Ndocc  Nsocc
   -------------------------------------------------------
     A        852     852       0       0       0       0
   -------------------------------------------------------
    Total     852     852     131     131     131       0
   -------------------------------------------------------

  ==> Integral Setup <==

  DFHelper Memory: AOs need 10.701 GiB; user supplied 69.849 GiB. Using in-core AOs.

  ==> MemDFJK: Density-Fitted J/K Matrices <==

    J tasked:                   Yes
    K tasked:                   Yes
    wK tasked:                   No
    OpenMP threads:              10
    Memory [MiB]:             71525
    Algorithm:                 Core
    Schwarz Cutoff:           1E-12
    Mask sparsity (%):      50.1416
    Fitting Condition:        1E-10

   => Auxiliary Basis Set <=

  Basis Set: (6-311G** AUX)
    Blend: CC-PVTZ-JKFIT
    Number of shells: 1235
    Number of basis function: 3853
    Number of Cartesian functions: 4637
    Spherical Harmonics?: true
    Max angular momentum: 4

  Minimum eigenvalue in the overlap matrix is 1.3304432580E-04.
  Using Symmetric Orthogonalization.

  SCF Guess: Superposition of Atomic Densities via on-the-fly atomic UHF.

  ==> Iterations <==

                           Total Energy        Delta E     RMS |[F,P]|

   @DF-RHF iter SAD: -1572.42470234572284   -1.57242e+03   0.00000e+00 
   @DF-RHF iter   1: -1571.83093615378721    5.93766e-01   1.29400e-03 DIIS
   @DF-RHF iter   2: -1572.44467652050344   -6.13740e-01   6.31646e-04 DIIS
   @DF-RHF iter   3: -1572.56417067569782   -1.19494e-01   1.91377e-04 DIIS
   @DF-RHF iter   4: -1572.57832441354662   -1.41537e-02   7.18530e-05 DIIS
   @DF-RHF iter   5: -1572.58025621897650   -1.93181e-03   1.41532e-05 DIIS
   @DF-RHF iter   6: -1572.58037333646053   -1.17117e-04   5.75858e-06 DIIS
   @DF-RHF iter   7: -1572.58039713203584   -2.37956e-05   2.21473e-06 DIIS
   @DF-RHF iter   8: -1572.58040180904391   -4.67701e-06   9.43155e-07 DIIS
   @DF-RHF iter   9: -1572.58040284323056   -1.03419e-06   4.12341e-07 DIIS
   @DF-RHF iter  10: -1572.58040306386943   -2.20639e-07   1.62456e-07 DIIS
   @DF-RHF iter  11: -1572.58040310324350   -3.93741e-08   7.67920e-08 DIIS
   @DF-RHF iter  12: -1572.58040311155287   -8.30937e-09   3.13190e-08 DIIS
   @DF-RHF iter  13: -1572.58040311319337   -1.64050e-09   1.45433e-08 DIIS
   @DF-RHF iter  14: -1572.58040311345667   -2.63299e-10   6.55277e-09 DIIS
  Energy and wave function converged.


  ==> Post-Iterations <==

    Orbital Energies [Eh]
    ---------------------

    Doubly Occupied:                                                      

       1A    -20.514368     2A    -15.597264     3A    -15.590662  
       4A    -15.582635     5A    -15.568588     6A    -15.564412  
       7A    -15.537433     8A    -15.534105     9A    -11.368419  
      10A    -11.354738    11A    -11.323283    12A    -11.309612  
      13A    -11.296572    14A    -11.294709    15A    -11.285271  
      16A    -11.282337    17A    -11.278803    18A    -11.269629  
      19A    -11.260782    20A    -11.259519    21A    -11.248151  
      22A    -11.245642    23A    -11.244511    24A    -11.244500  
      25A    -11.243680    26A    -11.242975    27A    -11.241811  
      28A    -11.240209    29A    -11.239852    30A    -11.237858  
      31A    -11.236193    32A    -11.233910    33A    -11.231818  
      34A    -11.230091    35A    -11.229753    36A    -11.215940  
      37A    -11.212413    38A     -1.381319    39A     -1.349812  
      40A     -1.282539    41A     -1.256685    42A     -1.250502  
      43A     -1.248255    44A     -1.213411    45A     -1.200679  
      46A     -1.161644    47A     -1.138887    48A     -1.119823  
      49A     -1.077066    50A     -1.059268    51A     -1.048718  
      52A     -1.034688    53A     -1.024192    54A     -1.017961  
      55A     -1.004692    56A     -0.978464    57A     -0.946502  
      58A     -0.927891    59A     -0.926358    60A     -0.902509  
      61A     -0.874913    62A     -0.867710    63A     -0.866470  
      64A     -0.858098    65A     -0.839421    66A     -0.834616  
      67A     -0.823528    68A     -0.803284    69A     -0.777173  
      70A     -0.757001    71A     -0.746525    72A     -0.738535  
      73A     -0.728997    74A     -0.720852    75A     -0.698878  
      76A     -0.683541    77A     -0.675586    78A     -0.670347  
      79A     -0.658652    80A     -0.655098    81A     -0.647910  
      82A     -0.643675    83A     -0.635714    84A     -0.633030  
      85A     -0.627823    86A     -0.623287    87A     -0.621925  
      88A     -0.614070    89A     -0.611321    90A     -0.609067  
      91A     -0.605406    92A     -0.600165    93A     -0.598120  
      94A     -0.593866    95A     -0.589411    96A     -0.583063  
      97A     -0.578673    98A     -0.575196    99A     -0.565235  
     100A     -0.563560   101A     -0.544376   102A     -0.544079  
     103A     -0.535773   104A     -0.535065   105A     -0.526341  
     106A     -0.522704   107A     -0.517056   108A     -0.515304  
     109A     -0.513725   110A     -0.506446   111A     -0.505862  
     112A     -0.493008   113A     -0.482294   114A     -0.481167  
     115A     -0.477551   116A     -0.468673   117A     -0.464727  
     118A     -0.451459   119A     -0.440873   120A     -0.423492  
     121A     -0.420481   122A     -0.413794   123A     -0.400865  
     124A     -0.382043   125A     -0.373045   126A     -0.346319  
     127A     -0.341598   128A     -0.337820   129A     -0.309020  
     130A     -0.305678   131A     -0.282919  

    Virtual:                                                              

     132A      0.056922   133A      0.088727   134A      0.096901  
     135A      0.113298   136A      0.121632   137A      0.133848  
     138A      0.139144   139A      0.148003   140A      0.148516  
     141A      0.158525   142A      0.160997   143A      0.165022  
     144A      0.168576   145A      0.174427   146A      0.176453  
     147A      0.184418   148A      0.189446   149A      0.194832  
     150A      0.201241   151A      0.203554   152A      0.211678  
     153A      0.217010   154A      0.225036   155A      0.227362  
     156A      0.228710   157A      0.230814   158A      0.239522  
     159A      0.241724   160A      0.250683   161A      0.253131  
     162A      0.254637   163A      0.261183   164A      0.269796  
     165A      0.270285   166A      0.283139   167A      0.289912  
     168A      0.291101   169A      0.299741   170A      0.304303  
     171A      0.313597   172A      0.320810   173A      0.328418  
     174A      0.340120   175A      0.344784   176A      0.346834  
     177A      0.350213   178A      0.360790   179A      0.367837  
     180A      0.373844   181A      0.377576   182A      0.383623  
     183A      0.386603   184A      0.388653   185A      0.394652  
     186A      0.401686   187A      0.409222   188A      0.417219  
     189A      0.419398   190A      0.422603   191A      0.428538  
     192A      0.433315   193A      0.439758   194A      0.445554  
     195A      0.447017   196A      0.449559   197A      0.451904  
     198A      0.454224   199A      0.459215   200A      0.464411  
     201A      0.467407   202A      0.468572   203A      0.476378  
     204A      0.478376   205A      0.488043   206A      0.493653  
     207A      0.497657   208A      0.499414   209A      0.503985  
     210A      0.509656   211A      0.516271   212A      0.525438  
     213A      0.527368   214A      0.530547   215A      0.537716  
     216A      0.543540   217A      0.545011   218A      0.550602  
     219A      0.553528   220A      0.555813   221A      0.556478  
     222A      0.560749   223A      0.563407   224A      0.569176  
     225A      0.570923   226A      0.574369   227A      0.581954  
     228A      0.586511   229A      0.588677   230A      0.593035  
     231A      0.597450   232A      0.599428   233A      0.603008  
     234A      0.610155   235A      0.613860   236A      0.617328  
     237A      0.622321   238A      0.624875   239A      0.629562  
     240A      0.633777   241A      0.638901   242A      0.643998  
     243A      0.647816   244A      0.654719   245A      0.657013  
     246A      0.658717   247A      0.665833   248A      0.667969  
     249A      0.669879   250A      0.670545   251A      0.675665  
     252A      0.681934   253A      0.689784   254A      0.697640  
     255A      0.699039   256A      0.701825   257A      0.707278  
     258A      0.716215   259A      0.717354   260A      0.721214  
     261A      0.726639   262A      0.728564   263A      0.732314  
     264A      0.736990   265A      0.739201   266A      0.745568  
     267A      0.748392   268A      0.754396   269A      0.759218  
     270A      0.763358   271A      0.766078   272A      0.770236  
     273A      0.775358   274A      0.776787   275A      0.779681  
     276A      0.781468   277A      0.782186   278A      0.786841  
     279A      0.790694   280A      0.795380   281A      0.800107  
     282A      0.804509   283A      0.806190   284A      0.809145  
     285A      0.810225   286A      0.810903   287A      0.816029  
     288A      0.816687   289A      0.820707   290A      0.827238  
     291A      0.830966   292A      0.831532   293A      0.837168  
     294A      0.838311   295A      0.843325   296A      0.851004  
     297A      0.854977   298A      0.858965   299A      0.859686  
     300A      0.869182   301A      0.870926   302A      0.871438  
     303A      0.876871   304A      0.882446   305A      0.886294  
     306A      0.895746   307A      0.899945   308A      0.900620  
     309A      0.910001   310A      0.911736   311A      0.915509  
     312A      0.919742   313A      0.924535   314A      0.932822  
     315A      0.933627   316A      0.943244   317A      0.947622  
     318A      0.950634   319A      0.955068   320A      0.959140  
     321A      0.964142   322A      0.971937   323A      0.974198  
     324A      0.981313   325A      0.983765   326A      0.992785  
     327A      1.002298   328A      1.005488   329A      1.006309  
     330A      1.016811   331A      1.021630   332A      1.022899  
     333A      1.027219   334A      1.032117   335A      1.037502  
     336A      1.041095   337A      1.046639   338A      1.053103  
     339A      1.059357   340A      1.066231   341A      1.067826  
     342A      1.070646   343A      1.075242   344A      1.081217  
     345A      1.090491   346A      1.093127   347A      1.095586  
     348A      1.099753   349A      1.102363   350A      1.116505  
     351A      1.121480   352A      1.128048   353A      1.132719  
     354A      1.137907   355A      1.141043   356A      1.152918  
     357A      1.161078   358A      1.165406   359A      1.170356  
     360A      1.171053   361A      1.181150   362A      1.189314  
     363A      1.192004   364A      1.192970   365A      1.202558  
     366A      1.208171   367A      1.211315   368A      1.214903  
     369A      1.230020   370A      1.231135   371A      1.241343  
     372A      1.245980   373A      1.248313   374A      1.254661  
     375A      1.259059   376A      1.267127   377A      1.273266  
     378A      1.278275   379A      1.284502   380A      1.293354  
     381A      1.298127   382A      1.299750   383A      1.306392  
     384A      1.312342   385A      1.314743   386A      1.326819  
     387A      1.331232   388A      1.334775   389A      1.339098  
     390A      1.348864   391A      1.353609   392A      1.359249  
     393A      1.363133   394A      1.375846   395A      1.384796  
     396A      1.391448   397A      1.399977   398A      1.409956  
     399A      1.422110   400A      1.423775   401A      1.429730  
     402A      1.434860   403A      1.445224   404A      1.451260  
     405A      1.455272   406A      1.462434   407A      1.472667  
     408A      1.481973   409A      1.487777   410A      1.493682  
     411A      1.501388   412A      1.518079   413A      1.524590  
     414A      1.529393   415A      1.532527   416A      1.540108  
     417A      1.549703   418A      1.559372   419A      1.574751  
     420A      1.584918   421A      1.600906   422A      1.601548  
     423A      1.607396   424A      1.612598   425A      1.621709  
     426A      1.637481   427A      1.645026   428A      1.654209  
     429A      1.669749   430A      1.677473   431A      1.689948  
     432A      1.698152   433A      1.700100   434A      1.711203  
     435A      1.718785   436A      1.719661   437A      1.721837  
     438A      1.724978   439A      1.732704   440A      1.737570  
     441A      1.743551   442A      1.755943   443A      1.758073  
     444A      1.760690   445A      1.765721   446A      1.772016  
     447A      1.777743   448A      1.784793   449A      1.790124  
     450A      1.796046   451A      1.800160   452A      1.803710  
     453A      1.805100   454A      1.807146   455A      1.811734  
     456A      1.817133   457A      1.818860   458A      1.823720  
     459A      1.828740   460A      1.833028   461A      1.836801  
     462A      1.839764   463A      1.842203   464A      1.849917  
     465A      1.855132   466A      1.858981   467A      1.864203  
     468A      1.869834   469A      1.873523   470A      1.877940  
     471A      1.880284   472A      1.891890   473A      1.896893  
     474A      1.901616   475A      1.908147   476A      1.910142  
     477A      1.916417   478A      1.919951   479A      1.924706  
     480A      1.925238   481A      1.932249   482A      1.937610  
     483A      1.939107   484A      1.945038   485A      1.956087  
     486A      1.957788   487A      1.960921   488A      1.963132  
     489A      1.966552   490A      1.974976   491A      1.979916  
     492A      1.983768   493A      1.989849   494A      1.993456  
     495A      1.994952   496A      1.999197   497A      2.006292  
     498A      2.010778   499A      2.014601   500A      2.018776  
     501A      2.025947   502A      2.029157   503A      2.034139  
     504A      2.037290   505A      2.046095   506A      2.048039  
     507A      2.053209   508A      2.054994   509A      2.060478  
     510A      2.064452   511A      2.071263   512A      2.076477  
     513A      2.077832   514A      2.081729   515A      2.096723  
     516A      2.102895   517A      2.114195   518A      2.125302  
     519A      2.135690   520A      2.137317   521A      2.150825  
     522A      2.158016   523A      2.163424   524A      2.166184  
     525A      2.174187   526A      2.177172   527A      2.184765  
     528A      2.186580   529A      2.198295   530A      2.205274  
     531A      2.217559   532A      2.221687   533A      2.223544  
     534A      2.232557   535A      2.234760   536A      2.239399  
     537A      2.243353   538A      2.252134   539A      2.255095  
     540A      2.260782   541A      2.263798   542A      2.268905  
     543A      2.270606   544A      2.279481   545A      2.287144  
     546A      2.287765   547A      2.295852   548A      2.307849  
     549A      2.308289   550A      2.311386   551A      2.316405  
     552A      2.327376   553A      2.339099   554A      2.360744  
     555A      2.363038   556A      2.369326   557A      2.371084  
     558A      2.375597   559A      2.380450   560A      2.384074  
     561A      2.390814   562A      2.392633   563A      2.404094  
     564A      2.407946   565A      2.409800   566A      2.430686  
     567A      2.435502   568A      2.448784   569A      2.456846  
     570A      2.460691   571A      2.471593   572A      2.474537  
     573A      2.488732   574A      2.501058   575A      2.507917  
     576A      2.520715   577A      2.523882   578A      2.530460  
     579A      2.539357   580A      2.546034   581A      2.559374  
     582A      2.563336   583A      2.576948   584A      2.591021  
     585A      2.607104   586A      2.611311   587A      2.621972  
     588A      2.638129   589A      2.643965   590A      2.650620  
     591A      2.653037   592A      2.660580   593A      2.665902  
     594A      2.668777   595A      2.674919   596A      2.682072  
     597A      2.691526   598A      2.692407   599A      2.698117  
     600A      2.702599   601A      2.710356   602A      2.712399  
     603A      2.737406   604A      2.741437   605A      2.744352  
     606A      2.746019   607A      2.759065   608A      2.762594  
     609A      2.774616   610A      2.778818   611A      2.782358  
     612A      2.797104   613A      2.807521   614A      2.812814  
     615A      2.816303   616A      2.822783   617A      2.828617  
     618A      2.831099   619A      2.834772   620A      2.842985  
     621A      2.854842   622A      2.861929   623A      2.867290  
     624A      2.877313   625A      2.884689   626A      2.896763  
     627A      2.898073   628A      2.903869   629A      2.907406  
     630A      2.911118   631A      2.914772   632A      2.919519  
     633A      2.922599   634A      2.929314   635A      2.934864  
     636A      2.938715   637A      2.946584   638A      2.949000  
     639A      2.951193   640A      2.952702   641A      2.957989  
     642A      2.965395   643A      2.966691   644A      2.969563  
     645A      2.977922   646A      2.980793   647A      2.983717  
     648A      2.989682   649A      2.998122   650A      3.001235  
     651A      3.005209   652A      3.013810   653A      3.023034  
     654A      3.024669   655A      3.031859   656A      3.039569  
     657A      3.044062   658A      3.047841   659A      3.050531  
     660A      3.057427   661A      3.060400   662A      3.063490  
     663A      3.071697   664A      3.084179   665A      3.089051  
     666A      3.099098   667A      3.105523   668A      3.109851  
     669A      3.116414   670A      3.123243   671A      3.127559  
     672A      3.134680   673A      3.142371   674A      3.149902  
     675A      3.152343   676A      3.157325   677A      3.177724  
     678A      3.179069   679A      3.186832   680A      3.192557  
     681A      3.199152   682A      3.209513   683A      3.220142  
     684A      3.228196   685A      3.230683   686A      3.244130  
     687A      3.248336   688A      3.254682   689A      3.258128  
     690A      3.268217   691A      3.271605   692A      3.276276  
     693A      3.277295   694A      3.289665   695A      3.297278  
     696A      3.301606   697A      3.305690   698A      3.308258  
     699A      3.310546   700A      3.313360   701A      3.317611  
     702A      3.323757   703A      3.328883   704A      3.339129  
     705A      3.346244   706A      3.355491   707A      3.370639  
     708A      3.377695   709A      3.387831   710A      3.394481  
     711A      3.403290   712A      3.436925   713A      3.460215  
     714A      3.461562   715A      3.497375   716A      3.515095  
     717A      3.532592   718A      3.570185   719A      3.596908  
     720A      3.606028   721A      3.617604   722A      3.622102  
     723A      3.625979   724A      3.639360   725A      3.655575  
     726A      3.661602   727A      3.673380   728A      3.698078  
     729A      3.734484   730A      3.751117   731A      3.757812  
     732A      3.791824   733A      3.804101   734A      3.817455  
     735A      3.821601   736A      3.829855   737A      3.837796  
     738A      3.849525   739A      3.858110   740A      3.889670  
     741A      3.893269   742A      3.919098   743A      3.934924  
     744A      3.936319   745A      3.956464   746A      3.963338  
     747A      3.976649   748A      3.979398   749A      3.984469  
     750A      4.000126   751A      4.009460   752A      4.023354  
     753A      4.033102   754A      4.052782   755A      4.067554  
     756A      4.076138   757A      4.093267   758A      4.103220  
     759A      4.131521   760A      4.151361   761A      4.155523  
     762A      4.160477   763A      4.178026   764A      4.208301  
     765A      4.213242   766A      4.221586   767A      4.233135  
     768A      4.249599   769A      4.257105   770A      4.270597  
     771A      4.287421   772A      4.294412   773A      4.314690  
     774A      4.324720   775A      4.336203   776A      4.349981  
     777A      4.354047   778A      4.370691   779A      4.396087  
     780A      4.406516   781A      4.413416   782A      4.472179  
     783A      4.517673   784A      4.528140   785A      4.562800  
     786A      4.565145   787A      4.570138   788A      4.580742  
     789A      4.591991   790A      4.612351   791A      4.652710  
     792A      4.701759   793A      4.728857   794A      4.754004  
     795A      4.780479   796A      4.830694   797A      4.860981  
     798A      4.965680   799A      4.986029   800A      5.255191  
     801A      5.282764   802A      5.303488   803A      5.355311  
     804A      5.375456   805A      5.396183   806A      5.417086  
     807A      5.429975   808A      5.470233   809A      5.519047  
     810A      5.603449   811A      5.694809   812A      5.719708  
     813A      5.770205   814A      5.832194   815A      6.264999  
     816A     24.655074   817A     24.710936   818A     24.754262  
     819A     24.913732   820A     24.955553   821A     24.990408  
     822A     25.001071   823A     25.001917   824A     25.032960  
     825A     25.049899   826A     25.056700   827A     25.075354  
     828A     25.080285   829A     25.082709   830A     25.089070  
     831A     25.098881   832A     25.101562   833A     25.103032  
     834A     25.113483   835A     25.133356   836A     25.204340  
     837A     25.229707   838A     25.231442   839A     25.258171  
     840A     25.277373   841A     25.279540   842A     25.284626  
     843A     25.354949   844A     25.356781   845A     36.959466  
     846A     36.973318   847A     37.021783   848A     37.047377  
     849A     37.049061   850A     37.107302   851A     37.124538  
     852A     51.730189  

    Final Occupation by Irrep:
              A 
    DOCC [   131 ]

  @DF-RHF Final Energy: -1572.58040311345667

   => Energetics <=

    Nuclear Repulsion Energy =           3895.1179563145465181
    One-Electron Energy =               -9889.5815281797604257
    Two-Electron Energy =                4421.8831687517567843
    Total Energy =                      -1572.5804031134566685

Computation Completed


Properties will be evaluated at   0.000000,   0.000000,   0.000000 [a0]

Properties computed using the SCF density matrix

  Nuclear Dipole Moment: [e a0]
     X:   -30.6038      Y:     7.0486      Z:     8.4901

  Electronic Dipole Moment: [e a0]
     X:    30.6259      Y:    -4.1703      Z:    -8.3644

  Dipole Moment: [e a0]
     X:     0.0221      Y:     2.8783      Z:     0.1257     Total:     2.8811

  Dipole Moment: [D]
     X:     0.0561      Y:     7.3159      Z:     0.3195     Total:     7.3231


*** tstop() called on node144.bme.utexas.edu at Wed Jan  8 15:31:28 2020
Module time:
	user time   =    1462.42 seconds =      24.37 minutes
	system time =      22.95 seconds =       0.38 minutes
	total time  =        154 seconds =       2.57 minutes
Total time:
	user time   =    1462.42 seconds =      24.37 minutes
	system time =      22.95 seconds =       0.38 minutes
	total time  =        154 seconds =       2.57 minutes

*** tstart() called on node144.bme.utexas.edu
*** at Wed Jan  8 15:31:28 2020


  //>>>>>>>>>>>>>>>>>>>>>>>>>>>>>>>>>>>//
  //               DFMP2               //
  //<<<<<<<<<<<<<<<<<<<<<<<<<<<<<<<<<<<//

   => Loading Basis Set <=

    Name: (6-311G** AUX)
    Role: RIFIT
    Keyword: DF_BASIS_MP2
    atoms 1-4, 6-9, 11, 14-19, 21-28, 30-31, 33-35, 37 entry C          line   209 file /home/liuchw/anaconda3/envs/psi4env/share/psi4/basis/cc-pvtz-ri.gbs 
    atoms 5, 10, 12-13, 20, 29, 32                     entry N          line   257 file /home/liuchw/anaconda3/envs/psi4env/share/psi4/basis/cc-pvtz-ri.gbs 
    atoms 36                                           entry O          line   305 file /home/liuchw/anaconda3/envs/psi4env/share/psi4/basis/cc-pvtz-ri.gbs 
    atoms 38-68                                        entry H          line    19 file /home/liuchw/anaconda3/envs/psi4env/share/psi4/basis/cc-pvtz-ri.gbs 

	 --------------------------------------------------------
	                          DF-MP2                         
	      2nd-Order Density-Fitted Moller-Plesset Theory     
	              RMP2 Wavefunction,  10 Threads             
	                                                         
	        Rob Parrish, Justin Turney, Andy Simmonett,      
	           Ed Hohenstein, and C. David Sherrill          
	 --------------------------------------------------------

   => Auxiliary Basis Set <=

  Basis Set: (6-311G** AUX)
    Blend: CC-PVTZ-RI
    Number of shells: 1161
    Number of basis function: 3927
    Number of Cartesian functions: 4822
    Spherical Harmonics?: true
    Max angular momentum: 4

	 --------------------------------------------------------
	                 NBF =   852, NAUX =  3927
	 --------------------------------------------------------
	   CLASS    FOCC     OCC    AOCC    AVIR     VIR    FVIR
	   PAIRS      37     131      94     721     721       0
	 --------------------------------------------------------

	-----------------------------------------------------------
	 ==================> DF-MP2 Energies <==================== 
	-----------------------------------------------------------
	 Reference Energy          =   -1572.5804031134566685 [Eh]
	 Singles Energy            =      -0.0000000000000000 [Eh]
	 Same-Spin Energy          =      -1.4571447581567967 [Eh]
	 Opposite-Spin Energy      =      -3.9868583842006053 [Eh]
	 Correlation Energy        =      -5.4440031423574018 [Eh]
	 Total Energy              =   -1578.0244062558140286 [Eh]
	-----------------------------------------------------------
	 ================> DF-SCS-MP2 Energies <================== 
	-----------------------------------------------------------
	 SCS Same-Spin Scale       =       0.3333333333333333 [-]
	 SCS Opposite-Spin Scale   =       1.2000000000000000 [-]
	 SCS Same-Spin Energy      =      -0.4857149193855989 [Eh]
	 SCS Opposite-Spin Energy  =      -4.7842300610407262 [Eh]
	 SCS Correlation Energy    =      -5.2699449804263248 [Eh]
	 SCS Total Energy          =   -1577.8503480938829853 [Eh]
	-----------------------------------------------------------


*** tstop() called on node144.bme.utexas.edu at Wed Jan  8 15:34:12 2020
Module time:
	user time   =    1439.47 seconds =      23.99 minutes
	system time =      15.59 seconds =       0.26 minutes
	total time  =        164 seconds =       2.73 minutes
Total time:
	user time   =    2901.90 seconds =      48.37 minutes
	system time =      38.54 seconds =       0.64 minutes
	total time  =        318 seconds =       5.30 minutes
                                     G D M A

                                 by Anthony Stone

                           version 2.2.06, 22 June 2011

               Distributed Multipoles from Gaussian wavefunctions


Starting at 15:34:13 on 8 Jan 2020  


Using CC density matrix from file MOLECULE0-dma.default.69070.fchk


                         Distributed Multipole Analysis

Standard DMA for products of primitives with exponent greater than 4.00000
Using 80-point Euler-MacLaurin radial quadrature
Using 590-point Lebedev quadrature
Becke smoothing parameter = 3

Positions and radii in angstrom
Multipole moments in atomic units, ea_0^k for rank k

C          x = -0.535522  y =  4.289266  z = -0.754723 angstrom
           Maximum rank =  2   Radius =  0.650 angstrom
                   Q00  =  -0.090848
|Q1| =   0.144847  Q10  =  -0.022243  Q11c =   0.075522  Q11s =  -0.121583
|Q2| =   1.290815  Q20  =  -1.010377  Q21c =   0.508411  Q21s =   0.585371
                   Q22c =  -0.016505  Q22s =  -0.209586

C          x =  0.809028  y =  4.206676  z = -0.413503 angstrom
           Maximum rank =  2   Radius =  0.650 angstrom
                   Q00  =  -0.022485
|Q1| =   0.141880  Q10  =  -0.028130  Q11c =  -0.028813  Q11s =  -0.136046
|Q2| =   1.141972  Q20  =  -0.858255  Q21c =   0.487117  Q21s =   0.542522
                   Q22c =   0.015223  Q22s =  -0.188821

C          x =  1.485458  y =  3.004646  z = -0.614443 angstrom
           Maximum rank =  2   Radius =  0.650 angstrom
                   Q00  =  -0.058084
|Q1| =   0.047465  Q10  =   0.015008  Q11c =  -0.000798  Q11s =  -0.045022
|Q2| =   1.312884  Q20  =  -1.016754  Q21c =   0.597048  Q21s =   0.498702
                   Q22c =   0.135960  Q22s =  -0.257331

C          x =  0.759028  y =  1.940486  z = -1.165283 angstrom
           Maximum rank =  2   Radius =  0.650 angstrom
                   Q00  =   0.066095
|Q1| =   0.133004  Q10  =  -0.005669  Q11c =  -0.068612  Q11s =   0.113800
|Q2| =   1.046033  Q20  =  -0.751128  Q21c =   0.458345  Q21s =   0.528176
                   Q22c =   0.190385  Q22s =  -0.068524

N          x = -0.529962  y =  2.004156  z = -1.494293 angstrom
           Maximum rank =  2   Radius =  0.650 angstrom
                   Q00  =  -0.345499
|Q1| =   0.716480  Q10  =   0.240328  Q11c =   0.361112  Q11s =   0.570249
|Q2| =   1.099789  Q20  =  -0.547997  Q21c =   0.150598  Q21s =   0.037942
                   Q22c =   0.377844  Q22s =  -0.861597

C          x = -1.158892  y =  3.164216  z = -1.283413 angstrom
           Maximum rank =  2   Radius =  0.650 angstrom
                   Q00  =   0.037645
|Q1| =   0.187304  Q10  =  -0.038883  Q11c =   0.158308  Q11s =  -0.092247
|Q2| =   1.089510  Q20  =  -0.808320  Q21c =   0.524452  Q21s =   0.497056
                   Q22c =  -0.025328  Q22s =  -0.104380

C          x =  2.907298  y =  2.803556  z = -0.236673 angstrom
           Maximum rank =  2   Radius =  0.650 angstrom
                   Q00  =   0.114105
|Q1| =   0.125852  Q10  =   0.015423  Q11c =  -0.005941  Q11s =  -0.124762
|Q2| =   0.973059  Q20  =  -0.860538  Q21c =   0.412917  Q21s =  -0.168578
                   Q22c =   0.064114  Q22s =   0.057352

C          x =  3.838268  y =  3.833586  z = -0.137493 angstrom
           Maximum rank =  2   Radius =  0.650 angstrom
                   Q00  =  -0.141488
|Q1| =   0.185769  Q10  =   0.007667  Q11c =   0.012688  Q11s =  -0.185177
|Q2| =   1.465327  Q20  =  -1.262698  Q21c =   0.629472  Q21s =  -0.360658
                   Q22c =  -0.073883  Q22s =   0.144943

C          x =  5.124188  y =  3.461136  z =  0.252517 angstrom
           Maximum rank =  2   Radius =  0.650 angstrom
                   Q00  =   0.103505
|Q1| =   0.146259  Q10  =   0.013799  Q11c =  -0.018156  Q11s =  -0.144470
|Q2| =   0.865870  Q20  =  -0.759970  Q21c =   0.370463  Q21s =  -0.172681
                   Q22c =   0.008907  Q22s =   0.070959

N          x =  5.483558  y =  2.211866  z =  0.514097 angstrom
           Maximum rank =  2   Radius =  0.650 angstrom
                   Q00  =  -0.342304
|Q1| =   0.669634  Q10  =  -0.182879  Q11c =  -0.632287  Q11s =   0.123199
|Q2| =   1.165033  Q20  =  -0.702222  Q21c =   0.071505  Q21s =  -0.133811
                   Q22c =  -0.770755  Q22s =   0.497095

C          x =  4.510168  y =  1.289396  z =  0.372017 angstrom
           Maximum rank =  2   Radius =  0.650 angstrom
                   Q00  =   0.265705
|Q1| =   0.046029  Q10  =  -0.001122  Q11c =  -0.028582  Q11s =  -0.036062
|Q2| =   0.746799  Q20  =  -0.663807  Q21c =   0.303240  Q21s =  -0.139231
                   Q22c =  -0.058723  Q22s =   0.047766

N          x =  3.250168  y =  1.537946  z =  0.015247 angstrom
           Maximum rank =  2   Radius =  0.650 angstrom
                   Q00  =  -0.394806
|Q1| =   0.700466  Q10  =   0.071519  Q11c =   0.484696  Q11s =   0.500607
|Q2| =   1.426274  Q20  =  -0.763026  Q21c =   0.454792  Q21s =  -0.467542
                   Q22c =  -0.001748  Q22s =  -1.013220

N          x =  4.898948  y =  0.003466  z =  0.630977 angstrom
           Maximum rank =  2   Radius =  0.650 angstrom
                   Q00  =  -0.219432
|Q1| =   0.092947  Q10  =  -0.048297  Q11c =  -0.067814  Q11s =   0.041325
|Q2| =   1.484190  Q20  =  -1.314372  Q21c =   0.567710  Q21s =  -0.216768
                   Q22c =  -0.289774  Q22s =   0.148304

C          x =  4.183398  y = -1.202704  z =  0.512007 angstrom
           Maximum rank =  2   Radius =  0.650 angstrom
                   Q00  =   0.060801
|Q1| =   0.081036  Q10  =  -0.003507  Q11c =   0.029541  Q11s =   0.075378
|Q2| =   1.231175  Q20  =  -1.210691  Q21c =   0.176286  Q21s =   0.093366
                   Q22c =  -0.084883  Q22s =   0.054947

C          x =  4.907318  y = -2.412284  z =  0.496547 angstrom
           Maximum rank =  2   Radius =  0.650 angstrom
                   Q00  =  -0.113978
|Q1| =   0.134691  Q10  =  -0.009982  Q11c =  -0.120896  Q11s =   0.058535
|Q2| =   1.344522  Q20  =  -1.323242  Q21c =   0.189304  Q21s =   0.143968
                   Q22c =  -0.013647  Q22s =  -0.004537

C          x =  4.186858  y = -3.595194  z =  0.355057 angstrom
           Maximum rank =  2   Radius =  0.650 angstrom
                   Q00  =  -0.060604
|Q1| =   0.130256  Q10  =  -0.001193  Q11c =  -0.053115  Q11s =   0.118929
|Q2| =   1.249004  Q20  =  -1.221842  Q21c =   0.213146  Q21s =   0.141622
                   Q22c =  -0.008431  Q22s =   0.039394

C          x =  2.801088  y = -3.636604  z =  0.212397 angstrom
           Maximum rank =  2   Radius =  0.650 angstrom
                   Q00  =  -0.090401
|Q1| =   0.161047  Q10  =   0.007364  Q11c =   0.000934  Q11s =   0.160876
|Q2| =   1.364627  Q20  =  -1.327649  Q21c =   0.257987  Q21s =   0.171551
                   Q22c =   0.059692  Q22s =   0.002596

C          x =  2.109648  y = -2.429144  z =  0.234527 angstrom
           Maximum rank =  2   Radius =  0.650 angstrom
                   Q00  =   0.057685
|Q1| =   0.083534  Q10  =  -0.018879  Q11c =  -0.080689  Q11s =   0.010526
|Q2| =   1.205132  Q20  =  -1.157532  Q21c =   0.272683  Q21s =   0.145740
                   Q22c =   0.128956  Q22s =  -0.015409

C          x =  2.797828  y = -1.229144  z =  0.411367 angstrom
           Maximum rank =  2   Radius =  0.650 angstrom
                   Q00  =  -0.114891
|Q1| =   0.157001  Q10  =  -0.003851  Q11c =   0.108360  Q11s =  -0.113545
|Q2| =   1.489799  Q20  =  -1.446658  Q21c =   0.190947  Q21s =   0.225779
                   Q22c =   0.003708  Q22s =   0.198067

N          x =  0.723088  y = -2.291284  z =  0.056827 angstrom
           Maximum rank =  2   Radius =  0.650 angstrom
                   Q00  =  -0.237630
|Q1| =   0.093535  Q10  =  -0.000437  Q11c =   0.031812  Q11s =  -0.087958
|Q2| =   1.522684  Q20  =  -1.346080  Q21c =   0.458205  Q21s =   0.500470
                   Q22c =   0.196284  Q22s =   0.087654

C          x = -0.216942  y = -3.218534  z = -0.313403 angstrom
           Maximum rank =  2   Radius =  0.650 angstrom
                   Q00  =   0.296299
|Q1| =   0.075471  Q10  =   0.013296  Q11c =   0.071303  Q11s =  -0.020855
|Q2| =   0.600543  Q20  =  -0.538754  Q21c =   0.244940  Q21s =   0.062973
                   Q22c =  -0.072181  Q22s =  -0.034999

C          x = -1.536412  y = -2.587114  z = -0.657733 angstrom
           Maximum rank =  2   Radius =  0.650 angstrom
                   Q00  =  -0.067117
|Q1| =   0.035476  Q10  =  -0.023276  Q11c =  -0.003840  Q11s =  -0.026496
|Q2| =   1.345272  Q20  =  -0.984133  Q21c =   0.101553  Q21s =  -0.861753
                   Q22c =   0.275493  Q22s =  -0.111406

C          x = -1.611522  y = -1.344174  z = -1.293343 angstrom
           Maximum rank =  2   Radius =  0.650 angstrom
                   Q00  =  -0.073934
|Q1| =   0.159832  Q10  =   0.004273  Q11c =  -0.115155  Q11s =  -0.110759
|Q2| =   1.321708  Q20  =  -0.900677  Q21c =  -0.087021  Q21s =  -0.936239
                   Q22c =   0.195876  Q22s =  -0.114932

C          x = -2.843832  y = -0.764884  z = -1.557143 angstrom
           Maximum rank =  2   Radius =  0.650 angstrom
                   Q00  =  -0.105590
|Q1| =   0.164617  Q10  =   0.040453  Q11c =  -0.014215  Q11s =  -0.158935
|Q2| =   1.346561  Q20  =  -0.908236  Q21c =  -0.146677  Q21s =  -0.921692
                   Q22c =   0.341315  Q22s =  -0.028448

C          x = -4.027242  y = -1.396064  z = -1.174093 angstrom
           Maximum rank =  2   Radius =  0.650 angstrom
                   Q00  =  -0.085094
|Q1| =   0.070184  Q10  =   0.031183  Q11c =   0.062694  Q11s =  -0.004793
|Q2| =   1.192086  Q20  =  -0.923242  Q21c =  -0.238103  Q21s =  -0.660573
                   Q22c =   0.166859  Q22s =  -0.218637

C          x = -3.945562  y = -2.663474  z = -0.590513 angstrom
           Maximum rank =  2   Radius =  0.650 angstrom
                   Q00  =  -0.100733
|Q1| =   0.165963  Q10  =  -0.082325  Q11c =   0.117483  Q11s =   0.083451
|Q2| =   1.355304  Q20  =  -1.041214  Q21c =  -0.015975  Q21s =  -0.855681
                   Q22c =   0.122694  Q22s =  -0.072283

C          x = -2.715452  y = -3.260414  z = -0.340233 angstrom
           Maximum rank =  2   Radius =  0.650 angstrom
                   Q00  =  -0.038498
|Q1| =   0.144062  Q10  =  -0.070900  Q11c =   0.063034  Q11s =   0.108414
|Q2| =   1.244155  Q20  =  -0.948815  Q21c =  -0.002574  Q21s =  -0.767044
                   Q22c =   0.227430  Q22s =  -0.087093

C          x = -5.364272  y = -0.690314  z = -1.331323 angstrom
           Maximum rank =  2   Radius =  0.650 angstrom
                   Q00  =   0.008568
|Q1| =   0.133239  Q10  =   0.114058  Q11c =   0.037886  Q11s =   0.057515
|Q2| =   0.287857  Q20  =  -0.004177  Q21c =   0.017596  Q21s =   0.198011
                   Q22c =   0.052369  Q22s =  -0.201453

N          x = -5.754402  y =  0.240166  z = -0.282863 angstrom
           Maximum rank =  2   Radius =  0.650 angstrom
                   Q00  =  -0.396019
|Q1| =   0.437657  Q10  =   0.156412  Q11c =   0.397638  Q11s =  -0.094672
|Q2| =   1.210040  Q20  =   0.502832  Q21c =  -0.477314  Q21s =   0.261311
                   Q22c =  -0.834150  Q22s =   0.468443

C          x = -5.087302  y =  1.536786  z = -0.231013 angstrom
           Maximum rank =  2   Radius =  0.650 angstrom
                   Q00  =  -0.025819
|Q1| =   0.189260  Q10  =   0.046655  Q11c =  -0.061527  Q11s =  -0.172792
|Q2| =   0.224494  Q20  =   0.037739  Q21c =   0.132592  Q21s =  -0.072049
                   Q22c =  -0.119395  Q22s =   0.109300

C          x = -3.877552  y =  1.591876  z =  0.719717 angstrom
           Maximum rank =  2   Radius =  0.650 angstrom
                   Q00  =  -0.056442
|Q1| =   0.228637  Q10  =   0.168194  Q11c =  -0.104507  Q11s =  -0.114297
|Q2| =   0.147676  Q20  =   0.012071  Q21c =   0.066828  Q21s =   0.019386
                   Q22c =  -0.032750  Q22s =   0.125491

N          x = -4.175172  y =  1.083406  z =  2.055857 angstrom
           Maximum rank =  2   Radius =  0.650 angstrom
                   Q00  =  -0.396340
|Q1| =   0.493038  Q10  =  -0.278894  Q11c =  -0.406508  Q11s =   0.007504
|Q2| =   1.107021  Q20  =   0.275172  Q21c =  -0.740942  Q21s =   0.178046
                   Q22c =  -0.728909  Q22s =   0.194348

C          x = -4.964072  y =  1.992786  z =  2.867807 angstrom
           Maximum rank =  2   Radius =  0.650 angstrom
                   Q00  =  -0.038912
|Q1| =   0.174437  Q10  =  -0.061003  Q11c =   0.127706  Q11s =  -0.101972
|Q2| =   0.322320  Q20  =   0.028617  Q21c =  -0.149568  Q21s =   0.228262
                   Q22c =  -0.040035  Q22s =  -0.164298

C          x = -4.741432  y = -0.259974  z =  1.957117 angstrom
           Maximum rank =  2   Radius =  0.650 angstrom
                   Q00  =  -0.030711
|Q1| =   0.179299  Q10  =  -0.044671  Q11c =   0.050543  Q11s =   0.166127
|Q2| =   0.176971  Q20  =   0.062577  Q21c =   0.081470  Q21s =  -0.063307
                   Q22c =  -0.100525  Q22s =   0.081564

C          x = -5.976362  y = -0.325754  z =  1.043157 angstrom
           Maximum rank =  2   Radius =  0.650 angstrom
                   Q00  =  -0.021707
|Q1| =   0.182445  Q10  =  -0.142552  Q11c =   0.071423  Q11s =   0.088678
|Q2| =   0.210214  Q20  =   0.090656  Q21c =  -0.014118  Q21s =  -0.053282
                   Q22c =   0.021750  Q22s =   0.180166

O          x = -0.024922  y = -4.422374  z = -0.347013 angstrom
           Maximum rank =  2   Radius =  0.650 angstrom
                   Q00  =  -0.490701
|Q1| =   0.498703  Q10  =  -0.009081  Q11c =  -0.092810  Q11s =   0.489907
|Q2| =   1.062013  Q20  =  -0.281895  Q21c =  -0.063958  Q21s =   0.050713
                   Q22c =  -0.993090  Q22s =  -0.235620

C          x =  6.410128  y = -2.427884  z =  0.615937 angstrom
           Maximum rank =  2   Radius =  0.650 angstrom
                   Q00  =  -0.106630
|Q1| =   0.122982  Q10  =  -0.016453  Q11c =  -0.116273  Q11s =  -0.036528
|Q2| =   0.252819  Q20  =  -0.110918  Q21c =   0.037012  Q21s =  -0.018825
                   Q22c =   0.212418  Q22s =  -0.069057

H          x = -1.094962  y =  5.205936  z = -0.602073 angstrom
           Maximum rank =  2   Radius =  0.325 angstrom
                   Q00  =   0.096046
|Q1| =   0.117869  Q10  =  -0.011908  Q11c =   0.055387  Q11s =  -0.103361
|Q2| =   0.178006  Q20  =  -0.125800  Q21c =   0.008162  Q21s =   0.061610
                   Q22c =  -0.041908  Q22s =  -0.101202

H          x =  1.314128  y =  5.059826  z =  0.030207 angstrom
           Maximum rank =  2   Radius =  0.325 angstrom
                   Q00  =   0.109895
|Q1| =   0.115423  Q10  =  -0.041620  Q11c =  -0.033944  Q11s =  -0.102167
|Q2| =   0.161276  Q20  =  -0.092891  Q21c =   0.071872  Q21s =   0.097137
                   Q22c =  -0.014068  Q22s =   0.050816

H          x =  1.263158  y =  0.995126  z = -1.349093 angstrom
           Maximum rank =  2   Radius =  0.325 angstrom
                   Q00  =   0.141814
|Q1| =   0.091800  Q10  =   0.046199  Q11c =  -0.018135  Q11s =   0.077226
|Q2| =   0.158514  Q20  =  -0.121497  Q21c =   0.044826  Q21s =   0.032265
                   Q22c =  -0.017094  Q22s =  -0.083801

H          x = -2.213882  y =  3.190956  z = -1.547663 angstrom
           Maximum rank =  2   Radius =  0.325 angstrom
                   Q00  =   0.109075
|Q1| =   0.113492  Q10  =   0.043743  Q11c =   0.099208  Q11s =  -0.033536
|Q2| =   0.146668  Q20  =  -0.099938  Q21c =   0.043418  Q21s =   0.015645
                   Q22c =   0.094444  Q22s =   0.021779

H          x =  3.599268  y =  4.865336  z = -0.363573 angstrom
           Maximum rank =  2   Radius =  0.325 angstrom
                   Q00  =   0.098855
|Q1| =   0.121284  Q10  =   0.020914  Q11c =   0.004937  Q11s =  -0.119366
|Q2| =   0.186167  Q20  =  -0.145371  Q21c =   0.052543  Q21s =  -0.065387
                   Q22c =  -0.067546  Q22s =  -0.043897

H          x =  5.905748  y =  4.211306  z =  0.355227 angstrom
           Maximum rank =  2   Radius =  0.325 angstrom
                   Q00  =   0.106937
|Q1| =   0.110862  Q10  =  -0.006943  Q11c =  -0.070826  Q11s =  -0.085005
|Q2| =   0.164646  Q20  =  -0.119624  Q21c =   0.045012  Q21s =  -0.001024
                   Q22c =   0.007575  Q22s =   0.103508

H          x =  5.880208  y = -0.062564  z =  0.856757 angstrom
           Maximum rank =  2   Radius =  0.325 angstrom
                   Q00  =   0.221878
|Q1| =   0.072792  Q10  =  -0.023588  Q11c =  -0.068226  Q11s =   0.009354
|Q2| =   0.151973  Q20  =  -0.139055  Q21c =   0.059923  Q21s =  -0.003263
                   Q22c =   0.012513  Q22s =  -0.001230

H          x =  4.735208  y = -4.533804  z =  0.341487 angstrom
           Maximum rank =  2   Radius =  0.325 angstrom
                   Q00  =   0.089413
|Q1| =   0.129824  Q10  =   0.001265  Q11c =  -0.062009  Q11s =   0.114051
|Q2| =   0.169132  Q20  =  -0.144473  Q21c =   0.014880  Q21s =   0.013919
                   Q22c =  -0.046525  Q22s =  -0.071787

H          x =  2.272248  y = -4.570704  z =  0.081467 angstrom
           Maximum rank =  2   Radius =  0.325 angstrom
                   Q00  =   0.142471
|Q1| =   0.097331  Q10  =   0.000153  Q11c =  -0.014047  Q11s =   0.096312
|Q2| =   0.203109  Q20  =  -0.159050  Q21c =   0.049956  Q21s =   0.034999
                   Q22c =   0.008309  Q22s =   0.110302

H          x =  2.252588  y = -0.297904  z =  0.437207 angstrom
           Maximum rank =  2   Radius =  0.325 angstrom
                   Q00  =   0.149882
|Q1| =   0.089932  Q10  =  -0.027224  Q11c =   0.080272  Q11s =  -0.030053
|Q2| =   0.202820  Q20  =  -0.172041  Q21c =   0.020115  Q21s =  -0.015614
                   Q22c =  -0.098780  Q22s =  -0.033643

H          x =  0.384438  y = -1.344894  z =  0.148317 angstrom
           Maximum rank =  2   Radius =  0.325 angstrom
                   Q00  =   0.217152
|Q1| =   0.063629  Q10  =  -0.018973  Q11c =   0.010625  Q11s =  -0.059798
|Q2| =   0.151401  Q20  =  -0.131234  Q21c =   0.041596  Q21s =   0.028729
                   Q22c =  -0.023860  Q22s =  -0.050746

H          x = -0.715052  y = -0.819214  z = -1.610233 angstrom
           Maximum rank =  2   Radius =  0.325 angstrom
                   Q00  =   0.128957
|Q1| =   0.093777  Q10  =   0.052215  Q11c =  -0.072692  Q11s =  -0.027992
|Q2| =   0.166540  Q20  =  -0.123203  Q21c =  -0.018827  Q21s =  -0.077426
                   Q22c =   0.025786  Q22s =   0.074447

H          x = -2.871712  y =  0.204486  z = -2.048213 angstrom
           Maximum rank =  2   Radius =  0.325 angstrom
                   Q00  =   0.118028
|Q1| =   0.117063  Q10  =   0.084041  Q11c =   0.015562  Q11s =  -0.079992
|Q2| =   0.147117  Q20  =  -0.093058  Q21c =  -0.023307  Q21s =  -0.089514
                   Q22c =  -0.058101  Q22s =   0.032431

H          x = -4.860282  y = -3.183324  z = -0.314143 angstrom
           Maximum rank =  2   Radius =  0.325 angstrom
                   Q00  =   0.097200
|Q1| =   0.130822  Q10  =  -0.021986  Q11c =   0.100225  Q11s =   0.081154
|Q2| =   0.147159  Q20  =  -0.101232  Q21c =  -0.052725  Q21s =  -0.059638
                   Q22c =   0.046427  Q22s =   0.053998

H          x = -2.651812  y = -4.242934  z =  0.116777 angstrom
           Maximum rank =  2   Radius =  0.325 angstrom
                   Q00  =   0.125318
|Q1| =   0.109227  Q10  =  -0.046586  Q11c =   0.033255  Q11s =   0.093029
|Q2| =   0.166965  Q20  =  -0.098718  Q21c =   0.006874  Q21s =  -0.117316
                   Q22c =  -0.045774  Q22s =  -0.047186

H          x = -5.369952  y = -0.135294  z = -2.277233 angstrom
           Maximum rank =  2   Radius =  0.325 angstrom
                   Q00  =   0.092461
|Q1| =   0.146240  Q10  =   0.135916  Q11c =   0.029665  Q11s =  -0.045088
|Q2| =   0.106345  Q20  =   0.060035  Q21c =  -0.025183  Q21s =  -0.068979
                   Q22c =  -0.028524  Q22s =  -0.038720

H          x = -6.156612  y = -1.446154  z = -1.405613 angstrom
           Maximum rank =  2   Radius =  0.325 angstrom
                   Q00  =   0.089093
|Q1| =   0.147932  Q10  =   0.046575  Q11c =   0.108205  Q11s =   0.089478
|Q2| =   0.109531  Q20  =  -0.080073  Q21c =  -0.012308  Q21s =   0.037930
                   Q22c =   0.008248  Q22s =   0.062668

H          x = -4.785282  y =  1.817806  z = -1.247073 angstrom
           Maximum rank =  2   Radius =  0.325 angstrom
                   Q00  =   0.081956
|Q1| =   0.153197  Q10  =   0.130864  Q11c =  -0.011745  Q11s =  -0.078777
|Q2| =   0.106275  Q20  =   0.074791  Q21c =  -0.050315  Q21s =  -0.016620
                   Q22c =   0.001734  Q22s =   0.053756

H          x = -5.828632  y =  2.282156  z =  0.094557 angstrom
           Maximum rank =  2   Radius =  0.325 angstrom
                   Q00  =   0.079807
|Q1| =   0.156518  Q10  =  -0.004342  Q11c =   0.094784  Q11s =  -0.124479
|Q2| =   0.098568  Q20  =  -0.046094  Q21c =  -0.022721  Q21s =   0.059024
                   Q22c =   0.005585  Q22s =  -0.059663

H          x = -3.520132  y =  2.625746  z =  0.809087 angstrom
           Maximum rank =  2   Radius =  0.325 angstrom
                   Q00  =   0.086158
|Q1| =   0.141951  Q10  =  -0.008890  Q11c =  -0.041395  Q11s =  -0.135490
|Q2| =   0.110262  Q20  =  -0.031684  Q21c =  -0.027638  Q21s =  -0.011882
                   Q22c =  -0.036858  Q22s =   0.094288

H          x = -3.052702  y =  0.996466  z =  0.312817 angstrom
           Maximum rank =  2   Radius =  0.325 angstrom
                   Q00  =   0.121171
|Q1| =   0.093669  Q10  =   0.017863  Q11c =  -0.090275  Q11s =   0.017471
|Q2| =   0.143492  Q20  =  -0.024322  Q21c =  -0.089917  Q21s =   0.073409
                   Q22c =   0.014845  Q22s =  -0.079398

H          x = -5.974052  y =  2.220346  z =  2.483537 angstrom
           Maximum rank =  2   Radius =  0.325 angstrom
                   Q00  =   0.054644
|Q1| =   0.156996  Q10  =   0.003135  Q11c =   0.142592  Q11s =  -0.065614
|Q2| =   0.134055  Q20  =  -0.013509  Q21c =   0.088367  Q21s =   0.025787
                   Q22c =   0.086947  Q22s =  -0.041888

H          x = -4.426322  y =  2.942156  z =  2.967817 angstrom
           Maximum rank =  2   Radius =  0.325 angstrom
                   Q00  =   0.065556
|Q1| =   0.144903  Q10  =  -0.049125  Q11c =  -0.033066  Q11s =  -0.132251
|Q2| =   0.150354  Q20  =  -0.071401  Q21c =  -0.031069  Q21s =   0.038603
                   Q22c =  -0.054987  Q22s =   0.109678

H          x = -5.079962  y =  1.566136  z =  3.870107 angstrom
           Maximum rank =  2   Radius =  0.325 angstrom
                   Q00  =   0.066374
|Q1| =   0.144667  Q10  =  -0.140532  Q11c =   0.032570  Q11s =   0.010877
|Q2| =   0.147616  Q20  =   0.110596  Q21c =  -0.037814  Q21s =  -0.077153
                   Q22c =  -0.043725  Q22s =  -0.016271

H          x = -5.000152  y = -0.608284  z =  2.964437 angstrom
           Maximum rank =  2   Radius =  0.325 angstrom
                   Q00  =   0.080174
|Q1| =   0.151011  Q10  =  -0.131211  Q11c =   0.026274  Q11s =   0.069983
|Q2| =   0.106121  Q20  =   0.081157  Q21c =  -0.026850  Q21s =  -0.042369
                   Q22c =  -0.022303  Q22s =   0.040764

H          x = -3.959552  y = -0.923624  z =  1.569877 angstrom
           Maximum rank =  2   Radius =  0.325 angstrom
                   Q00  =   0.108773
|Q1| =   0.117996  Q10  =  -0.029046  Q11c =  -0.077583  Q11s =   0.084025
|Q2| =   0.168575  Q20  =  -0.031817  Q21c =  -0.073816  Q21s =   0.119673
                   Q22c =   0.001995  Q22s =  -0.087355

H          x = -6.805152  y =  0.222836  z =  1.514927 angstrom
           Maximum rank =  2   Radius =  0.325 angstrom
                   Q00  =   0.079112
|Q1| =   0.156159  Q10  =  -0.068065  Q11c =   0.136633  Q11s =  -0.032927
|Q2| =   0.103508  Q20  =   0.003485  Q21c =  -0.040114  Q21s =   0.043712
                   Q22c =   0.031404  Q22s =  -0.078712

H          x = -6.310172  y = -1.363564  z =  0.932397 angstrom
           Maximum rank =  2   Radius =  0.325 angstrom
                   Q00  =   0.084814
|Q1| =   0.151673  Q10  =  -0.017395  Q11c =   0.085482  Q11s =   0.124077
|Q2| =   0.107980  Q20  =  -0.018419  Q21c =   0.007061  Q21s =   0.025275
                   Q22c =  -0.093649  Q22s =   0.043147

H          x =  6.755678  y = -2.017234  z =  1.574557 angstrom
           Maximum rank =  2   Radius =  0.325 angstrom
                   Q00  =   0.070208
|Q1| =   0.144340  Q10  =  -0.110496  Q11c =  -0.089000  Q11s =  -0.026525
|Q2| =   0.139751  Q20  =   0.074482  Q21c =   0.063101  Q21s =   0.099508
                   Q22c =  -0.006829  Q22s =   0.007250

H          x =  6.890158  y = -1.850514  z = -0.184893 angstrom
           Maximum rank =  2   Radius =  0.325 angstrom
                   Q00  =   0.074208
|Q1| =   0.142567  Q10  =   0.084523  Q11c =  -0.107362  Q11s =  -0.040676
|Q2| =   0.144100  Q20  =   0.019911  Q21c =  -0.069300  Q21s =  -0.119135
                   Q22c =  -0.018777  Q22s =   0.031942

H          x =  6.790618  y = -3.450354  z =  0.551017 angstrom
           Maximum rank =  2   Radius =  0.325 angstrom
                   Q00  =   0.068835
|Q1| =   0.138227  Q10  =   0.002350  Q11c =  -0.088616  Q11s =   0.106059
|Q2| =   0.168897  Q20  =  -0.126441  Q21c =   0.004423  Q21s =   0.022848
                   Q22c =  -0.084227  Q22s =  -0.070021

Total multipoles referred to origin at
           x =   0.000000,  y =    0.000000,  z =    0.000000 angstrom
                   Q00  =  -0.000023
|Q1| =   2.881143  Q10  =   0.125635  Q11c =   0.022775  Q11s =   2.878313
|Q2| =  20.860985  Q20  = -17.780807  Q21c =  -2.145820  Q21s =  -7.060991
                   Q22c =   5.826643  Q22s =   5.532784

Finished at 16:12:42 on 8 Jan 2020  

  DMA results are available in the Python driver through the
	  variable('DMA DISTRIBUTED MULTIPOLES')
  and
	  variable('DMA TOTAL MULTIPOLES')
  commands.


    Psi4 stopped on: Wednesday, 08 January 2020 04:12PM
    Psi4 wall time for execution: 0:43:49.28

*** Psi4 exiting successfully. Buy a developer a beer!
