
    -----------------------------------------------------------------------
          Psi4: An Open-Source Ab Initio Electronic Structure Package
                               Psi4 1.4a2.dev224 

                         Git: Rev {master} e453b16 


    R. M. Parrish, L. A. Burns, D. G. A. Smith, A. C. Simmonett,
    A. E. DePrince III, E. G. Hohenstein, U. Bozkaya, A. Yu. Sokolov,
    R. Di Remigio, R. M. Richard, J. F. Gonthier, A. M. James,
    H. R. McAlexander, A. Kumar, M. Saitow, X. Wang, B. P. Pritchard,
    P. Verma, H. F. Schaefer III, K. Patkowski, R. A. King, E. F. Valeev,
    F. A. Evangelista, J. M. Turney, T. D. Crawford, and C. D. Sherrill,
    J. Chem. Theory Comput. 13(7) pp 3185--3197 (2017).
    (doi: 10.1021/acs.jctc.7b00174)


                         Additional Contributions by
    P. Kraus, H. Kruse, M. H. Lechner, M. C. Schieber, R. A. Shaw,
    A. Alenaizan, R. Galvelis, Z. L. Glick, S. Lehtola, and J. P. Misiewicz

    -----------------------------------------------------------------------


    Psi4 started on: Wednesday, 08 January 2020 04:12PM

    Process ID: 78178
    Host:       node144.bme.utexas.edu
    PSIDATADIR: /home/liuchw/anaconda3/envs/psi4env/share/psi4
    Memory:     500.0 MiB
    Threads:    1
    
  ==> Input File <==

--------------------------------------------------------------------------
molecule { 
0 1
C         -0.47371        4.27503       -0.77187
C          0.87084        4.19244       -0.43065
C          1.54727        2.99041       -0.63159
C          0.82084        1.92625       -1.18243
N         -0.46815        1.98992       -1.51144
C         -1.09708        3.14998       -1.30056
C          2.96911        2.78932       -0.25382
C          3.90008        3.81935       -0.15464
C          5.18600        3.44690        0.23537
N          5.54537        2.19763        0.49695
C          4.57198        1.27516        0.35487
N          3.31198        1.52371       -0.00190
N          4.96076       -0.01077        0.61383
C          4.24521       -1.21694        0.49486
C          4.96913       -2.42652        0.47940
C          4.24867       -3.60943        0.33791
C          2.86290       -3.65084        0.19525
C          2.17146       -2.44338        0.21738
C          2.85964       -1.24338        0.39422
N          0.78490       -2.30552        0.03968
C         -0.15513       -3.23277       -0.33055
C         -1.47460       -2.60135       -0.67488
C         -1.54971       -1.35841       -1.31049
C         -2.78202       -0.77912       -1.57429
C         -3.96543       -1.41030       -1.19124
C         -3.88375       -2.67771       -0.60766
C         -2.65364       -3.27465       -0.35738
C         -5.30246       -0.70455       -1.34847
N         -5.69259        0.22593       -0.30001
C         -5.02549        1.52255       -0.24816
C         -3.81574        1.57764        0.70257
N         -4.11336        1.06917        2.03871
C         -4.90226        1.97855        2.85066
C         -4.67962       -0.27421        1.93997
C         -5.91455       -0.33999        1.02601
O          0.03689       -4.43661       -0.36416
C          6.47194       -2.44212        0.59879
H         -1.03315        5.19170       -0.61922
H          1.37594        5.04559        0.01306
H          1.32497        0.98089       -1.36624
H         -2.15207        3.17672       -1.56481
H          3.66108        4.85110       -0.38072
H          5.96756        4.19707        0.33808
H          5.94202       -0.07680        0.83961
H          4.79702       -4.54804        0.32434
H          2.33406       -4.58494        0.06432
H          2.31440       -0.31214        0.42006
H          0.44625       -1.35913        0.13117
H         -0.65324       -0.83345       -1.62738
H         -2.80990        0.19025       -2.06536
H         -4.79847       -3.19756       -0.33129
H         -2.59000       -4.25717        0.09963
H         -5.30814       -0.14953       -2.29438
H         -6.09480       -1.46039       -1.42276
H         -4.72347        1.80357       -1.26422
H         -5.76682        2.26792        0.07741
H         -3.45832        2.61151        0.79194
H         -2.99089        0.98223        0.29567
H         -5.91224        2.20611        2.46639
H         -4.36451        2.92792        2.95067
H         -5.01815        1.55190        3.85296
H         -4.93834       -0.62252        2.94729
H         -3.89774       -0.93786        1.55273
H         -6.74334        0.20860        1.49778
H         -6.24836       -1.37780        0.91525
H          6.81749       -2.03147        1.55741
H          6.95197       -1.86475       -0.20204
H          6.85243       -3.46459        0.53387
}
memory 100GB
set_num_threads(10)
psi4_io.set_default_path("/scratch/liuchw")
set freeze_core True
E, wfn = energy('mp2/6-311++G(2d,2p)',return_wfn=True)
oeprop(wfn,"DIPOLE","GRID_ESP")
clean()
--------------------------------------------------------------------------

  Memory set to  93.132 GiB by Python driver.
  Threads set to 10 by Python driver.

Scratch directory: /scratch/liuchw/

Scratch directory: /scratch/liuchw/
    SCF Algorithm Type (re)set to DF.

*** tstart() called on node144.bme.utexas.edu
*** at Wed Jan  8 16:12:46 2020

   => Loading Basis Set <=

    Name: 6-311++G(2D,2P)
    Role: ORBITAL
    Keyword: BASIS
    atoms 1-4, 6-9, 11, 14-19, 21-28, 30-31, 33-35, 37 entry C          line   130 file /home/liuchw/anaconda3/envs/psi4env/share/psi4/basis/6-311ppg_2d_2p_.gbs 
    atoms 5, 10, 12-13, 20, 29, 32                     entry N          line   153 file /home/liuchw/anaconda3/envs/psi4env/share/psi4/basis/6-311ppg_2d_2p_.gbs 
    atoms 36                                           entry O          line   176 file /home/liuchw/anaconda3/envs/psi4env/share/psi4/basis/6-311ppg_2d_2p_.gbs 
    atoms 38-68                                        entry H          line    45 file /home/liuchw/anaconda3/envs/psi4env/share/psi4/basis/6-311ppg_2d_2p_.gbs 


         ---------------------------------------------------------
                                   SCF
               by Justin Turney, Rob Parrish, Andy Simmonett
                          and Daniel G. A. Smith
                              RHF Reference
                       10 Threads,  95367 MiB Core
         ---------------------------------------------------------

  ==> Geometry <==

    Molecular point group: c1
    Full point group: C1

    Geometry (in Angstrom), charge = 0, multiplicity = 1:

       Center              X                  Y                   Z               Mass       
    ------------   -----------------  -----------------  -----------------  -----------------
         C           -0.535522433868     4.289266468258    -0.754722696836    12.000000000000
         C            0.809027566132     4.206676468258    -0.413502696836    12.000000000000
         C            1.485457566132     3.004646468258    -0.614442696836    12.000000000000
         C            0.759027566132     1.940486468258    -1.165282696836    12.000000000000
         N           -0.529962433868     2.004156468258    -1.494292696836    14.003074004430
         C           -1.158892433868     3.164216468258    -1.283412696836    12.000000000000
         C            2.907297566132     2.803556468258    -0.236672696836    12.000000000000
         C            3.838267566132     3.833586468258    -0.137492696836    12.000000000000
         C            5.124187566132     3.461136468258     0.252517303164    12.000000000000
         N            5.483557566132     2.211866468258     0.514097303164    14.003074004430
         C            4.510167566132     1.289396468258     0.372017303164    12.000000000000
         N            3.250167566132     1.537946468258     0.015247303164    14.003074004430
         N            4.898947566132     0.003466468258     0.630977303164    14.003074004430
         C            4.183397566132    -1.202703531742     0.512007303164    12.000000000000
         C            4.907317566132    -2.412283531742     0.496547303164    12.000000000000
         C            4.186857566132    -3.595193531742     0.355057303164    12.000000000000
         C            2.801087566132    -3.636603531742     0.212397303164    12.000000000000
         C            2.109647566132    -2.429143531742     0.234527303164    12.000000000000
         C            2.797827566132    -1.229143531742     0.411367303164    12.000000000000
         N            0.723087566132    -2.291283531742     0.056827303164    14.003074004430
         C           -0.216942433868    -3.218533531742    -0.313402696836    12.000000000000
         C           -1.536412433868    -2.587113531742    -0.657732696836    12.000000000000
         C           -1.611522433868    -1.344173531742    -1.293342696836    12.000000000000
         C           -2.843832433868    -0.764883531742    -1.557142696836    12.000000000000
         C           -4.027242433868    -1.396063531742    -1.174092696836    12.000000000000
         C           -3.945562433868    -2.663473531742    -0.590512696836    12.000000000000
         C           -2.715452433868    -3.260413531742    -0.340232696836    12.000000000000
         C           -5.364272433868    -0.690313531742    -1.331322696836    12.000000000000
         N           -5.754402433868     0.240166468258    -0.282862696836    14.003074004430
         C           -5.087302433868     1.536786468258    -0.231012696836    12.000000000000
         C           -3.877552433868     1.591876468258     0.719717303164    12.000000000000
         N           -4.175172433868     1.083406468258     2.055857303164    14.003074004430
         C           -4.964072433868     1.992786468258     2.867807303164    12.000000000000
         C           -4.741432433868    -0.259973531742     1.957117303164    12.000000000000
         C           -5.976362433868    -0.325753531742     1.043157303164    12.000000000000
         O           -0.024922433868    -4.422373531742    -0.347012696836    15.994914619570
         C            6.410127566132    -2.427883531742     0.615937303164    12.000000000000
         H           -1.094962433868     5.205936468258    -0.602072696836     1.007825032230
         H            1.314127566132     5.059826468258     0.030207303164     1.007825032230
         H            1.263157566132     0.995126468258    -1.349092696836     1.007825032230
         H           -2.213882433868     3.190956468258    -1.547662696836     1.007825032230
         H            3.599267566132     4.865336468258    -0.363572696836     1.007825032230
         H            5.905747566132     4.211306468258     0.355227303164     1.007825032230
         H            5.880207566132    -0.062563531742     0.856757303164     1.007825032230
         H            4.735207566132    -4.533803531742     0.341487303164     1.007825032230
         H            2.272247566132    -4.570703531742     0.081467303164     1.007825032230
         H            2.252587566132    -0.297903531742     0.437207303164     1.007825032230
         H            0.384437566132    -1.344893531742     0.148317303164     1.007825032230
         H           -0.715052433868    -0.819213531742    -1.610232696836     1.007825032230
         H           -2.871712433868     0.204486468258    -2.048212696836     1.007825032230
         H           -4.860282433868    -3.183323531742    -0.314142696836     1.007825032230
         H           -2.651812433868    -4.242933531742     0.116777303164     1.007825032230
         H           -5.369952433868    -0.135293531742    -2.277232696836     1.007825032230
         H           -6.156612433868    -1.446153531742    -1.405612696836     1.007825032230
         H           -4.785282433868     1.817806468258    -1.247072696836     1.007825032230
         H           -5.828632433868     2.282156468258     0.094557303164     1.007825032230
         H           -3.520132433868     2.625746468258     0.809087303164     1.007825032230
         H           -3.052702433868     0.996466468258     0.312817303164     1.007825032230
         H           -5.974052433868     2.220346468258     2.483537303164     1.007825032230
         H           -4.426322433868     2.942156468258     2.967817303164     1.007825032230
         H           -5.079962433868     1.566136468258     3.870107303164     1.007825032230
         H           -5.000152433868    -0.608283531742     2.964437303164     1.007825032230
         H           -3.959552433868    -0.923623531742     1.569877303164     1.007825032230
         H           -6.805152433868     0.222836468258     1.514927303164     1.007825032230
         H           -6.310172433868    -1.363563531742     0.932397303164     1.007825032230
         H            6.755677566132    -2.017233531742     1.574557303164     1.007825032230
         H            6.890157566132    -1.850513531742    -0.184892696836     1.007825032230
         H            6.790617566132    -3.450353531742     0.551017303164     1.007825032230

  Running in c1 symmetry.

  Rotational constants: A =      0.00470  B =      0.00222  C =      0.00166 [cm^-1]
  Rotational constants: A =    140.90297  B =     66.57784  C =     49.69944 [MHz]
  Nuclear repulsion = 3895.117956314546518

  Charge       = 0
  Multiplicity = 1
  Electrons    = 262
  Nalpha       = 131
  Nbeta        = 131

  ==> Algorithm <==

  SCF Algorithm Type is DF.
  DIIS enabled.
  MOM disabled.
  Fractional occupation disabled.
  Guess Type is SAD.
  Energy threshold   = 1.00e-08
  Density threshold  = 1.00e-08
  Integral threshold = 0.00e+00

  ==> Primary Basis <==

  Basis Set: 6-311++G(2D,2P)
    Blend: 6-311++G(2D,2P)
    Number of shells: 593
    Number of basis function: 1309
    Number of Cartesian functions: 1383
    Spherical Harmonics?: true
    Max angular momentum: 2

   => Loading Basis Set <=

    Name: (6-311++G(2D,2P) AUX)
    Role: JKFIT
    Keyword: DF_BASIS_SCF
    atoms 1-4, 6-9, 11, 14-19, 21-28, 30-31, 33-35, 37 entry C          line   162 file /home/liuchw/anaconda3/envs/psi4env/share/psi4/basis/aug-cc-pvtz-jkfit.gbs 
    atoms 5, 10, 12-13, 20, 29, 32                     entry N          line   224 file /home/liuchw/anaconda3/envs/psi4env/share/psi4/basis/aug-cc-pvtz-jkfit.gbs 
    atoms 36                                           entry O          line   286 file /home/liuchw/anaconda3/envs/psi4env/share/psi4/basis/aug-cc-pvtz-jkfit.gbs 
    atoms 38-68                                        entry H          line    70 file /home/liuchw/anaconda3/envs/psi4env/share/psi4/basis/aug-cc-pvtz-jkfit.gbs 

  ==> Pre-Iterations <==

   -------------------------------------------------------
    Irrep   Nso     Nmo     Nalpha   Nbeta   Ndocc  Nsocc
   -------------------------------------------------------
     A       1309    1309       0       0       0       0
   -------------------------------------------------------
    Total    1309    1309     131     131     131       0
   -------------------------------------------------------

  ==> Integral Setup <==

  DFHelper Memory: AOs need 42.440 GiB; user supplied 69.849 GiB. Using in-core AOs.

  ==> MemDFJK: Density-Fitted J/K Matrices <==

    J tasked:                   Yes
    K tasked:                   Yes
    wK tasked:                   No
    OpenMP threads:              10
    Memory [MiB]:             71525
    Algorithm:                 Core
    Schwarz Cutoff:           1E-12
    Mask sparsity (%):      37.9767
    Fitting Condition:        1E-10

   => Auxiliary Basis Set <=

  Basis Set: (6-311++G(2D,2P) AUX)
    Blend: AUG-CC-PVTZ-JKFIT
    Number of shells: 1544
    Number of basis function: 5274
    Number of Cartesian functions: 6552
    Spherical Harmonics?: true
    Max angular momentum: 4

  Minimum eigenvalue in the overlap matrix is 1.1026735920E-07.
  Using Symmetric Orthogonalization.

  SCF Guess: Superposition of Atomic Densities via on-the-fly atomic UHF.

  ==> Iterations <==

                           Total Energy        Delta E     RMS |[F,P]|

   @DF-RHF iter SAD: -1573.46306472805509   -1.57346e+03   0.00000e+00 
   @DF-RHF iter   1: -1571.68551422911992    1.77755e+00   9.67407e-04 DIIS
   @DF-RHF iter   2: -1572.47056291127183   -7.85049e-01   4.78634e-04 DIIS
   @DF-RHF iter   3: -1572.64273612710508   -1.72173e-01   1.27548e-04 DIIS
   @DF-RHF iter   4: -1572.65825861585563   -1.55225e-02   5.03995e-05 DIIS
   @DF-RHF iter   5: -1572.66056501446496   -2.30640e-03   1.08752e-05 DIIS
   @DF-RHF iter   6: -1572.66071151247024   -1.46498e-04   4.31697e-06 DIIS
   @DF-RHF iter   7: -1572.66074091056180   -2.93981e-05   1.47769e-06 DIIS
   @DF-RHF iter   8: -1572.66074627787589   -5.36731e-06   6.58407e-07 DIIS
   @DF-RHF iter   9: -1572.66074747458015   -1.19670e-06   3.08218e-07 DIIS
   @DF-RHF iter  10: -1572.66074776680853   -2.92228e-07   1.23920e-07 DIIS
   @DF-RHF iter  11: -1572.66074782004898   -5.32405e-08   5.82046e-08 DIIS
   @DF-RHF iter  12: -1572.66074783094655   -1.08976e-08   2.33876e-08 DIIS
   @DF-RHF iter  13: -1572.66074783340491   -2.45836e-09   1.00056e-08 DIIS
   @DF-RHF iter  14: -1572.66074783370004   -2.95131e-10   4.95731e-09 DIIS
  Energy and wave function converged.


  ==> Post-Iterations <==

    Orbital Energies [Eh]
    ---------------------

    Doubly Occupied:                                                      

       1A    -20.520381     2A    -15.600257     3A    -15.593939  
       4A    -15.584811     5A    -15.571317     6A    -15.565735  
       7A    -15.541544     8A    -15.538604     9A    -11.368891  
      10A    -11.356389    11A    -11.323185    12A    -11.309439  
      13A    -11.296714    14A    -11.295204    15A    -11.286463  
      16A    -11.282076    17A    -11.279950    18A    -11.269506  
      19A    -11.260505    20A    -11.259770    21A    -11.248470  
      22A    -11.246325    23A    -11.244811    24A    -11.244103  
      25A    -11.243958    26A    -11.243755    27A    -11.242033  
      28A    -11.240373    29A    -11.240018    30A    -11.238250  
      31A    -11.236458    32A    -11.234304    33A    -11.233379  
      34A    -11.231171    35A    -11.229608    36A    -11.217883  
      37A    -11.214163    38A     -1.383727    39A     -1.350259  
      40A     -1.282995    41A     -1.258584    42A     -1.252318  
      43A     -1.250184    44A     -1.213861    45A     -1.202740  
      46A     -1.162833    47A     -1.140389    48A     -1.120441  
      49A     -1.077552    50A     -1.060525    51A     -1.049209  
      52A     -1.036092    53A     -1.025269    54A     -1.019040  
      55A     -1.006426    56A     -0.979788    57A     -0.947971  
      58A     -0.928983    59A     -0.927504    60A     -0.903744  
      61A     -0.876182    62A     -0.869344    63A     -0.868197  
      64A     -0.859279    65A     -0.840934    66A     -0.836043  
      67A     -0.825115    68A     -0.804977    69A     -0.779023  
      70A     -0.758318    71A     -0.747898    72A     -0.740101  
      73A     -0.730715    74A     -0.722380    75A     -0.700697  
      76A     -0.684695    77A     -0.677211    78A     -0.672012  
      79A     -0.660392    80A     -0.656281    81A     -0.649706  
      82A     -0.645335    83A     -0.637748    84A     -0.634896  
      85A     -0.629469    86A     -0.624706    87A     -0.623651  
      88A     -0.616009    89A     -0.613044    90A     -0.610683  
      91A     -0.606553    92A     -0.601929    93A     -0.599361  
      94A     -0.596002    95A     -0.590628    96A     -0.584573  
      97A     -0.580239    98A     -0.576879    99A     -0.567148  
     100A     -0.564374   101A     -0.545899   102A     -0.545481  
     103A     -0.536956   104A     -0.536381   105A     -0.527849  
     106A     -0.524112   107A     -0.518698   108A     -0.516980  
     109A     -0.515494   110A     -0.508479   111A     -0.507297  
     112A     -0.494716   113A     -0.484044   114A     -0.482878  
     115A     -0.479688   116A     -0.470572   117A     -0.466460  
     118A     -0.452182   119A     -0.442994   120A     -0.425336  
     121A     -0.423351   122A     -0.415828   123A     -0.401299  
     124A     -0.383830   125A     -0.373300   126A     -0.346394  
     127A     -0.342409   128A     -0.338888   129A     -0.310557  
     130A     -0.307544   131A     -0.284269  

    Virtual:                                                              

     132A      0.026151   133A      0.035036   134A      0.041531  
     135A      0.044743   136A      0.045903   137A      0.047256  
     138A      0.049920   139A      0.057191   140A      0.058663  
     141A      0.060470   142A      0.062240   143A      0.065304  
     144A      0.068200   145A      0.070816   146A      0.073783  
     147A      0.074979   148A      0.076640   149A      0.079771  
     150A      0.084606   151A      0.086478   152A      0.088620  
     153A      0.091864   154A      0.093039   155A      0.094145  
     156A      0.100843   157A      0.102341   158A      0.102716  
     159A      0.105838   160A      0.109920   161A      0.110239  
     162A      0.113659   163A      0.115903   164A      0.118392  
     165A      0.118939   166A      0.123718   167A      0.125724  
     168A      0.131173   169A      0.134220   170A      0.135475  
     171A      0.138367   172A      0.140510   173A      0.144598  
     174A      0.146946   175A      0.149813   176A      0.151401  
     177A      0.152980   178A      0.155771   179A      0.157589  
     180A      0.159206   181A      0.161695   182A      0.163828  
     183A      0.164107   184A      0.166160   185A      0.168797  
     186A      0.170562   187A      0.171367   188A      0.175962  
     189A      0.176806   190A      0.177894   191A      0.181238  
     192A      0.181521   193A      0.186434   194A      0.186901  
     195A      0.189275   196A      0.189896   197A      0.192095  
     198A      0.192811   199A      0.196529   200A      0.197928  
     201A      0.199157   202A      0.200541   203A      0.202554  
     204A      0.204420   205A      0.206564   206A      0.207193  
     207A      0.210539   208A      0.211003   209A      0.211757  
     210A      0.215093   211A      0.216077   212A      0.219654  
     213A      0.220722   214A      0.221724   215A      0.223875  
     216A      0.226760   217A      0.227447   218A      0.229063  
     219A      0.233088   220A      0.234629   221A      0.237311  
     222A      0.239428   223A      0.241331   224A      0.242369  
     225A      0.243911   226A      0.246030   227A      0.248255  
     228A      0.250094   229A      0.252415   230A      0.253401  
     231A      0.258003   232A      0.258653   233A      0.260529  
     234A      0.262456   235A      0.267355   236A      0.269405  
     237A      0.271165   238A      0.272506   239A      0.274803  
     240A      0.275942   241A      0.279008   242A      0.280602  
     243A      0.285453   244A      0.285851   245A      0.287865  
     246A      0.290066   247A      0.291500   248A      0.293796  
     249A      0.296083   250A      0.300992   251A      0.302502  
     252A      0.304387   253A      0.307665   254A      0.310589  
     255A      0.314052   256A      0.315966   257A      0.318958  
     258A      0.320453   259A      0.324292   260A      0.327702  
     261A      0.329017   262A      0.330776   263A      0.333570  
     264A      0.334399   265A      0.335944   266A      0.339619  
     267A      0.342202   268A      0.343442   269A      0.344796  
     270A      0.345386   271A      0.348263   272A      0.351738  
     273A      0.353623   274A      0.355086   275A      0.355715  
     276A      0.358778   277A      0.360839   278A      0.363417  
     279A      0.366240   280A      0.366673   281A      0.367833  
     282A      0.368247   283A      0.372171   284A      0.373941  
     285A      0.375354   286A      0.377660   287A      0.379482  
     288A      0.382272   289A      0.384186   290A      0.384901  
     291A      0.386364   292A      0.388693   293A      0.389902  
     294A      0.392760   295A      0.394499   296A      0.395852  
     297A      0.398527   298A      0.400196   299A      0.401736  
     300A      0.402421   301A      0.402739   302A      0.406410  
     303A      0.407404   304A      0.409541   305A      0.410279  
     306A      0.413811   307A      0.414309   308A      0.417328  
     309A      0.419577   310A      0.421424   311A      0.423097  
     312A      0.423668   313A      0.427838   314A      0.428742  
     315A      0.429501   316A      0.431676   317A      0.432981  
     318A      0.433683   319A      0.436349   320A      0.440477  
     321A      0.441000   322A      0.444292   323A      0.445096  
     324A      0.446696   325A      0.447953   326A      0.449368  
     327A      0.451293   328A      0.453529   329A      0.455181  
     330A      0.457531   331A      0.460909   332A      0.465571  
     333A      0.466389   334A      0.468286   335A      0.469086  
     336A      0.470823   337A      0.473186   338A      0.475542  
     339A      0.479050   340A      0.479643   341A      0.481578  
     342A      0.486240   343A      0.488384   344A      0.490203  
     345A      0.491421   346A      0.494774   347A      0.497684  
     348A      0.501870   349A      0.502240   350A      0.509007  
     351A      0.509256   352A      0.510149   353A      0.514185  
     354A      0.516100   355A      0.518097   356A      0.519624  
     357A      0.521405   358A      0.528596   359A      0.529558  
     360A      0.534401   361A      0.538305   362A      0.539051  
     363A      0.542416   364A      0.546175   365A      0.547698  
     366A      0.551624   367A      0.554772   368A      0.559425  
     369A      0.563275   370A      0.568896   371A      0.573993  
     372A      0.576475   373A      0.579031   374A      0.581676  
     375A      0.585761   376A      0.591790   377A      0.596258  
     378A      0.600797   379A      0.601882   380A      0.608151  
     381A      0.611507   382A      0.616953   383A      0.620134  
     384A      0.623093   385A      0.626578   386A      0.631905  
     387A      0.640636   388A      0.652760   389A      0.660371  
     390A      0.663749   391A      0.670591   392A      0.678820  
     393A      0.682373   394A      0.686372   395A      0.690403  
     396A      0.693245   397A      0.696942   398A      0.699397  
     399A      0.700821   400A      0.705911   401A      0.710524  
     402A      0.713093   403A      0.714204   404A      0.718151  
     405A      0.725074   406A      0.726161   407A      0.731742  
     408A      0.735375   409A      0.738698   410A      0.739492  
     411A      0.742667   412A      0.747027   413A      0.750258  
     414A      0.753290   415A      0.753945   416A      0.756453  
     417A      0.759148   418A      0.761494   419A      0.764618  
     420A      0.768035   421A      0.769105   422A      0.771438  
     423A      0.772509   424A      0.776910   425A      0.777436  
     426A      0.781458   427A      0.784528   428A      0.787006  
     429A      0.788703   430A      0.791306   431A      0.793036  
     432A      0.796702   433A      0.800899   434A      0.805737  
     435A      0.806928   436A      0.812948   437A      0.815409  
     438A      0.817794   439A      0.820231   440A      0.821136  
     441A      0.823666   442A      0.824323   443A      0.827674  
     444A      0.830805   445A      0.834845   446A      0.839833  
     447A      0.841632   448A      0.843457   449A      0.846381  
     450A      0.847238   451A      0.850072   452A      0.851669  
     453A      0.855685   454A      0.856915   455A      0.861317  
     456A      0.862375   457A      0.867237   458A      0.868564  
     459A      0.872463   460A      0.874331   461A      0.876135  
     462A      0.881429   463A      0.882251   464A      0.884071  
     465A      0.886270   466A      0.887780   467A      0.890355  
     468A      0.893646   469A      0.895420   470A      0.898618  
     471A      0.902286   472A      0.904623   473A      0.907264  
     474A      0.907426   475A      0.908559   476A      0.910861  
     477A      0.914637   478A      0.916046   479A      0.917735  
     480A      0.918984   481A      0.921364   482A      0.922757  
     483A      0.926791   484A      0.928628   485A      0.930391  
     486A      0.936930   487A      0.939093   488A      0.943979  
     489A      0.945375   490A      0.946323   491A      0.949880  
     492A      0.952480   493A      0.956723   494A      0.958224  
     495A      0.962651   496A      0.962831   497A      0.965364  
     498A      0.966675   499A      0.968263   500A      0.971880  
     501A      0.976156   502A      0.977441   503A      0.980278  
     504A      0.982257   505A      0.985346   506A      0.987780  
     507A      0.991061   508A      0.994076   509A      0.997729  
     510A      0.998991   511A      1.002916   512A      1.004082  
     513A      1.007514   514A      1.010369   515A      1.010848  
     516A      1.011606   517A      1.013956   518A      1.016269  
     519A      1.019788   520A      1.023039   521A      1.026873  
     522A      1.030135   523A      1.033964   524A      1.036818  
     525A      1.038652   526A      1.045755   527A      1.046704  
     528A      1.049362   529A      1.052570   530A      1.055651  
     531A      1.056782   532A      1.062301   533A      1.063662  
     534A      1.070163   535A      1.072388   536A      1.073865  
     537A      1.076266   538A      1.080115   539A      1.086607  
     540A      1.087786   541A      1.090536   542A      1.093991  
     543A      1.096950   544A      1.099487   545A      1.101488  
     546A      1.106240   547A      1.106794   548A      1.111139  
     549A      1.112797   550A      1.113546   551A      1.118788  
     552A      1.123679   553A      1.125002   554A      1.128765  
     555A      1.130945   556A      1.134724   557A      1.138397  
     558A      1.143020   559A      1.145237   560A      1.146440  
     561A      1.154274   562A      1.155679   563A      1.156377  
     564A      1.159704   565A      1.165046   566A      1.168895  
     567A      1.170901   568A      1.174779   569A      1.178481  
     570A      1.181850   571A      1.190339   572A      1.191177  
     573A      1.194082   574A      1.199891   575A      1.205787  
     576A      1.209097   577A      1.215588   578A      1.217261  
     579A      1.217632   580A      1.218548   581A      1.224750  
     582A      1.228532   583A      1.233180   584A      1.239528  
     585A      1.244411   586A      1.245073   587A      1.249030  
     588A      1.255121   589A      1.257802   590A      1.265192  
     591A      1.267063   592A      1.269166   593A      1.275492  
     594A      1.276133   595A      1.278876   596A      1.285553  
     597A      1.288149   598A      1.290176   599A      1.291485  
     600A      1.295745   601A      1.297733   602A      1.302513  
     603A      1.307072   604A      1.314919   605A      1.320164  
     606A      1.326066   607A      1.329353   608A      1.330744  
     609A      1.334917   610A      1.339630   611A      1.342331  
     612A      1.345295   613A      1.351760   614A      1.352642  
     615A      1.355267   616A      1.356687   617A      1.364095  
     618A      1.371035   619A      1.374810   620A      1.376050  
     621A      1.384243   622A      1.384547   623A      1.387269  
     624A      1.389988   625A      1.390294   626A      1.394244  
     627A      1.401574   628A      1.404844   629A      1.411333  
     630A      1.413144   631A      1.417516   632A      1.418805  
     633A      1.422527   634A      1.425633   635A      1.431709  
     636A      1.432023   637A      1.438760   638A      1.443116  
     639A      1.446440   640A      1.448177   641A      1.453089  
     642A      1.456997   643A      1.462775   644A      1.466141  
     645A      1.467681   646A      1.469321   647A      1.472813  
     648A      1.478092   649A      1.486553   650A      1.487944  
     651A      1.492935   652A      1.500510   653A      1.506402  
     654A      1.510891   655A      1.512967   656A      1.517854  
     657A      1.519256   658A      1.524084   659A      1.530254  
     660A      1.532126   661A      1.535531   662A      1.537991  
     663A      1.544269   664A      1.547933   665A      1.549151  
     666A      1.553210   667A      1.554514   668A      1.558792  
     669A      1.561620   670A      1.564297   671A      1.564757  
     672A      1.571675   673A      1.575764   674A      1.577840  
     675A      1.580095   676A      1.585683   677A      1.586978  
     678A      1.593087   679A      1.596586   680A      1.601943  
     681A      1.606441   682A      1.609539   683A      1.612672  
     684A      1.614198   685A      1.619684   686A      1.621319  
     687A      1.623720   688A      1.628722   689A      1.632716  
     690A      1.634973   691A      1.638861   692A      1.640637  
     693A      1.643877   694A      1.646457   695A      1.655260  
     696A      1.655937   697A      1.657066   698A      1.661713  
     699A      1.669005   700A      1.669564   701A      1.671024  
     702A      1.676850   703A      1.681451   704A      1.684934  
     705A      1.689086   706A      1.693308   707A      1.696680  
     708A      1.699645   709A      1.704072   710A      1.704249  
     711A      1.707001   712A      1.713793   713A      1.715213  
     714A      1.722471   715A      1.724189   716A      1.728681  
     717A      1.732012   718A      1.734445   719A      1.735513  
     720A      1.742038   721A      1.745686   722A      1.747952  
     723A      1.753498   724A      1.758066   725A      1.759648  
     726A      1.764907   727A      1.770321   728A      1.778471  
     729A      1.780636   730A      1.784402   731A      1.787459  
     732A      1.791464   733A      1.792972   734A      1.796483  
     735A      1.805844   736A      1.807558   737A      1.809828  
     738A      1.813828   739A      1.817063   740A      1.819566  
     741A      1.822928   742A      1.826283   743A      1.828065  
     744A      1.837726   745A      1.841774   746A      1.845631  
     747A      1.852041   748A      1.856568   749A      1.859518  
     750A      1.861955   751A      1.865811   752A      1.875807  
     753A      1.883565   754A      1.884594   755A      1.887992  
     756A      1.891016   757A      1.894297   758A      1.900426  
     759A      1.907517   760A      1.910400   761A      1.913442  
     762A      1.916835   763A      1.925678   764A      1.932079  
     765A      1.934185   766A      1.939363   767A      1.944765  
     768A      1.952979   769A      1.955939   770A      1.960675  
     771A      1.971155   772A      1.976895   773A      1.979313  
     774A      1.987408   775A      1.996986   776A      1.998364  
     777A      2.005810   778A      2.015972   779A      2.017345  
     780A      2.024962   781A      2.034181   782A      2.040885  
     783A      2.048564   784A      2.054936   785A      2.057472  
     786A      2.063504   787A      2.067694   788A      2.076774  
     789A      2.085109   790A      2.088416   791A      2.096306  
     792A      2.107554   793A      2.112000   794A      2.120357  
     795A      2.125467   796A      2.136367   797A      2.144198  
     798A      2.153164   799A      2.155104   800A      2.167708  
     801A      2.180764   802A      2.183749   803A      2.197727  
     804A      2.203839   805A      2.207983   806A      2.215386  
     807A      2.222627   808A      2.226982   809A      2.233529  
     810A      2.244428   811A      2.254858   812A      2.260647  
     813A      2.273198   814A      2.285515   815A      2.291585  
     816A      2.293777   817A      2.313470   818A      2.319699  
     819A      2.327662   820A      2.337432   821A      2.342220  
     822A      2.351079   823A      2.358462   824A      2.362002  
     825A      2.371343   826A      2.382352   827A      2.394909  
     828A      2.405894   829A      2.408991   830A      2.424560  
     831A      2.432078   832A      2.441856   833A      2.455424  
     834A      2.464446   835A      2.466774   836A      2.495301  
     837A      2.509607   838A      2.523477   839A      2.536710  
     840A      2.552408   841A      2.585573   842A      2.613386  
     843A      2.621523   844A      2.648571   845A      2.676592  
     846A      2.710134   847A      2.730861   848A      2.782948  
     849A      2.843614   850A      2.857574   851A      2.948356  
     852A      2.953035   853A      2.987387   854A      3.089732  
     855A      3.095416   856A      3.129921   857A      3.130634  
     858A      3.149239   859A      3.159851   860A      3.166543  
     861A      3.174520   862A      3.192877   863A      3.207044  
     864A      3.211668   865A      3.214269   866A      3.231094  
     867A      3.237858   868A      3.245956   869A      3.249138  
     870A      3.258934   871A      3.263887   872A      3.270218  
     873A      3.275654   874A      3.293795   875A      3.297647  
     876A      3.305129   877A      3.307172   878A      3.315410  
     879A      3.324379   880A      3.334578   881A      3.338332  
     882A      3.345324   883A      3.352516   884A      3.364811  
     885A      3.373234   886A      3.385896   887A      3.393596  
     888A      3.403963   889A      3.406299   890A      3.412908  
     891A      3.420804   892A      3.425128   893A      3.433757  
     894A      3.434875   895A      3.440964   896A      3.451938  
     897A      3.455582   898A      3.457442   899A      3.468900  
     900A      3.477833   901A      3.483941   902A      3.485793  
     903A      3.493583   904A      3.500503   905A      3.501645  
     906A      3.519031   907A      3.524355   908A      3.527914  
     909A      3.532768   910A      3.538885   911A      3.545270  
     912A      3.554559   913A      3.559309   914A      3.564197  
     915A      3.571060   916A      3.577031   917A      3.581388  
     918A      3.588366   919A      3.596085   920A      3.596853  
     921A      3.599834   922A      3.606004   923A      3.609150  
     924A      3.618771   925A      3.623973   926A      3.626603  
     927A      3.632481   928A      3.642860   929A      3.650000  
     930A      3.651192   931A      3.654824   932A      3.664078  
     933A      3.673363   934A      3.674396   935A      3.680617  
     936A      3.685756   937A      3.691060   938A      3.696160  
     939A      3.697945   940A      3.702523   941A      3.709389  
     942A      3.713755   943A      3.715509   944A      3.719173  
     945A      3.722686   946A      3.726179   947A      3.731792  
     948A      3.734211   949A      3.740178   950A      3.743040  
     951A      3.745316   952A      3.750719   953A      3.754771  
     954A      3.758775   955A      3.760576   956A      3.762953  
     957A      3.765098   958A      3.774104   959A      3.777255  
     960A      3.781011   961A      3.787217   962A      3.790665  
     963A      3.796645   964A      3.797516   965A      3.805156  
     966A      3.805300   967A      3.811035   968A      3.814678  
     969A      3.816472   970A      3.824811   971A      3.826739  
     972A      3.829511   973A      3.832451   974A      3.837764  
     975A      3.839722   976A      3.847367   977A      3.851312  
     978A      3.860312   979A      3.861586   980A      3.863425  
     981A      3.871327   982A      3.874061   983A      3.878138  
     984A      3.890608   985A      3.897051   986A      3.900867  
     987A      3.906134   988A      3.907331   989A      3.914114  
     990A      3.916933   991A      3.926493   992A      3.928509  
     993A      3.933410   994A      3.939788   995A      3.941033  
     996A      3.948181   997A      3.953734   998A      3.957867  
     999A      3.959717  1000A      3.961969  1001A      3.963600  
    1002A      3.967590  1003A      3.971343  1004A      3.976206  
    1005A      3.980516  1006A      3.982713  1007A      3.987101  
    1008A      3.992731  1009A      4.001625  1010A      4.003177  
    1011A      4.009972  1012A      4.010275  1013A      4.016136  
    1014A      4.018547  1015A      4.020680  1016A      4.023898  
    1017A      4.025093  1018A      4.030047  1019A      4.032521  
    1020A      4.037758  1021A      4.040961  1022A      4.044591  
    1023A      4.048209  1024A      4.052081  1025A      4.056687  
    1026A      4.062646  1027A      4.064658  1028A      4.070249  
    1029A      4.071967  1030A      4.075107  1031A      4.082358  
    1032A      4.089803  1033A      4.095139  1034A      4.098975  
    1035A      4.101949  1036A      4.105162  1037A      4.113362  
    1038A      4.117955  1039A      4.122104  1040A      4.124481  
    1041A      4.125785  1042A      4.132331  1043A      4.139789  
    1044A      4.142930  1045A      4.152770  1046A      4.156847  
    1047A      4.165322  1048A      4.165464  1049A      4.169700  
    1050A      4.174786  1051A      4.177023  1052A      4.187736  
    1053A      4.195562  1054A      4.202183  1055A      4.207223  
    1056A      4.211375  1057A      4.213979  1058A      4.218932  
    1059A      4.222909  1060A      4.231265  1061A      4.234549  
    1062A      4.251117  1063A      4.253582  1064A      4.258765  
    1065A      4.260500  1066A      4.264312  1067A      4.270708  
    1068A      4.276234  1069A      4.287529  1070A      4.293090  
    1071A      4.305854  1072A      4.307053  1073A      4.311500  
    1074A      4.314219  1075A      4.319406  1076A      4.329705  
    1077A      4.334420  1078A      4.339865  1079A      4.342325  
    1080A      4.344041  1081A      4.347738  1082A      4.352586  
    1083A      4.358969  1084A      4.363635  1085A      4.366911  
    1086A      4.371905  1087A      4.374954  1088A      4.378602  
    1089A      4.381584  1090A      4.387250  1091A      4.389923  
    1092A      4.394297  1093A      4.400522  1094A      4.404360  
    1095A      4.410373  1096A      4.413161  1097A      4.414895  
    1098A      4.419372  1099A      4.422922  1100A      4.427986  
    1101A      4.434320  1102A      4.437368  1103A      4.446583  
    1104A      4.447853  1105A      4.454504  1106A      4.457032  
    1107A      4.458723  1108A      4.459958  1109A      4.466746  
    1110A      4.468570  1111A      4.471087  1112A      4.477788  
    1113A      4.480072  1114A      4.488474  1115A      4.494386  
    1116A      4.496431  1117A      4.503587  1118A      4.504332  
    1119A      4.507733  1120A      4.515423  1121A      4.518583  
    1122A      4.523459  1123A      4.528848  1124A      4.532261  
    1125A      4.536247  1126A      4.541140  1127A      4.542575  
    1128A      4.545357  1129A      4.549140  1130A      4.553885  
    1131A      4.564112  1132A      4.570483  1133A      4.574236  
    1134A      4.576011  1135A      4.578827  1136A      4.587228  
    1137A      4.591982  1138A      4.601218  1139A      4.603064  
    1140A      4.615359  1141A      4.622878  1142A      4.627826  
    1143A      4.631734  1144A      4.637170  1145A      4.644752  
    1146A      4.651294  1147A      4.657696  1148A      4.659705  
    1149A      4.670590  1150A      4.679093  1151A      4.685915  
    1152A      4.693168  1153A      4.696956  1154A      4.705327  
    1155A      4.709140  1156A      4.722912  1157A      4.733392  
    1158A      4.749562  1159A      4.753915  1160A      4.758763  
    1161A      4.767327  1162A      4.769100  1163A      4.782408  
    1164A      4.784801  1165A      4.791592  1166A      4.802790  
    1167A      4.820215  1168A      4.830470  1169A      4.848327  
    1170A      4.858534  1171A      4.868239  1172A      4.876746  
    1173A      4.884383  1174A      4.894889  1175A      4.898124  
    1176A      4.918153  1177A      4.919985  1178A      4.932888  
    1179A      4.944556  1180A      4.960843  1181A      5.016946  
    1182A      5.048641  1183A      5.072424  1184A      5.131614  
    1185A      5.133426  1186A      5.136407  1187A      5.149431  
    1188A      5.164140  1189A      5.200948  1190A      5.230388  
    1191A      5.256512  1192A      5.273823  1193A      5.302928  
    1194A      5.311697  1195A      5.327866  1196A      5.381872  
    1197A      5.400332  1198A      5.414567  1199A      5.419965  
    1200A      5.443604  1201A      5.444788  1202A      5.449277  
    1203A      5.452797  1204A      5.470699  1205A      5.474323  
    1206A      5.476899  1207A      5.481682  1208A      5.485230  
    1209A      5.492523  1210A      5.508960  1211A      5.513607  
    1212A      5.517818  1213A      5.528691  1214A      5.529594  
    1215A      5.535577  1216A      5.542006  1217A      5.551986  
    1218A      5.558222  1219A      5.564212  1220A      5.574558  
    1221A      5.595154  1222A      5.599848  1223A      5.601498  
    1224A      5.604392  1225A      5.620262  1226A      5.627329  
    1227A      5.633027  1228A      5.642531  1229A      5.653096  
    1230A      5.670337  1231A      5.678785  1232A      5.688128  
    1233A      5.700947  1234A      5.717120  1235A      5.732449  
    1236A      5.743360  1237A      5.753950  1238A      5.767758  
    1239A      5.782032  1240A      5.793444  1241A      5.819172  
    1242A      5.820629  1243A      5.842425  1244A      5.866489  
    1245A      5.896301  1246A      5.905411  1247A      5.912373  
    1248A      5.920684  1249A      5.947379  1250A      5.962510  
    1251A      5.992926  1252A      6.067170  1253A      6.098472  
    1254A      6.104262  1255A      6.130434  1256A      6.149541  
    1257A      6.173717  1258A      6.192762  1259A      6.201726  
    1260A      6.205129  1261A      6.275380  1262A      6.310812  
    1263A      6.334538  1264A      6.384137  1265A      6.442754  
    1266A      6.498312  1267A      6.761489  1268A      7.435505  
    1269A      7.529669  1270A      7.676667  1271A      7.860365  
    1272A      7.918975  1273A     24.893033  1274A     24.930342  
    1275A     24.963233  1276A     25.031491  1277A     25.062522  
    1278A     25.123782  1279A     25.143605  1280A     25.146885  
    1281A     25.188968  1282A     25.201507  1283A     25.205578  
    1284A     25.226686  1285A     25.230792  1286A     25.233037  
    1287A     25.239949  1288A     25.252020  1289A     25.258237  
    1290A     25.287001  1291A     25.287670  1292A     25.302264  
    1293A     25.309168  1294A     25.342728  1295A     25.347616  
    1296A     25.384917  1297A     25.422188  1298A     25.424929  
    1299A     25.437906  1300A     25.465672  1301A     25.527183  
    1302A     37.022727  1303A     37.122368  1304A     37.134657  
    1305A     37.156581  1306A     37.192942  1307A     37.212969  
    1308A     37.256536  1309A     51.812044  

    Final Occupation by Irrep:
              A 
    DOCC [   131 ]

  @DF-RHF Final Energy: -1572.66074783370004

   => Energetics <=

    Nuclear Repulsion Energy =           3895.1179563145465181
    One-Electron Energy =               -9889.3832985872923018
    Two-Electron Energy =                4421.6045944390452860
    Total Energy =                      -1572.6607478337000430

Computation Completed


Properties will be evaluated at   0.000000,   0.000000,   0.000000 [a0]

Properties computed using the SCF density matrix

  Nuclear Dipole Moment: [e a0]
     X:   -30.6038      Y:     7.0486      Z:     8.4901

  Electronic Dipole Moment: [e a0]
     X:    30.5972      Y:    -4.2044      Z:    -8.3508

  Dipole Moment: [e a0]
     X:    -0.0066      Y:     2.8442      Z:     0.1393     Total:     2.8476

  Dipole Moment: [D]
     X:    -0.0168      Y:     7.2292      Z:     0.3541     Total:     7.2379


*** tstop() called on node144.bme.utexas.edu at Wed Jan  8 16:22:05 2020
Module time:
	user time   =    5345.02 seconds =      89.08 minutes
	system time =      61.41 seconds =       1.02 minutes
	total time  =        559 seconds =       9.32 minutes
Total time:
	user time   =    5345.02 seconds =      89.08 minutes
	system time =      61.41 seconds =       1.02 minutes
	total time  =        559 seconds =       9.32 minutes

*** tstart() called on node144.bme.utexas.edu
*** at Wed Jan  8 16:22:05 2020


  //>>>>>>>>>>>>>>>>>>>>>>>>>>>>>>>>>>>//
  //               DFMP2               //
  //<<<<<<<<<<<<<<<<<<<<<<<<<<<<<<<<<<<//

   => Loading Basis Set <=

    Name: (6-311++G(2D,2P) AUX)
    Role: RIFIT
    Keyword: DF_BASIS_MP2
    atoms 1-4, 6-9, 11, 14-19, 21-28, 30-31, 33-35, 37 entry C          line   148 file /home/liuchw/anaconda3/envs/psi4env/share/psi4/basis/aug-cc-pvtz-ri.gbs 
    atoms 5, 10, 12-13, 20, 29, 32                     entry N          line   206 file /home/liuchw/anaconda3/envs/psi4env/share/psi4/basis/aug-cc-pvtz-ri.gbs 
    atoms 36                                           entry O          line   264 file /home/liuchw/anaconda3/envs/psi4env/share/psi4/basis/aug-cc-pvtz-ri.gbs 
    atoms 38-68                                        entry H          line    30 file /home/liuchw/anaconda3/envs/psi4env/share/psi4/basis/aug-cc-pvtz-ri.gbs 

	 --------------------------------------------------------
	                          DF-MP2                         
	      2nd-Order Density-Fitted Moller-Plesset Theory     
	              RMP2 Wavefunction,  10 Threads             
	                                                         
	        Rob Parrish, Justin Turney, Andy Simmonett,      
	           Ed Hohenstein, and C. David Sherrill          
	 --------------------------------------------------------

   => Auxiliary Basis Set <=

  Basis Set: (6-311++G(2D,2P) AUX)
    Blend: AUG-CC-PVTZ-RI
    Number of shells: 1470
    Number of basis function: 5348
    Number of Cartesian functions: 6737
    Spherical Harmonics?: true
    Max angular momentum: 4

	 --------------------------------------------------------
	                 NBF =  1309, NAUX =  5348
	 --------------------------------------------------------
	   CLASS    FOCC     OCC    AOCC    AVIR     VIR    FVIR
	   PAIRS      37     131      94    1178    1178       0
	 --------------------------------------------------------

	-----------------------------------------------------------
	 ==================> DF-MP2 Energies <==================== 
	-----------------------------------------------------------
	 Reference Energy          =   -1572.6607478337000430 [Eh]
	 Singles Energy            =      -0.0000000000000000 [Eh]
	 Same-Spin Energy          =      -1.5403382740759521 [Eh]
	 Opposite-Spin Energy      =      -4.2435575660695282 [Eh]
	 Correlation Energy        =      -5.7838958401454805 [Eh]
	 Total Energy              =   -1578.4446436738455759 [Eh]
	-----------------------------------------------------------
	 ================> DF-SCS-MP2 Energies <================== 
	-----------------------------------------------------------
	 SCS Same-Spin Scale       =       0.3333333333333333 [-]
	 SCS Opposite-Spin Scale   =       1.2000000000000000 [-]
	 SCS Same-Spin Energy      =      -0.5134460913586507 [Eh]
	 SCS Opposite-Spin Energy  =      -5.0922690792834340 [Eh]
	 SCS Correlation Energy    =      -5.6057151706420845 [Eh]
	 SCS Total Energy          =   -1578.2664630043420857 [Eh]
	-----------------------------------------------------------


*** tstop() called on node144.bme.utexas.edu at Wed Jan  8 16:30:37 2020
Module time:
	user time   =    4554.23 seconds =      75.90 minutes
	system time =      43.18 seconds =       0.72 minutes
	total time  =        512 seconds =       8.53 minutes
Total time:
	user time   =    9899.26 seconds =     164.99 minutes
	system time =     104.59 seconds =       1.74 minutes
	total time  =       1071 seconds =      17.85 minutes


Properties will be evaluated at   0.000000,   0.000000,   0.000000 [a0]
OEProp: No title given, name of density matrix used for the following properties is 'SCF density'
  Nuclear Dipole Moment: [e a0]
     X:   -30.6038      Y:     7.0486      Z:     8.4901

  Electronic Dipole Moment: [e a0]
     X:    30.5972      Y:    -4.2044      Z:    -8.3508

  Dipole Moment: [e a0]
     X:    -0.0066      Y:     2.8442      Z:     0.1393     Total:     2.8476

  Dipole Moment: [D]
     X:    -0.0168      Y:     7.2292      Z:     0.3541     Total:     7.2379


 Electrostatic potential computed on the grid and written to grid_esp.dat

    Psi4 stopped on: Wednesday, 08 January 2020 07:31PM
    Psi4 wall time for execution: 3:18:53.18

*** Psi4 exiting successfully. Buy a developer a beer!
