
Host: node144.bme.utexas.edu

Timers On : Wed Jan  8 15:28:53 2020
Timers Off: Wed Jan  8 16:12:43 2020

Wall Time:     2629.76 seconds

                                                       Time (seconds)
Module                                       User      System        Wall        Calls
DFH: sparsity prep                  :      0.933u      0.117s      0.627w      1 calls
DFH: initialize()                   :    821.183u      9.467s     51.690w      1 calls
DFH: AO Construction                :    207.333u      1.683s     12.542w      1 calls
DFH: AO-Met. Contraction            :    460.233u      3.900s     29.380w      1 calls
HF: Form core H                     :      0.050u      0.033s      0.066w      1 calls
HF: Form S/X                        :      3.850u      0.167s      0.241w      1 calls
HF: Guess                           :     16.533u      1.133s      1.161w      1 calls
SAD Guess                           :     16.200u      1.100s      1.140w      1 calls
HF: Form G                          :   1498.483u     22.333s     91.458w     15 calls
JK: D                               :      0.517u      0.033s      0.032w     15 calls
JK: USO2AO                          :      0.500u      0.050s      0.031w     15 calls
JK: JK                              :   1496.650u     22.200s     91.342w     15 calls
DFH: compute_JK()                   :   1496.650u     22.200s     91.342w     15 calls
DFH: Grabbing AOs                   :      0.000u      0.000s      0.000w     15 calls
DFH: compute_J                      :     89.800u      0.850s      5.438w     15 calls
DFH: compute_K                      :   1404.550u     20.583s     85.674w     15 calls
JK: AO2USO                          :      0.000u      0.000s      0.000w     15 calls
HF: Form F                          :      0.450u      0.017s      0.025w     15 calls
HF: Form D                          :      0.367u      0.000s      0.025w     15 calls
HF: DIIS                            :     18.333u      2.267s      1.234w     14 calls
DIISManager::add_entry              :      1.667u      0.267s      0.115w     14 calls
DIISManager::extrapolate            :      8.383u      1.433s      0.587w     14 calls
bMatrix setup                       :      5.383u      1.033s      0.384w     14 calls
bMatrix pseudoinverse               :      0.000u      0.000s      0.002w     14 calls
New vector                          :      3.000u      0.400s      0.201w     14 calls
HF: Form C                          :     41.867u      1.517s      2.603w     14 calls
DFMP2 Singles                       :      0.450u      0.033s      0.028w      1 calls
DFMP2 Aia                           :    716.200u     10.917s     55.843w      1 calls
DFMP2 (A|mn)                        :    610.183u      0.033s     36.615w      1 calls
DFMP2 (A|mn)C_mi                    :     51.733u      0.150s      3.114w      1 calls
DFMP2 (A|mi)C_na                    :     36.300u      0.033s      2.180w      1 calls
DFMP2 Aia Write                     :      2.400u      1.933s      1.043w      1 calls
DFMP2 Qia                           :    297.200u      8.233s     20.961w      1 calls
DFMP2 Metric                        :    141.667u      3.467s      8.919w      1 calls
DFMP2 Aia Read                      :      0.017u      0.967s      0.587w      1 calls
DFMP2 (Q|A)(A|ia)                   :    151.000u      0.433s      9.103w      1 calls
DFMP2 Qia Write                     :      1.133u      1.883s      1.087w      1 calls
DFMP2 Energy                        :   1379.767u      6.567s     85.722w      1 calls
DFMP2 Qia Read                      :      1.033u      0.950s      1.183w      2 calls

--------------------------------------------------------------------------------------
DFH: sparsity prep                  :      0.933u      0.117s      0.627w      1 calls
DFH: initialize()                   :    821.183u      9.467s     51.690w      1 calls
| DFH: AO Construction              :    207.333u      1.683s     12.542w      1 calls
| DFH: AO-Met. Contraction          :    460.233u      3.900s     29.380w      1 calls
HF: Form core H                     :      0.050u      0.033s      0.066w      1 calls
HF: Form S/X                        :      3.850u      0.167s      0.241w      1 calls
HF: Guess                           :     16.533u      1.133s      1.161w      1 calls
| SAD Guess                         :     16.200u      1.100s      1.140w      1 calls
HF: Form G                          :   1498.483u     22.333s     91.458w     15 calls
| JK: D                             :      0.517u      0.033s      0.032w     15 calls
| JK: USO2AO                        :      0.500u      0.050s      0.031w     15 calls
| JK: JK                            :   1496.650u     22.200s     91.342w     15 calls
| | DFH: compute_JK()               :   1496.650u     22.200s     91.342w     15 calls
| | | DFH: Grabbing AOs             :      0.000u      0.000s      0.000w     15 calls
| | | DFH: compute_J                :     89.800u      0.850s      5.438w     15 calls
| | | DFH: compute_K                :   1404.550u     20.583s     85.674w     15 calls
| JK: AO2USO                        :      0.000u      0.000s      0.000w     15 calls
HF: Form F                          :      0.450u      0.017s      0.025w     15 calls
HF: Form D                          :      0.367u      0.000s      0.025w     15 calls
HF: DIIS                            :     18.333u      2.267s      1.234w     14 calls
| DIISManager::add_entry            :      1.667u      0.267s      0.115w     14 calls
| DIISManager::extrapolate          :      8.383u      1.433s      0.587w     14 calls
| | bMatrix setup                   :      5.383u      1.033s      0.384w     14 calls
| | bMatrix pseudoinverse           :      0.000u      0.000s      0.002w     14 calls
| | New vector                      :      3.000u      0.400s      0.201w     14 calls
HF: Form C                          :     41.867u      1.517s      2.603w     14 calls
DFMP2 Singles                       :      0.450u      0.033s      0.028w      1 calls
DFMP2 Aia                           :    716.200u     10.917s     55.843w      1 calls
| DFMP2 (A|mn)                      :    610.183u      0.033s     36.615w      1 calls
| DFMP2 (A|mn)C_mi                  :     51.733u      0.150s      3.114w      1 calls
| DFMP2 (A|mi)C_na                  :     36.300u      0.033s      2.180w      1 calls
| DFMP2 Aia Write                   :      2.400u      1.933s      1.043w      1 calls
DFMP2 Qia                           :    297.200u      8.233s     20.961w      1 calls
| DFMP2 Metric                      :    141.667u      3.467s      8.919w      1 calls
| DFMP2 Aia Read                    :      0.017u      0.967s      0.587w      1 calls
| DFMP2 (Q|A)(A|ia)                 :    151.000u      0.433s      9.103w      1 calls
| DFMP2 Qia Write                   :      1.133u      1.883s      1.087w      1 calls
DFMP2 Energy                        :   1379.767u      6.567s     85.722w      1 calls
| DFMP2 Qia Read                    :      1.033u      0.950s      1.183w      2 calls

**************************************************************************************

Host: node144.bme.utexas.edu

Timers On : Wed Jan  8 16:12:46 2020
Timers Off: Wed Jan  8 19:31:40 2020

Wall Time:    11933.73 seconds

                                                       Time (seconds)
Module                                       User      System        Wall        Calls
DFH: sparsity prep                  :      3.833u      0.500s      1.336w      1 calls
DFH: initialize()                   :   3489.183u     35.783s    220.709w      1 calls
DFH: AO Construction                :    713.333u      5.200s     43.948w      2 calls
DFH: AO-Met. Contraction            :   2355.817u     22.200s    150.518w      2 calls
HF: Form core H                     :      0.167u      0.033s      0.084w      1 calls
HF: Form S/X                        :      8.700u      0.350s      0.544w      1 calls
HF: Guess                           :     17.117u      1.050s      1.154w      1 calls
SAD Guess                           :     16.717u      1.033s      1.129w      1 calls
HF: Form G                          :   5152.933u     53.850s    315.875w     15 calls
JK: D                               :      0.967u      0.050s      0.062w     15 calls
JK: USO2AO                          :      0.900u      0.067s      0.056w     15 calls
JK: JK                              :   5149.167u     53.550s    315.626w     15 calls
DFH: compute_JK()                   :   5149.150u     53.550s    315.625w     15 calls
DFH: Grabbing AOs                   :      0.000u      0.000s      0.000w     15 calls
DFH: compute_J                      :    355.667u      9.250s     21.896w     15 calls
DFH: compute_K                      :   4790.250u     43.250s    293.205w     15 calls
JK: AO2USO                          :      0.000u      0.000s      0.000w     15 calls
HF: Form F                          :      1.117u      0.067s      0.072w     15 calls
HF: Form D                          :      0.967u      0.000s      0.060w     15 calls
HF: DIIS                            :     54.867u      4.650s      3.573w     14 calls
DIISManager::add_entry              :      4.267u      0.650s      0.297w     14 calls
DIISManager::extrapolate            :     20.467u      3.133s      1.418w     14 calls
bMatrix setup                       :      9.917u      1.767s      0.702w     14 calls
bMatrix pseudoinverse               :      0.033u      0.000s      0.002w     14 calls
New vector                          :     10.500u      1.367s      0.713w     14 calls
HF: Form C                          :    119.350u      3.717s      7.383w     14 calls
DFMP2 Singles                       :      1.317u      0.050s      0.082w      1 calls
DFMP2 Aia                           :   1930.750u     39.933s    157.626w      1 calls
DFMP2 (A|mn)                        :   1598.183u      5.933s     98.813w      1 calls
DFMP2 (A|mn)C_mi                    :    156.667u      2.667s      9.779w      1 calls
DFMP2 (A|mi)C_na                    :    133.233u      1.167s      8.084w      1 calls
DFMP2 Aia Write                     :      1.617u      3.900s      2.292w      1 calls
DFMP2 Qia                           :    826.900u     17.183s     56.904w      1 calls
DFMP2 Metric                        :    370.400u      7.133s     22.901w      1 calls
DFMP2 Aia Read                      :      0.067u      2.267s      1.393w      1 calls
DFMP2 (Q|A)(A|ia)                   :    450.483u      0.517s     27.192w      1 calls
DFMP2 Qia Write                     :      1.617u      4.067s      2.377w      1 calls
DFMP2 Energy                        :   4821.017u     14.567s    296.084w      1 calls
DFMP2 Qia Read                      :      2.300u      2.267s      2.737w      2 calls

--------------------------------------------------------------------------------------
DFH: sparsity prep                  :      3.833u      0.500s      1.336w      1 calls
DFH: initialize()                   :   3489.183u     35.783s    220.709w      1 calls
| DFH: AO Construction              :    713.333u      5.200s     43.948w      2 calls
| DFH: AO-Met. Contraction          :   2355.817u     22.200s    150.518w      2 calls
HF: Form core H                     :      0.167u      0.033s      0.084w      1 calls
HF: Form S/X                        :      8.700u      0.350s      0.544w      1 calls
HF: Guess                           :     17.117u      1.050s      1.154w      1 calls
| SAD Guess                         :     16.717u      1.033s      1.129w      1 calls
HF: Form G                          :   5152.933u     53.850s    315.875w     15 calls
| JK: D                             :      0.967u      0.050s      0.062w     15 calls
| JK: USO2AO                        :      0.900u      0.067s      0.056w     15 calls
| JK: JK                            :   5149.167u     53.550s    315.626w     15 calls
| | DFH: compute_JK()               :   5149.150u     53.550s    315.625w     15 calls
| | | DFH: Grabbing AOs             :      0.000u      0.000s      0.000w     15 calls
| | | DFH: compute_J                :    355.667u      9.250s     21.896w     15 calls
| | | DFH: compute_K                :   4790.250u     43.250s    293.205w     15 calls
| JK: AO2USO                        :      0.000u      0.000s      0.000w     15 calls
HF: Form F                          :      1.117u      0.067s      0.072w     15 calls
HF: Form D                          :      0.967u      0.000s      0.060w     15 calls
HF: DIIS                            :     54.867u      4.650s      3.573w     14 calls
| DIISManager::add_entry            :      4.267u      0.650s      0.297w     14 calls
| DIISManager::extrapolate          :     20.467u      3.133s      1.418w     14 calls
| | bMatrix setup                   :      9.917u      1.767s      0.702w     14 calls
| | bMatrix pseudoinverse           :      0.033u      0.000s      0.002w     14 calls
| | New vector                      :     10.500u      1.367s      0.713w     14 calls
HF: Form C                          :    119.350u      3.717s      7.383w     14 calls
DFMP2 Singles                       :      1.317u      0.050s      0.082w      1 calls
DFMP2 Aia                           :   1930.750u     39.933s    157.626w      1 calls
| DFMP2 (A|mn)                      :   1598.183u      5.933s     98.813w      1 calls
| DFMP2 (A|mn)C_mi                  :    156.667u      2.667s      9.779w      1 calls
| DFMP2 (A|mi)C_na                  :    133.233u      1.167s      8.084w      1 calls
| DFMP2 Aia Write                   :      1.617u      3.900s      2.292w      1 calls
DFMP2 Qia                           :    826.900u     17.183s     56.904w      1 calls
| DFMP2 Metric                      :    370.400u      7.133s     22.901w      1 calls
| DFMP2 Aia Read                    :      0.067u      2.267s      1.393w      1 calls
| DFMP2 (Q|A)(A|ia)                 :    450.483u      0.517s     27.192w      1 calls
| DFMP2 Qia Write                   :      1.617u      4.067s      2.377w      1 calls
DFMP2 Energy                        :   4821.017u     14.567s    296.084w      1 calls
| DFMP2 Qia Read                    :      2.300u      2.267s      2.737w      2 calls

**************************************************************************************

Host: bme-nova.bme.utexas.edu

Timers On : Mon Jan 13 15:01:24 2020
Timers Off: Mon Jan 13 15:01:58 2020

Wall Time:       33.85 seconds

                                                       Time (seconds)
Module                                       User      System        Wall        Calls
DFH: sparsity prep                  :      0.183u      0.950s      0.685w      1 calls
DFH: initialize()                   :    191.550u     27.833s     13.887w      1 calls
DFH: AO Construction                :     35.600u      7.167s      2.577w      1 calls
DFH: AO-Met. Contraction            :     33.900u     15.667s      3.029w      1 calls
HF: Form core H                     :      0.033u      0.000s      0.003w      1 calls
HF: Form S/X                        :      0.233u      0.017s      0.016w      1 calls
HF: Guess                           :     14.967u      0.900s      0.968w      1 calls
SAD Guess                           :     14.583u      0.867s      0.943w      1 calls
HF: Form G                          :     81.083u    141.933s     14.042w     11 calls
JK: D                               :      0.050u      0.000s      0.002w     11 calls
JK: USO2AO                          :      0.017u      0.000s      0.001w     11 calls
JK: JK                              :     80.983u    141.933s     14.035w     11 calls
DFH: compute_JK()                   :     80.983u    141.917s     14.034w     11 calls
DFH: Grabbing AOs                   :      0.000u      0.000s      0.000w     11 calls
DFH: compute_J                      :      8.983u      0.133s      0.544w     11 calls
DFH: compute_K                      :     63.750u    140.250s     12.905w     11 calls
JK: AO2USO                          :      0.000u      0.000s      0.000w     11 calls
HF: Form F                          :      0.017u      0.017s      0.001w     11 calls
HF: Form D                          :      0.017u      0.000s      0.002w     11 calls
HF: DIIS                            :      0.617u      0.050s      0.039w     10 calls
DIISManager::add_entry              :      0.117u      0.000s      0.007w     10 calls
DIISManager::extrapolate            :      0.250u      0.050s      0.016w     10 calls
bMatrix setup                       :      0.117u      0.033s      0.009w     10 calls
bMatrix pseudoinverse               :      0.033u      0.000s      0.001w     10 calls
New vector                          :      0.100u      0.017s      0.007w     10 calls
HF: Form C                          :      1.367u      0.017s      0.084w     10 calls

--------------------------------------------------------------------------------------
DFH: sparsity prep                  :      0.183u      0.950s      0.685w      1 calls
DFH: initialize()                   :    191.550u     27.833s     13.887w      1 calls
| DFH: AO Construction              :     35.600u      7.167s      2.577w      1 calls
| DFH: AO-Met. Contraction          :     33.900u     15.667s      3.029w      1 calls
HF: Form core H                     :      0.033u      0.000s      0.003w      1 calls
HF: Form S/X                        :      0.233u      0.017s      0.016w      1 calls
HF: Guess                           :     14.967u      0.900s      0.968w      1 calls
| SAD Guess                         :     14.583u      0.867s      0.943w      1 calls
HF: Form G                          :     81.083u    141.933s     14.042w     11 calls
| JK: D                             :      0.050u      0.000s      0.002w     11 calls
| JK: USO2AO                        :      0.017u      0.000s      0.001w     11 calls
| JK: JK                            :     80.983u    141.933s     14.035w     11 calls
| | DFH: compute_JK()               :     80.983u    141.917s     14.034w     11 calls
| | | DFH: Grabbing AOs             :      0.000u      0.000s      0.000w     11 calls
| | | DFH: compute_J                :      8.983u      0.133s      0.544w     11 calls
| | | DFH: compute_K                :     63.750u    140.250s     12.905w     11 calls
| JK: AO2USO                        :      0.000u      0.000s      0.000w     11 calls
HF: Form F                          :      0.017u      0.017s      0.001w     11 calls
HF: Form D                          :      0.017u      0.000s      0.002w     11 calls
HF: DIIS                            :      0.617u      0.050s      0.039w     10 calls
| DIISManager::add_entry            :      0.117u      0.000s      0.007w     10 calls
| DIISManager::extrapolate          :      0.250u      0.050s      0.016w     10 calls
| | bMatrix setup                   :      0.117u      0.033s      0.009w     10 calls
| | bMatrix pseudoinverse           :      0.033u      0.000s      0.001w     10 calls
| | New vector                      :      0.100u      0.017s      0.007w     10 calls
HF: Form C                          :      1.367u      0.017s      0.084w     10 calls

**************************************************************************************

Host: bme-nova.bme.utexas.edu

Timers On : Mon Jan 13 15:01:23 2020
Timers Off: Mon Jan 13 15:01:58 2020

Wall Time:       35.35 seconds

                                                       Time (seconds)
Module                                       User      System        Wall        Calls

--------------------------------------------------------------------------------------

**************************************************************************************

Host: bme-nova.bme.utexas.edu

Timers On : Mon Jan 13 18:04:30 2020
Timers Off: Mon Jan 13 18:05:04 2020

Wall Time:       34.60 seconds

                                                       Time (seconds)
Module                                       User      System        Wall        Calls
DFH: sparsity prep                  :      0.200u      0.000s      0.123w      1 calls
DFH: initialize()                   :    188.367u     29.950s     14.191w      1 calls
DFH: AO Construction                :     33.000u      7.250s      2.413w      1 calls
DFH: AO-Met. Contraction            :     37.000u     16.800s      3.413w      1 calls
HF: Form core H                     :      0.000u      0.017s      0.002w      1 calls
HF: Form S/X                        :      0.167u      0.000s      0.010w      1 calls
HF: Guess                           :     14.967u      0.617s      0.938w      1 calls
SAD Guess                           :     14.700u      0.600s      0.922w      1 calls
HF: Form G                          :     76.383u    164.383s     15.111w     11 calls
JK: D                               :      0.017u      0.000s      0.002w     11 calls
JK: USO2AO                          :      0.000u      0.017s      0.001w     11 calls
JK: JK                              :     76.267u    164.350s     15.102w     11 calls
DFH: compute_JK()                   :     76.267u    164.350s     15.102w     11 calls
DFH: Grabbing AOs                   :      0.000u      0.000s      0.000w     11 calls
DFH: compute_J                      :      8.900u      0.083s      0.541w     11 calls
DFH: compute_K                      :     59.300u    162.883s     13.994w     11 calls
JK: AO2USO                          :      0.000u      0.000s      0.000w     11 calls
HF: Form F                          :      0.050u      0.000s      0.001w     11 calls
HF: Form D                          :      0.033u      0.000s      0.002w     11 calls
HF: DIIS                            :      0.617u      0.067s      0.041w     10 calls
DIISManager::add_entry              :      0.100u      0.050s      0.007w     10 calls
DIISManager::extrapolate            :      0.250u      0.000s      0.017w     10 calls
bMatrix setup                       :      0.167u      0.000s      0.010w     10 calls
bMatrix pseudoinverse               :      0.000u      0.000s      0.001w     10 calls
New vector                          :      0.083u      0.000s      0.007w     10 calls
HF: Form C                          :      1.433u      0.033s      0.087w     10 calls

--------------------------------------------------------------------------------------
DFH: sparsity prep                  :      0.200u      0.000s      0.123w      1 calls
DFH: initialize()                   :    188.367u     29.950s     14.191w      1 calls
| DFH: AO Construction              :     33.000u      7.250s      2.413w      1 calls
| DFH: AO-Met. Contraction          :     37.000u     16.800s      3.413w      1 calls
HF: Form core H                     :      0.000u      0.017s      0.002w      1 calls
HF: Form S/X                        :      0.167u      0.000s      0.010w      1 calls
HF: Guess                           :     14.967u      0.617s      0.938w      1 calls
| SAD Guess                         :     14.700u      0.600s      0.922w      1 calls
HF: Form G                          :     76.383u    164.383s     15.111w     11 calls
| JK: D                             :      0.017u      0.000s      0.002w     11 calls
| JK: USO2AO                        :      0.000u      0.017s      0.001w     11 calls
| JK: JK                            :     76.267u    164.350s     15.102w     11 calls
| | DFH: compute_JK()               :     76.267u    164.350s     15.102w     11 calls
| | | DFH: Grabbing AOs             :      0.000u      0.000s      0.000w     11 calls
| | | DFH: compute_J                :      8.900u      0.083s      0.541w     11 calls
| | | DFH: compute_K                :     59.300u    162.883s     13.994w     11 calls
| JK: AO2USO                        :      0.000u      0.000s      0.000w     11 calls
HF: Form F                          :      0.050u      0.000s      0.001w     11 calls
HF: Form D                          :      0.033u      0.000s      0.002w     11 calls
HF: DIIS                            :      0.617u      0.067s      0.041w     10 calls
| DIISManager::add_entry            :      0.100u      0.050s      0.007w     10 calls
| DIISManager::extrapolate          :      0.250u      0.000s      0.017w     10 calls
| | bMatrix setup                   :      0.167u      0.000s      0.010w     10 calls
| | bMatrix pseudoinverse           :      0.000u      0.000s      0.001w     10 calls
| | New vector                      :      0.083u      0.000s      0.007w     10 calls
HF: Form C                          :      1.433u      0.033s      0.087w     10 calls

**************************************************************************************

Host: g2-node38.bme.utexas.edu

Timers On : Mon Jan 13 18:06:08 2020
Timers Off: Mon Jan 13 18:06:36 2020

Wall Time:       28.54 seconds

                                                       Time (seconds)
Module                                       User      System        Wall        Calls
DFH: sparsity prep                  :      0.250u      0.017s      0.161w      1 calls
DFH: initialize()                   :    202.367u      4.117s     12.608w      1 calls
DFH: AO Construction                :     51.300u      0.200s      3.090w      1 calls
DFH: AO-Met. Contraction            :     41.383u      0.567s      2.526w      1 calls
HF: Form core H                     :      0.450u      0.033s      0.056w      1 calls
HF: Form S/X                        :      0.250u      0.000s      0.015w      1 calls
HF: Guess                           :     13.883u      0.583s      0.867w      1 calls
SAD Guess                           :     13.633u      0.567s      0.853w      1 calls
HF: Form G                          :    103.017u      5.200s      6.491w     11 calls
JK: D                               :      0.067u      0.000s      0.002w     11 calls
JK: USO2AO                          :      0.017u      0.000s      0.001w     11 calls
JK: JK                              :    102.817u      5.200s      6.482w     11 calls
DFH: compute_JK()                   :    102.817u      5.200s      6.482w     11 calls
DFH: Grabbing AOs                   :      0.000u      0.000s      0.000w     11 calls
DFH: compute_J                      :      5.750u      0.050s      0.347w     11 calls
DFH: compute_K                      :     96.667u      5.133s      6.105w     11 calls
JK: AO2USO                          :      0.000u      0.000s      0.000w     11 calls
HF: Form F                          :      0.050u      0.000s      0.002w     11 calls
HF: Form D                          :      0.050u      0.000s      0.002w     11 calls
HF: DIIS                            :      0.867u      0.067s      0.058w     10 calls
DIISManager::add_entry              :      0.233u      0.050s      0.017w     10 calls
DIISManager::extrapolate            :      0.317u      0.017s      0.021w     10 calls
bMatrix setup                       :      0.167u      0.017s      0.012w     10 calls
bMatrix pseudoinverse               :      0.000u      0.000s      0.001w     10 calls
New vector                          :      0.150u      0.000s      0.008w     10 calls
HF: Form C                          :      2.417u      0.100s      0.148w     10 calls

--------------------------------------------------------------------------------------
DFH: sparsity prep                  :      0.250u      0.017s      0.161w      1 calls
DFH: initialize()                   :    202.367u      4.117s     12.608w      1 calls
| DFH: AO Construction              :     51.300u      0.200s      3.090w      1 calls
| DFH: AO-Met. Contraction          :     41.383u      0.567s      2.526w      1 calls
HF: Form core H                     :      0.450u      0.033s      0.056w      1 calls
HF: Form S/X                        :      0.250u      0.000s      0.015w      1 calls
HF: Guess                           :     13.883u      0.583s      0.867w      1 calls
| SAD Guess                         :     13.633u      0.567s      0.853w      1 calls
HF: Form G                          :    103.017u      5.200s      6.491w     11 calls
| JK: D                             :      0.067u      0.000s      0.002w     11 calls
| JK: USO2AO                        :      0.017u      0.000s      0.001w     11 calls
| JK: JK                            :    102.817u      5.200s      6.482w     11 calls
| | DFH: compute_JK()               :    102.817u      5.200s      6.482w     11 calls
| | | DFH: Grabbing AOs             :      0.000u      0.000s      0.000w     11 calls
| | | DFH: compute_J                :      5.750u      0.050s      0.347w     11 calls
| | | DFH: compute_K                :     96.667u      5.133s      6.105w     11 calls
| JK: AO2USO                        :      0.000u      0.000s      0.000w     11 calls
HF: Form F                          :      0.050u      0.000s      0.002w     11 calls
HF: Form D                          :      0.050u      0.000s      0.002w     11 calls
HF: DIIS                            :      0.867u      0.067s      0.058w     10 calls
| DIISManager::add_entry            :      0.233u      0.050s      0.017w     10 calls
| DIISManager::extrapolate          :      0.317u      0.017s      0.021w     10 calls
| | bMatrix setup                   :      0.167u      0.017s      0.012w     10 calls
| | bMatrix pseudoinverse           :      0.000u      0.000s      0.001w     10 calls
| | New vector                      :      0.150u      0.000s      0.008w     10 calls
HF: Form C                          :      2.417u      0.100s      0.148w     10 calls

**************************************************************************************

Host: bme-nova.bme.utexas.edu

Timers On : Tue Jan 14 08:19:06 2020
Timers Off: Tue Jan 14 08:19:42 2020

Wall Time:       35.90 seconds

                                                       Time (seconds)
Module                                       User      System        Wall        Calls
DFH: sparsity prep                  :      0.233u      0.033s      0.147w      1 calls
DFH: initialize()                   :    183.350u     32.850s     14.823w      1 calls
DFH: AO Construction                :     45.317u      7.383s      3.527w      1 calls
DFH: AO-Met. Contraction            :     35.550u     19.367s      3.396w      1 calls
HF: Form core H                     :      0.000u      0.000s      0.003w      1 calls
HF: Form S/X                        :      0.233u      0.000s      0.014w      1 calls
HF: Guess                           :     15.350u      0.850s      0.984w      1 calls
SAD Guess                           :     15.083u      0.833s      0.967w      1 calls
HF: Form G                          :     80.300u    159.750s     15.156w     11 calls
JK: D                               :      0.050u      0.017s      0.002w     11 calls
JK: USO2AO                          :      0.000u      0.000s      0.001w     11 calls
JK: JK                              :     80.150u    159.717s     15.147w     11 calls
DFH: compute_JK()                   :     80.150u    159.717s     15.147w     11 calls
DFH: Grabbing AOs                   :      0.000u      0.000s      0.000w     11 calls
DFH: compute_J                      :      9.617u      0.183s      0.587w     11 calls
DFH: compute_K                      :     60.633u    157.817s     13.865w     11 calls
JK: AO2USO                          :      0.000u      0.000s      0.000w     11 calls
HF: Form F                          :      0.033u      0.000s      0.001w     11 calls
HF: Form D                          :      0.033u      0.017s      0.002w     11 calls
HF: DIIS                            :      0.683u      0.017s      0.045w     10 calls
DIISManager::add_entry              :      0.150u      0.000s      0.009w     10 calls
DIISManager::extrapolate            :      0.283u      0.017s      0.018w     10 calls
bMatrix setup                       :      0.167u      0.000s      0.009w     10 calls
bMatrix pseudoinverse               :      0.017u      0.000s      0.001w     10 calls
New vector                          :      0.100u      0.017s      0.008w     10 calls
HF: Form C                          :      1.500u      0.067s      0.096w     10 calls

--------------------------------------------------------------------------------------
DFH: sparsity prep                  :      0.233u      0.033s      0.147w      1 calls
DFH: initialize()                   :    183.350u     32.850s     14.823w      1 calls
| DFH: AO Construction              :     45.317u      7.383s      3.527w      1 calls
| DFH: AO-Met. Contraction          :     35.550u     19.367s      3.396w      1 calls
HF: Form core H                     :      0.000u      0.000s      0.003w      1 calls
HF: Form S/X                        :      0.233u      0.000s      0.014w      1 calls
HF: Guess                           :     15.350u      0.850s      0.984w      1 calls
| SAD Guess                         :     15.083u      0.833s      0.967w      1 calls
HF: Form G                          :     80.300u    159.750s     15.156w     11 calls
| JK: D                             :      0.050u      0.017s      0.002w     11 calls
| JK: USO2AO                        :      0.000u      0.000s      0.001w     11 calls
| JK: JK                            :     80.150u    159.717s     15.147w     11 calls
| | DFH: compute_JK()               :     80.150u    159.717s     15.147w     11 calls
| | | DFH: Grabbing AOs             :      0.000u      0.000s      0.000w     11 calls
| | | DFH: compute_J                :      9.617u      0.183s      0.587w     11 calls
| | | DFH: compute_K                :     60.633u    157.817s     13.865w     11 calls
| JK: AO2USO                        :      0.000u      0.000s      0.000w     11 calls
HF: Form F                          :      0.033u      0.000s      0.001w     11 calls
HF: Form D                          :      0.033u      0.017s      0.002w     11 calls
HF: DIIS                            :      0.683u      0.017s      0.045w     10 calls
| DIISManager::add_entry            :      0.150u      0.000s      0.009w     10 calls
| DIISManager::extrapolate          :      0.283u      0.017s      0.018w     10 calls
| | bMatrix setup                   :      0.167u      0.000s      0.009w     10 calls
| | bMatrix pseudoinverse           :      0.017u      0.000s      0.001w     10 calls
| | New vector                      :      0.100u      0.017s      0.008w     10 calls
HF: Form C                          :      1.500u      0.067s      0.096w     10 calls

**************************************************************************************

Host: g2-node38.bme.utexas.edu

Timers On : Tue Jan 14 08:21:47 2020
Timers Off: Tue Jan 14 08:22:16 2020

Wall Time:       29.04 seconds

                                                       Time (seconds)
Module                                       User      System        Wall        Calls
DFH: sparsity prep                  :      0.250u      0.017s      0.162w      1 calls
DFH: initialize()                   :    211.117u      3.683s     13.155w      1 calls
DFH: AO Construction                :     52.117u      0.217s      3.139w      1 calls
DFH: AO-Met. Contraction            :     41.517u      0.533s      2.535w      1 calls
HF: Form core H                     :      0.550u      0.033s      0.082w      1 calls
HF: Form S/X                        :      0.233u      0.000s      0.015w      1 calls
HF: Guess                           :     14.350u      0.517s      0.891w      1 calls
SAD Guess                           :     14.100u      0.517s      0.877w      1 calls
HF: Form G                          :    106.600u      5.367s      6.715w     11 calls
JK: D                               :      0.067u      0.000s      0.002w     11 calls
JK: USO2AO                          :      0.017u      0.000s      0.001w     11 calls
JK: JK                              :    106.433u      5.367s      6.707w     11 calls
DFH: compute_JK()                   :    106.433u      5.367s      6.707w     11 calls
DFH: Grabbing AOs                   :      0.000u      0.000s      0.000w     11 calls
DFH: compute_J                      :      5.567u      0.033s      0.335w     11 calls
DFH: compute_K                      :    100.433u      5.300s      6.342w     11 calls
JK: AO2USO                          :      0.000u      0.000s      0.000w     11 calls
HF: Form F                          :      0.017u      0.000s      0.002w     11 calls
HF: Form D                          :      0.017u      0.000s      0.002w     11 calls
HF: DIIS                            :      1.067u      0.083s      0.070w     10 calls
DIISManager::add_entry              :      0.433u      0.033s      0.030w     10 calls
DIISManager::extrapolate            :      0.317u      0.050s      0.021w     10 calls
bMatrix setup                       :      0.167u      0.033s      0.012w     10 calls
bMatrix pseudoinverse               :      0.017u      0.000s      0.001w     10 calls
New vector                          :      0.133u      0.017s      0.008w     10 calls
HF: Form C                          :      2.350u      0.067s      0.145w     10 calls

--------------------------------------------------------------------------------------
DFH: sparsity prep                  :      0.250u      0.017s      0.162w      1 calls
DFH: initialize()                   :    211.117u      3.683s     13.155w      1 calls
| DFH: AO Construction              :     52.117u      0.217s      3.139w      1 calls
| DFH: AO-Met. Contraction          :     41.517u      0.533s      2.535w      1 calls
HF: Form core H                     :      0.550u      0.033s      0.082w      1 calls
HF: Form S/X                        :      0.233u      0.000s      0.015w      1 calls
HF: Guess                           :     14.350u      0.517s      0.891w      1 calls
| SAD Guess                         :     14.100u      0.517s      0.877w      1 calls
HF: Form G                          :    106.600u      5.367s      6.715w     11 calls
| JK: D                             :      0.067u      0.000s      0.002w     11 calls
| JK: USO2AO                        :      0.017u      0.000s      0.001w     11 calls
| JK: JK                            :    106.433u      5.367s      6.707w     11 calls
| | DFH: compute_JK()               :    106.433u      5.367s      6.707w     11 calls
| | | DFH: Grabbing AOs             :      0.000u      0.000s      0.000w     11 calls
| | | DFH: compute_J                :      5.567u      0.033s      0.335w     11 calls
| | | DFH: compute_K                :    100.433u      5.300s      6.342w     11 calls
| JK: AO2USO                        :      0.000u      0.000s      0.000w     11 calls
HF: Form F                          :      0.017u      0.000s      0.002w     11 calls
HF: Form D                          :      0.017u      0.000s      0.002w     11 calls
HF: DIIS                            :      1.067u      0.083s      0.070w     10 calls
| DIISManager::add_entry            :      0.433u      0.033s      0.030w     10 calls
| DIISManager::extrapolate          :      0.317u      0.050s      0.021w     10 calls
| | bMatrix setup                   :      0.167u      0.033s      0.012w     10 calls
| | bMatrix pseudoinverse           :      0.017u      0.000s      0.001w     10 calls
| | New vector                      :      0.133u      0.017s      0.008w     10 calls
HF: Form C                          :      2.350u      0.067s      0.145w     10 calls

**************************************************************************************

Host: g2-node38.bme.utexas.edu

Timers On : Tue Jan 14 10:02:38 2020
Timers Off: Tue Jan 14 10:03:07 2020

Wall Time:       29.42 seconds

                                                       Time (seconds)
Module                                       User      System        Wall        Calls
DFH: sparsity prep                  :      0.267u      0.017s      0.171w      1 calls
DFH: initialize()                   :    233.367u      3.033s     14.406w      1 calls
DFH: AO Construction                :     67.850u      0.200s      4.082w      1 calls
DFH: AO-Met. Contraction            :     45.500u      0.533s      2.773w      1 calls
HF: Form core H                     :      0.500u      0.033s      0.060w      1 calls
HF: Form S/X                        :      0.267u      0.000s      0.016w      1 calls
HF: Guess                           :     14.217u      0.667s      0.893w      1 calls
SAD Guess                           :     13.983u      0.650s      0.878w      1 calls
HF: Form G                          :    111.550u      5.550s      7.023w     11 calls
JK: D                               :      0.067u      0.000s      0.002w     11 calls
JK: USO2AO                          :      0.000u      0.000s      0.002w     11 calls
JK: JK                              :    111.367u      5.533s      7.014w     11 calls
DFH: compute_JK()                   :    111.367u      5.533s      7.014w     11 calls
DFH: Grabbing AOs                   :      0.000u      0.000s      0.000w     11 calls
DFH: compute_J                      :      6.133u      0.050s      0.372w     11 calls
DFH: compute_K                      :    104.817u      5.350s      6.613w     11 calls
JK: AO2USO                          :      0.000u      0.000s      0.000w     11 calls
HF: Form F                          :      0.033u      0.000s      0.002w     11 calls
HF: Form D                          :      0.017u      0.000s      0.003w     11 calls
HF: DIIS                            :      0.983u      0.083s      0.067w     10 calls
DIISManager::add_entry              :      0.267u      0.033s      0.022w     10 calls
DIISManager::extrapolate            :      0.300u      0.033s      0.023w     10 calls
bMatrix setup                       :      0.150u      0.000s      0.013w     10 calls
bMatrix pseudoinverse               :      0.033u      0.000s      0.001w     10 calls
New vector                          :      0.117u      0.033s      0.009w     10 calls
HF: Form C                          :      2.617u      0.100s      0.158w     10 calls

--------------------------------------------------------------------------------------
DFH: sparsity prep                  :      0.267u      0.017s      0.171w      1 calls
DFH: initialize()                   :    233.367u      3.033s     14.406w      1 calls
| DFH: AO Construction              :     67.850u      0.200s      4.082w      1 calls
| DFH: AO-Met. Contraction          :     45.500u      0.533s      2.773w      1 calls
HF: Form core H                     :      0.500u      0.033s      0.060w      1 calls
HF: Form S/X                        :      0.267u      0.000s      0.016w      1 calls
HF: Guess                           :     14.217u      0.667s      0.893w      1 calls
| SAD Guess                         :     13.983u      0.650s      0.878w      1 calls
HF: Form G                          :    111.550u      5.550s      7.023w     11 calls
| JK: D                             :      0.067u      0.000s      0.002w     11 calls
| JK: USO2AO                        :      0.000u      0.000s      0.002w     11 calls
| JK: JK                            :    111.367u      5.533s      7.014w     11 calls
| | DFH: compute_JK()               :    111.367u      5.533s      7.014w     11 calls
| | | DFH: Grabbing AOs             :      0.000u      0.000s      0.000w     11 calls
| | | DFH: compute_J                :      6.133u      0.050s      0.372w     11 calls
| | | DFH: compute_K                :    104.817u      5.350s      6.613w     11 calls
| JK: AO2USO                        :      0.000u      0.000s      0.000w     11 calls
HF: Form F                          :      0.033u      0.000s      0.002w     11 calls
HF: Form D                          :      0.017u      0.000s      0.003w     11 calls
HF: DIIS                            :      0.983u      0.083s      0.067w     10 calls
| DIISManager::add_entry            :      0.267u      0.033s      0.022w     10 calls
| DIISManager::extrapolate          :      0.300u      0.033s      0.023w     10 calls
| | bMatrix setup                   :      0.150u      0.000s      0.013w     10 calls
| | bMatrix pseudoinverse           :      0.033u      0.000s      0.001w     10 calls
| | New vector                      :      0.117u      0.033s      0.009w     10 calls
HF: Form C                          :      2.617u      0.100s      0.158w     10 calls

**************************************************************************************

Host: g2-node38.bme.utexas.edu

Timers On : Tue Jan 14 10:02:35 2020
Timers Off: Tue Jan 14 10:07:06 2020

Wall Time:      270.64 seconds

                                                       Time (seconds)
Module                                       User      System        Wall        Calls

--------------------------------------------------------------------------------------

**************************************************************************************

Host: g2-node38.bme.utexas.edu

Timers On : Tue Jan 14 10:21:55 2020
Timers Off: Tue Jan 14 10:22:23 2020

Wall Time:       27.83 seconds

                                                       Time (seconds)
Module                                       User      System        Wall        Calls
DFH: sparsity prep                  :      0.250u      0.017s      0.162w      1 calls
DFH: initialize()                   :    218.533u      3.900s     13.728w      1 calls
DFH: AO Construction                :     64.783u      0.200s      3.898w      1 calls
DFH: AO-Met. Contraction            :     41.183u      0.533s      2.515w      1 calls
HF: Form core H                     :      0.300u      0.017s      0.034w      1 calls
HF: Form S/X                        :      0.250u      0.000s      0.015w      1 calls
HF: Guess                           :     14.050u      0.483s      0.872w      1 calls
SAD Guess                           :     13.800u      0.467s      0.857w      1 calls
HF: Form G                          :    105.100u      5.117s      6.612w     11 calls
JK: D                               :      0.033u      0.000s      0.002w     11 calls
JK: USO2AO                          :      0.033u      0.000s      0.001w     11 calls
JK: JK                              :    104.967u      5.117s      6.604w     11 calls
DFH: compute_JK()                   :    104.967u      5.117s      6.604w     11 calls
DFH: Grabbing AOs                   :      0.000u      0.000s      0.000w     11 calls
DFH: compute_J                      :      6.133u      0.017s      0.368w     11 calls
DFH: compute_K                      :     98.450u      5.000s      6.205w     11 calls
JK: AO2USO                          :      0.000u      0.000s      0.000w     11 calls
HF: Form F                          :      0.050u      0.000s      0.002w     11 calls
HF: Form D                          :      0.017u      0.000s      0.002w     11 calls
HF: DIIS                            :      0.800u      0.083s      0.054w     10 calls
DIISManager::add_entry              :      0.183u      0.033s      0.013w     10 calls
DIISManager::extrapolate            :      0.333u      0.033s      0.021w     10 calls
bMatrix setup                       :      0.200u      0.000s      0.012w     10 calls
bMatrix pseudoinverse               :      0.000u      0.000s      0.001w     10 calls
New vector                          :      0.133u      0.033s      0.008w     10 calls
HF: Form C                          :      2.433u      0.083s      0.148w     10 calls

--------------------------------------------------------------------------------------
DFH: sparsity prep                  :      0.250u      0.017s      0.162w      1 calls
DFH: initialize()                   :    218.533u      3.900s     13.728w      1 calls
| DFH: AO Construction              :     64.783u      0.200s      3.898w      1 calls
| DFH: AO-Met. Contraction          :     41.183u      0.533s      2.515w      1 calls
HF: Form core H                     :      0.300u      0.017s      0.034w      1 calls
HF: Form S/X                        :      0.250u      0.000s      0.015w      1 calls
HF: Guess                           :     14.050u      0.483s      0.872w      1 calls
| SAD Guess                         :     13.800u      0.467s      0.857w      1 calls
HF: Form G                          :    105.100u      5.117s      6.612w     11 calls
| JK: D                             :      0.033u      0.000s      0.002w     11 calls
| JK: USO2AO                        :      0.033u      0.000s      0.001w     11 calls
| JK: JK                            :    104.967u      5.117s      6.604w     11 calls
| | DFH: compute_JK()               :    104.967u      5.117s      6.604w     11 calls
| | | DFH: Grabbing AOs             :      0.000u      0.000s      0.000w     11 calls
| | | DFH: compute_J                :      6.133u      0.017s      0.368w     11 calls
| | | DFH: compute_K                :     98.450u      5.000s      6.205w     11 calls
| JK: AO2USO                        :      0.000u      0.000s      0.000w     11 calls
HF: Form F                          :      0.050u      0.000s      0.002w     11 calls
HF: Form D                          :      0.017u      0.000s      0.002w     11 calls
HF: DIIS                            :      0.800u      0.083s      0.054w     10 calls
| DIISManager::add_entry            :      0.183u      0.033s      0.013w     10 calls
| DIISManager::extrapolate          :      0.333u      0.033s      0.021w     10 calls
| | bMatrix setup                   :      0.200u      0.000s      0.012w     10 calls
| | bMatrix pseudoinverse           :      0.000u      0.000s      0.001w     10 calls
| | New vector                      :      0.133u      0.033s      0.008w     10 calls
HF: Form C                          :      2.433u      0.083s      0.148w     10 calls

**************************************************************************************

Host: g2-node38.bme.utexas.edu

Timers On : Tue Jan 14 10:27:49 2020
Timers Off: Tue Jan 14 10:28:18 2020

Wall Time:       28.41 seconds

                                                       Time (seconds)
Module                                       User      System        Wall        Calls
DFH: sparsity prep                  :      0.250u      0.033s      0.162w      1 calls
DFH: initialize()                   :    208.033u      3.800s     12.887w      1 calls
DFH: AO Construction                :     51.250u      0.217s      3.087w      1 calls
DFH: AO-Met. Contraction            :     40.950u      0.617s      2.506w      1 calls
HF: Form core H                     :      0.200u      0.033s      0.024w      1 calls
HF: Form S/X                        :      0.250u      0.000s      0.015w      1 calls
HF: Guess                           :     13.683u      1.167s      0.891w      1 calls
SAD Guess                           :     13.450u      1.167s      0.876w      1 calls
HF: Form G                          :    107.683u      5.817s      6.812w     11 calls
JK: D                               :      0.017u      0.000s      0.002w     11 calls
JK: USO2AO                          :      0.000u      0.000s      0.001w     11 calls
JK: JK                              :    107.533u      5.817s      6.803w     11 calls
DFH: compute_JK()                   :    107.533u      5.817s      6.803w     11 calls
DFH: Grabbing AOs                   :      0.000u      0.000s      0.000w     11 calls
DFH: compute_J                      :      5.783u      0.033s      0.345w     11 calls
DFH: compute_K                      :    101.383u      5.733s      6.427w     11 calls
JK: AO2USO                          :      0.000u      0.000s      0.000w     11 calls
HF: Form F                          :      0.017u      0.017s      0.002w     11 calls
HF: Form D                          :      0.083u      0.017s      0.003w     11 calls
HF: DIIS                            :      0.883u      0.117s      0.060w     10 calls
DIISManager::add_entry              :      0.233u      0.050s      0.018w     10 calls
DIISManager::extrapolate            :      0.317u      0.033s      0.022w     10 calls
bMatrix setup                       :      0.167u      0.017s      0.012w     10 calls
bMatrix pseudoinverse               :      0.017u      0.000s      0.001w     10 calls
New vector                          :      0.133u      0.017s      0.008w     10 calls
HF: Form C                          :      2.250u      0.117s      0.145w     10 calls

--------------------------------------------------------------------------------------
DFH: sparsity prep                  :      0.250u      0.033s      0.162w      1 calls
DFH: initialize()                   :    208.033u      3.800s     12.887w      1 calls
| DFH: AO Construction              :     51.250u      0.217s      3.087w      1 calls
| DFH: AO-Met. Contraction          :     40.950u      0.617s      2.506w      1 calls
HF: Form core H                     :      0.200u      0.033s      0.024w      1 calls
HF: Form S/X                        :      0.250u      0.000s      0.015w      1 calls
HF: Guess                           :     13.683u      1.167s      0.891w      1 calls
| SAD Guess                         :     13.450u      1.167s      0.876w      1 calls
HF: Form G                          :    107.683u      5.817s      6.812w     11 calls
| JK: D                             :      0.017u      0.000s      0.002w     11 calls
| JK: USO2AO                        :      0.000u      0.000s      0.001w     11 calls
| JK: JK                            :    107.533u      5.817s      6.803w     11 calls
| | DFH: compute_JK()               :    107.533u      5.817s      6.803w     11 calls
| | | DFH: Grabbing AOs             :      0.000u      0.000s      0.000w     11 calls
| | | DFH: compute_J                :      5.783u      0.033s      0.345w     11 calls
| | | DFH: compute_K                :    101.383u      5.733s      6.427w     11 calls
| JK: AO2USO                        :      0.000u      0.000s      0.000w     11 calls
HF: Form F                          :      0.017u      0.017s      0.002w     11 calls
HF: Form D                          :      0.083u      0.017s      0.003w     11 calls
HF: DIIS                            :      0.883u      0.117s      0.060w     10 calls
| DIISManager::add_entry            :      0.233u      0.050s      0.018w     10 calls
| DIISManager::extrapolate          :      0.317u      0.033s      0.022w     10 calls
| | bMatrix setup                   :      0.167u      0.017s      0.012w     10 calls
| | bMatrix pseudoinverse           :      0.017u      0.000s      0.001w     10 calls
| | New vector                      :      0.133u      0.017s      0.008w     10 calls
HF: Form C                          :      2.250u      0.117s      0.145w     10 calls

**************************************************************************************

Host: g2-node38.bme.utexas.edu

Timers On : Tue Jan 14 11:18:15 2020
Timers Off: Tue Jan 14 11:18:44 2020

Wall Time:       29.40 seconds

                                                       Time (seconds)
Module                                       User      System        Wall        Calls
DFH: sparsity prep                  :      0.250u      0.017s      0.161w      1 calls
DFH: initialize()                   :    212.083u      3.633s     13.166w      1 calls
DFH: AO Construction                :     50.967u      0.217s      3.071w      1 calls
DFH: AO-Met. Contraction            :     41.300u      0.517s      2.519w      1 calls
HF: Form core H                     :      0.317u      0.017s      0.033w      1 calls
HF: Form S/X                        :      0.250u      0.000s      0.016w      1 calls
HF: Guess                           :     14.117u      0.550s      0.880w      1 calls
SAD Guess                           :     13.900u      0.533s      0.866w      1 calls
HF: Form G                          :    113.950u      6.067s      7.484w     11 calls
JK: D                               :      0.050u      0.000s      0.002w     11 calls
JK: USO2AO                          :      0.000u      0.000s      0.001w     11 calls
JK: JK                              :    113.800u      6.050s      7.476w     11 calls
DFH: compute_JK()                   :    113.800u      6.050s      7.476w     11 calls
DFH: Grabbing AOs                   :      0.000u      0.000s      0.000w     11 calls
DFH: compute_J                      :      5.967u      0.017s      0.362w     11 calls
DFH: compute_K                      :    107.500u      5.950s      7.083w     11 calls
JK: AO2USO                          :      0.000u      0.000s      0.000w     11 calls
HF: Form F                          :      0.033u      0.000s      0.002w     11 calls
HF: Form D                          :      0.067u      0.000s      0.003w     11 calls
HF: DIIS                            :      0.883u      0.117s      0.058w     10 calls
DIISManager::add_entry              :      0.233u      0.033s      0.017w     10 calls
DIISManager::extrapolate            :      0.317u      0.083s      0.021w     10 calls
bMatrix setup                       :      0.167u      0.050s      0.012w     10 calls
bMatrix pseudoinverse               :      0.017u      0.000s      0.001w     10 calls
New vector                          :      0.133u      0.033s      0.008w     10 calls
HF: Form C                          :      2.400u      0.033s      0.147w     10 calls

--------------------------------------------------------------------------------------
DFH: sparsity prep                  :      0.250u      0.017s      0.161w      1 calls
DFH: initialize()                   :    212.083u      3.633s     13.166w      1 calls
| DFH: AO Construction              :     50.967u      0.217s      3.071w      1 calls
| DFH: AO-Met. Contraction          :     41.300u      0.517s      2.519w      1 calls
HF: Form core H                     :      0.317u      0.017s      0.033w      1 calls
HF: Form S/X                        :      0.250u      0.000s      0.016w      1 calls
HF: Guess                           :     14.117u      0.550s      0.880w      1 calls
| SAD Guess                         :     13.900u      0.533s      0.866w      1 calls
HF: Form G                          :    113.950u      6.067s      7.484w     11 calls
| JK: D                             :      0.050u      0.000s      0.002w     11 calls
| JK: USO2AO                        :      0.000u      0.000s      0.001w     11 calls
| JK: JK                            :    113.800u      6.050s      7.476w     11 calls
| | DFH: compute_JK()               :    113.800u      6.050s      7.476w     11 calls
| | | DFH: Grabbing AOs             :      0.000u      0.000s      0.000w     11 calls
| | | DFH: compute_J                :      5.967u      0.017s      0.362w     11 calls
| | | DFH: compute_K                :    107.500u      5.950s      7.083w     11 calls
| JK: AO2USO                        :      0.000u      0.000s      0.000w     11 calls
HF: Form F                          :      0.033u      0.000s      0.002w     11 calls
HF: Form D                          :      0.067u      0.000s      0.003w     11 calls
HF: DIIS                            :      0.883u      0.117s      0.058w     10 calls
| DIISManager::add_entry            :      0.233u      0.033s      0.017w     10 calls
| DIISManager::extrapolate          :      0.317u      0.083s      0.021w     10 calls
| | bMatrix setup                   :      0.167u      0.050s      0.012w     10 calls
| | bMatrix pseudoinverse           :      0.017u      0.000s      0.001w     10 calls
| | New vector                      :      0.133u      0.033s      0.008w     10 calls
HF: Form C                          :      2.400u      0.033s      0.147w     10 calls

**************************************************************************************

Host: g2-node38.bme.utexas.edu

Timers On : Tue Jan 14 11:25:08 2020
Timers Off: Tue Jan 14 11:25:37 2020

Wall Time:       29.31 seconds

                                                       Time (seconds)
Module                                       User      System        Wall        Calls
DFH: sparsity prep                  :      0.233u      0.017s      0.160w      1 calls
DFH: initialize()                   :    218.433u      3.517s     13.777w      1 calls
DFH: AO Construction                :     60.200u      0.233s      3.626w      1 calls
DFH: AO-Met. Contraction            :     41.183u      0.500s      2.515w      1 calls
HF: Form core H                     :      0.183u      0.000s      0.021w      1 calls
HF: Form S/X                        :      0.250u      0.000s      0.015w      1 calls
HF: Guess                           :     13.850u      0.533s      0.864w      1 calls
SAD Guess                           :     13.617u      0.533s      0.849w      1 calls
HF: Form G                          :    108.067u      5.267s      6.798w     11 calls
JK: D                               :      0.017u      0.000s      0.002w     11 calls
JK: USO2AO                          :      0.050u      0.000s      0.001w     11 calls
JK: JK                              :    107.883u      5.267s      6.790w     11 calls
DFH: compute_JK()                   :    107.883u      5.267s      6.790w     11 calls
DFH: Grabbing AOs                   :      0.000u      0.000s      0.000w     11 calls
DFH: compute_J                      :      5.917u      0.033s      0.356w     11 calls
DFH: compute_K                      :    101.567u      5.150s      6.403w     11 calls
JK: AO2USO                          :      0.000u      0.000s      0.000w     11 calls
HF: Form F                          :      0.017u      0.000s      0.002w     11 calls
HF: Form D                          :      0.050u      0.000s      0.002w     11 calls
HF: DIIS                            :      0.950u      0.083s      0.062w     10 calls
DIISManager::add_entry              :      0.267u      0.033s      0.021w     10 calls
DIISManager::extrapolate            :      0.300u      0.033s      0.021w     10 calls
bMatrix setup                       :      0.167u      0.017s      0.012w     10 calls
bMatrix pseudoinverse               :      0.017u      0.000s      0.001w     10 calls
New vector                          :      0.117u      0.017s      0.008w     10 calls
HF: Form C                          :      2.317u      0.033s      0.143w     10 calls

--------------------------------------------------------------------------------------
DFH: sparsity prep                  :      0.233u      0.017s      0.160w      1 calls
DFH: initialize()                   :    218.433u      3.517s     13.777w      1 calls
| DFH: AO Construction              :     60.200u      0.233s      3.626w      1 calls
| DFH: AO-Met. Contraction          :     41.183u      0.500s      2.515w      1 calls
HF: Form core H                     :      0.183u      0.000s      0.021w      1 calls
HF: Form S/X                        :      0.250u      0.000s      0.015w      1 calls
HF: Guess                           :     13.850u      0.533s      0.864w      1 calls
| SAD Guess                         :     13.617u      0.533s      0.849w      1 calls
HF: Form G                          :    108.067u      5.267s      6.798w     11 calls
| JK: D                             :      0.017u      0.000s      0.002w     11 calls
| JK: USO2AO                        :      0.050u      0.000s      0.001w     11 calls
| JK: JK                            :    107.883u      5.267s      6.790w     11 calls
| | DFH: compute_JK()               :    107.883u      5.267s      6.790w     11 calls
| | | DFH: Grabbing AOs             :      0.000u      0.000s      0.000w     11 calls
| | | DFH: compute_J                :      5.917u      0.033s      0.356w     11 calls
| | | DFH: compute_K                :    101.567u      5.150s      6.403w     11 calls
| JK: AO2USO                        :      0.000u      0.000s      0.000w     11 calls
HF: Form F                          :      0.017u      0.000s      0.002w     11 calls
HF: Form D                          :      0.050u      0.000s      0.002w     11 calls
HF: DIIS                            :      0.950u      0.083s      0.062w     10 calls
| DIISManager::add_entry            :      0.267u      0.033s      0.021w     10 calls
| DIISManager::extrapolate          :      0.300u      0.033s      0.021w     10 calls
| | bMatrix setup                   :      0.167u      0.017s      0.012w     10 calls
| | bMatrix pseudoinverse           :      0.017u      0.000s      0.001w     10 calls
| | New vector                      :      0.117u      0.017s      0.008w     10 calls
HF: Form C                          :      2.317u      0.033s      0.143w     10 calls

**************************************************************************************

Host: g2-node38.bme.utexas.edu

Timers On : Tue Jan 14 11:33:17 2020
Timers Off: Tue Jan 14 11:33:47 2020

Wall Time:       30.82 seconds

                                                       Time (seconds)
Module                                       User      System        Wall        Calls
DFH: sparsity prep                  :      0.250u      0.017s      0.163w      1 calls
DFH: initialize()                   :    233.083u      3.467s     14.422w      1 calls
DFH: AO Construction                :     77.200u      0.217s      4.643w      1 calls
DFH: AO-Met. Contraction            :     40.667u      0.583s      2.486w      1 calls
HF: Form core H                     :      0.267u      0.017s      0.030w      1 calls
HF: Form S/X                        :      0.250u      0.017s      0.015w      1 calls
HF: Guess                           :     13.667u      1.117s      0.887w      1 calls
SAD Guess                           :     13.450u      1.100s      0.873w      1 calls
HF: Form G                          :    108.500u      5.450s      6.841w     11 calls
JK: D                               :      0.050u      0.000s      0.002w     11 calls
JK: USO2AO                          :      0.050u      0.017s      0.001w     11 calls
JK: JK                              :    108.333u      5.433s      6.832w     11 calls
DFH: compute_JK()                   :    108.333u      5.433s      6.832w     11 calls
DFH: Grabbing AOs                   :      0.000u      0.000s      0.000w     11 calls
DFH: compute_J                      :      6.017u      0.033s      0.364w     11 calls
DFH: compute_K                      :    101.950u      5.317s      6.438w     11 calls
JK: AO2USO                          :      0.000u      0.000s      0.000w     11 calls
HF: Form F                          :      0.000u      0.000s      0.002w     11 calls
HF: Form D                          :      0.033u      0.000s      0.003w     11 calls
HF: DIIS                            :      0.817u      0.133s      0.057w     10 calls
DIISManager::add_entry              :      0.233u      0.000s      0.016w     10 calls
DIISManager::extrapolate            :      0.250u      0.117s      0.021w     10 calls
bMatrix setup                       :      0.150u      0.083s      0.012w     10 calls
bMatrix pseudoinverse               :      0.017u      0.000s      0.001w     10 calls
New vector                          :      0.083u      0.033s      0.008w     10 calls
HF: Form C                          :      2.433u      0.067s      0.149w     10 calls

--------------------------------------------------------------------------------------
DFH: sparsity prep                  :      0.250u      0.017s      0.163w      1 calls
DFH: initialize()                   :    233.083u      3.467s     14.422w      1 calls
| DFH: AO Construction              :     77.200u      0.217s      4.643w      1 calls
| DFH: AO-Met. Contraction          :     40.667u      0.583s      2.486w      1 calls
HF: Form core H                     :      0.267u      0.017s      0.030w      1 calls
HF: Form S/X                        :      0.250u      0.017s      0.015w      1 calls
HF: Guess                           :     13.667u      1.117s      0.887w      1 calls
| SAD Guess                         :     13.450u      1.100s      0.873w      1 calls
HF: Form G                          :    108.500u      5.450s      6.841w     11 calls
| JK: D                             :      0.050u      0.000s      0.002w     11 calls
| JK: USO2AO                        :      0.050u      0.017s      0.001w     11 calls
| JK: JK                            :    108.333u      5.433s      6.832w     11 calls
| | DFH: compute_JK()               :    108.333u      5.433s      6.832w     11 calls
| | | DFH: Grabbing AOs             :      0.000u      0.000s      0.000w     11 calls
| | | DFH: compute_J                :      6.017u      0.033s      0.364w     11 calls
| | | DFH: compute_K                :    101.950u      5.317s      6.438w     11 calls
| JK: AO2USO                        :      0.000u      0.000s      0.000w     11 calls
HF: Form F                          :      0.000u      0.000s      0.002w     11 calls
HF: Form D                          :      0.033u      0.000s      0.003w     11 calls
HF: DIIS                            :      0.817u      0.133s      0.057w     10 calls
| DIISManager::add_entry            :      0.233u      0.000s      0.016w     10 calls
| DIISManager::extrapolate          :      0.250u      0.117s      0.021w     10 calls
| | bMatrix setup                   :      0.150u      0.083s      0.012w     10 calls
| | bMatrix pseudoinverse           :      0.017u      0.000s      0.001w     10 calls
| | New vector                      :      0.083u      0.033s      0.008w     10 calls
HF: Form C                          :      2.433u      0.067s      0.149w     10 calls

**************************************************************************************

Host: g2-node38.bme.utexas.edu

Timers On : Tue Jan 14 11:47:08 2020
Timers Off: Tue Jan 14 11:47:37 2020

Wall Time:       29.01 seconds

                                                       Time (seconds)
Module                                       User      System        Wall        Calls
DFH: sparsity prep                  :      0.233u      0.033s      0.162w      1 calls
DFH: initialize()                   :    246.617u      4.217s     15.290w      1 calls
DFH: AO Construction                :     87.050u      0.233s      5.236w      1 calls
DFH: AO-Met. Contraction            :     41.333u      0.550s      2.524w      1 calls
HF: Form core H                     :      0.267u      0.017s      0.027w      1 calls
HF: Form S/X                        :      0.250u      0.000s      0.015w      1 calls
HF: Guess                           :     14.100u      0.733s      0.891w      1 calls
SAD Guess                           :     13.883u      0.717s      0.877w      1 calls
HF: Form G                          :    103.400u      5.317s      6.521w     11 calls
JK: D                               :      0.067u      0.000s      0.002w     11 calls
JK: USO2AO                          :      0.033u      0.000s      0.001w     11 calls
JK: JK                              :    103.250u      5.300s      6.512w     11 calls
DFH: compute_JK()                   :    103.250u      5.300s      6.512w     11 calls
DFH: Grabbing AOs                   :      0.000u      0.000s      0.000w     11 calls
DFH: compute_J                      :      5.483u      0.050s      0.331w     11 calls
DFH: compute_K                      :     97.400u      5.167s      6.150w     11 calls
JK: AO2USO                          :      0.000u      0.000s      0.000w     11 calls
HF: Form F                          :      0.017u      0.017s      0.002w     11 calls
HF: Form D                          :      0.017u      0.000s      0.002w     11 calls
HF: DIIS                            :      1.250u      0.167s      0.089w     10 calls
DIISManager::add_entry              :      0.667u      0.083s      0.048w     10 calls
DIISManager::extrapolate            :      0.283u      0.050s      0.021w     10 calls
bMatrix setup                       :      0.183u      0.017s      0.012w     10 calls
bMatrix pseudoinverse               :      0.017u      0.017s      0.001w     10 calls
New vector                          :      0.083u      0.017s      0.008w     10 calls
HF: Form C                          :      2.383u      0.083s      0.149w     10 calls

--------------------------------------------------------------------------------------
DFH: sparsity prep                  :      0.233u      0.033s      0.162w      1 calls
DFH: initialize()                   :    246.617u      4.217s     15.290w      1 calls
| DFH: AO Construction              :     87.050u      0.233s      5.236w      1 calls
| DFH: AO-Met. Contraction          :     41.333u      0.550s      2.524w      1 calls
HF: Form core H                     :      0.267u      0.017s      0.027w      1 calls
HF: Form S/X                        :      0.250u      0.000s      0.015w      1 calls
HF: Guess                           :     14.100u      0.733s      0.891w      1 calls
| SAD Guess                         :     13.883u      0.717s      0.877w      1 calls
HF: Form G                          :    103.400u      5.317s      6.521w     11 calls
| JK: D                             :      0.067u      0.000s      0.002w     11 calls
| JK: USO2AO                        :      0.033u      0.000s      0.001w     11 calls
| JK: JK                            :    103.250u      5.300s      6.512w     11 calls
| | DFH: compute_JK()               :    103.250u      5.300s      6.512w     11 calls
| | | DFH: Grabbing AOs             :      0.000u      0.000s      0.000w     11 calls
| | | DFH: compute_J                :      5.483u      0.050s      0.331w     11 calls
| | | DFH: compute_K                :     97.400u      5.167s      6.150w     11 calls
| JK: AO2USO                        :      0.000u      0.000s      0.000w     11 calls
HF: Form F                          :      0.017u      0.017s      0.002w     11 calls
HF: Form D                          :      0.017u      0.000s      0.002w     11 calls
HF: DIIS                            :      1.250u      0.167s      0.089w     10 calls
| DIISManager::add_entry            :      0.667u      0.083s      0.048w     10 calls
| DIISManager::extrapolate          :      0.283u      0.050s      0.021w     10 calls
| | bMatrix setup                   :      0.183u      0.017s      0.012w     10 calls
| | bMatrix pseudoinverse           :      0.017u      0.017s      0.001w     10 calls
| | New vector                      :      0.083u      0.017s      0.008w     10 calls
HF: Form C                          :      2.383u      0.083s      0.149w     10 calls

**************************************************************************************

Host: g2-node38.bme.utexas.edu

Timers On : Tue Jan 14 12:03:53 2020
Timers Off: Tue Jan 14 12:04:21 2020

Wall Time:       28.73 seconds

                                                       Time (seconds)
Module                                       User      System        Wall        Calls
DFH: sparsity prep                  :      0.250u      0.017s      0.160w      1 calls
DFH: initialize()                   :    214.650u      3.650s     13.443w      1 calls
DFH: AO Construction                :     61.067u      0.183s      3.675w      1 calls
DFH: AO-Met. Contraction            :     41.233u      0.500s      2.512w      1 calls
HF: Form core H                     :      0.233u      0.017s      0.025w      1 calls
HF: Form S/X                        :      0.250u      0.017s      0.015w      1 calls
HF: Guess                           :     13.867u      0.533s      0.864w      1 calls
SAD Guess                           :     13.650u      0.533s      0.851w      1 calls
HF: Form G                          :    107.867u      5.383s      6.795w     11 calls
JK: D                               :      0.017u      0.000s      0.002w     11 calls
JK: USO2AO                          :      0.000u      0.017s      0.001w     11 calls
JK: JK                              :    107.750u      5.367s      6.787w     11 calls
DFH: compute_JK()                   :    107.733u      5.367s      6.787w     11 calls
DFH: Grabbing AOs                   :      0.000u      0.000s      0.000w     11 calls
DFH: compute_J                      :      5.650u      0.050s      0.341w     11 calls
DFH: compute_K                      :    101.683u      5.233s      6.416w     11 calls
JK: AO2USO                          :      0.000u      0.000s      0.000w     11 calls
HF: Form F                          :      0.067u      0.000s      0.002w     11 calls
HF: Form D                          :      0.050u      0.000s      0.002w     11 calls
HF: DIIS                            :      1.033u      0.100s      0.070w     10 calls
DIISManager::add_entry              :      0.417u      0.050s      0.029w     10 calls
DIISManager::extrapolate            :      0.333u      0.017s      0.021w     10 calls
bMatrix setup                       :      0.217u      0.017s      0.012w     10 calls
bMatrix pseudoinverse               :      0.017u      0.000s      0.001w     10 calls
New vector                          :      0.100u      0.000s      0.008w     10 calls
HF: Form C                          :      2.300u      0.117s      0.144w     10 calls

--------------------------------------------------------------------------------------
DFH: sparsity prep                  :      0.250u      0.017s      0.160w      1 calls
DFH: initialize()                   :    214.650u      3.650s     13.443w      1 calls
| DFH: AO Construction              :     61.067u      0.183s      3.675w      1 calls
| DFH: AO-Met. Contraction          :     41.233u      0.500s      2.512w      1 calls
HF: Form core H                     :      0.233u      0.017s      0.025w      1 calls
HF: Form S/X                        :      0.250u      0.017s      0.015w      1 calls
HF: Guess                           :     13.867u      0.533s      0.864w      1 calls
| SAD Guess                         :     13.650u      0.533s      0.851w      1 calls
HF: Form G                          :    107.867u      5.383s      6.795w     11 calls
| JK: D                             :      0.017u      0.000s      0.002w     11 calls
| JK: USO2AO                        :      0.000u      0.017s      0.001w     11 calls
| JK: JK                            :    107.750u      5.367s      6.787w     11 calls
| | DFH: compute_JK()               :    107.733u      5.367s      6.787w     11 calls
| | | DFH: Grabbing AOs             :      0.000u      0.000s      0.000w     11 calls
| | | DFH: compute_J                :      5.650u      0.050s      0.341w     11 calls
| | | DFH: compute_K                :    101.683u      5.233s      6.416w     11 calls
| JK: AO2USO                        :      0.000u      0.000s      0.000w     11 calls
HF: Form F                          :      0.067u      0.000s      0.002w     11 calls
HF: Form D                          :      0.050u      0.000s      0.002w     11 calls
HF: DIIS                            :      1.033u      0.100s      0.070w     10 calls
| DIISManager::add_entry            :      0.417u      0.050s      0.029w     10 calls
| DIISManager::extrapolate          :      0.333u      0.017s      0.021w     10 calls
[...]

Host: g2-node38.bme.utexas.edu

Timers On : Wed Feb 26 16:40:37 2020
Timers Off: Wed Feb 26 16:41:05 2020

Wall Time:       28.86 seconds

                                                       Time (seconds)
Module                                       User      System        Wall        Calls
DFH: sparsity prep                  :      0.250u      0.017s      0.162w      1 calls
DFH: initialize()                   :    230.033u      3.850s     14.509w      1 calls
DFH: AO Construction                :     74.550u      0.267s      4.488w      1 calls
DFH: AO-Met. Contraction            :     40.733u      0.517s      2.487w      1 calls
HF: Form core H                     :      0.200u      0.033s      0.024w      1 calls
HF: Form S/X                        :      0.250u      0.000s      0.015w      1 calls
HF: Guess                           :     13.783u      0.667s      0.867w      1 calls
SAD Guess                           :     13.583u      0.650s      0.853w      1 calls
HF: Form G                          :    100.000u      5.083s      6.304w     11 calls
JK: D                               :      0.050u      0.000s      0.002w     11 calls
JK: USO2AO                          :      0.000u      0.000s      0.001w     11 calls
JK: JK                              :     99.933u      5.083s      6.296w     11 calls
DFH: compute_JK()                   :     99.917u      5.083s      6.296w     11 calls
DFH: Grabbing AOs                   :      0.000u      0.000s      0.000w     11 calls
DFH: compute_J                      :      5.650u      0.000s      0.339w     11 calls
DFH: compute_K                      :     93.800u      5.000s      5.926w     11 calls
JK: AO2USO                          :      0.000u      0.000s      0.000w     11 calls
HF: Form F                          :      0.033u      0.000s      0.002w     11 calls
HF: Form D                          :      0.000u      0.000s      0.002w     11 calls
HF: DIIS                            :      0.850u      0.067s      0.059w     10 calls
DIISManager::add_entry              :      0.300u      0.017s      0.019w     10 calls
DIISManager::extrapolate            :      0.317u      0.050s      0.021w     10 calls
bMatrix setup                       :      0.200u      0.017s      0.012w     10 calls
bMatrix pseudoinverse               :      0.017u      0.000s      0.001w     10 calls
New vector                          :      0.100u      0.033s      0.008w     10 calls
HF: Form C                          :      2.383u      0.067s      0.145w     10 calls

--------------------------------------------------------------------------------------
DFH: sparsity prep                  :      0.250u      0.017s      0.162w      1 calls
DFH: initialize()                   :    230.033u      3.850s     14.509w      1 calls
| DFH: AO Construction              :     74.550u      0.267s      4.488w      1 calls
| DFH: AO-Met. Contraction          :     40.733u      0.517s      2.487w      1 calls
HF: Form core H                     :      0.200u      0.033s      0.024w      1 calls
HF: Form S/X                        :      0.250u      0.000s      0.015w      1 calls
HF: Guess                           :     13.783u      0.667s      0.867w      1 calls
| SAD Guess                         :     13.583u      0.650s      0.853w      1 calls
HF: Form G                          :    100.000u      5.083s      6.304w     11 calls
| JK: D                             :      0.050u      0.000s      0.002w     11 calls
| JK: USO2AO                        :      0.000u      0.000s      0.001w     11 calls
| JK: JK                            :     99.933u      5.083s      6.296w     11 calls
| | DFH: compute_JK()               :     99.917u      5.083s      6.296w     11 calls
| | | DFH: Grabbing AOs             :      0.000u      0.000s      0.000w     11 calls
| | | DFH: compute_J                :      5.650u      0.000s      0.339w     11 calls
| | | DFH: compute_K                :     93.800u      5.000s      5.926w     11 calls
| JK: AO2USO                        :      0.000u      0.000s      0.000w     11 calls
HF: Form F                          :      0.033u      0.000s      0.002w     11 calls
HF: Form D                          :      0.000u      0.000s      0.002w     11 calls
HF: DIIS                            :      0.850u      0.067s      0.059w     10 calls
| DIISManager::add_entry            :      0.300u      0.017s      0.019w     10 calls
| DIISManager::extrapolate          :      0.317u      0.050s      0.021w     10 calls
| | bMatrix setup                   :      0.200u      0.017s      0.012w     10 calls
| | bMatrix pseudoinverse           :      0.017u      0.000s      0.001w     10 calls
| | New vector                      :      0.100u      0.033s      0.008w     10 calls
HF: Form C                          :      2.383u      0.067s      0.145w     10 calls

**************************************************************************************

Host: g2-node38.bme.utexas.edu

Timers On : Wed Feb 26 16:42:32 2020
Timers Off: Wed Feb 26 16:43:01 2020

Wall Time:       28.48 seconds

                                                       Time (seconds)
Module                                       User      System        Wall        Calls
DFH: sparsity prep                  :      0.250u      0.033s      0.162w      1 calls
DFH: initialize()                   :    221.333u      3.667s     13.712w      1 calls
DFH: AO Construction                :     63.100u      0.200s      3.798w      1 calls
DFH: AO-Met. Contraction            :     41.183u      0.533s      2.517w      1 calls
HF: Form core H                     :      0.200u      0.017s      0.022w      1 calls
HF: Form S/X                        :      0.233u      0.000s      0.015w      1 calls
HF: Guess                           :     14.217u      0.617s      0.890w      1 calls
SAD Guess                           :     13.983u      0.600s      0.875w      1 calls
HF: Form G                          :    107.050u      5.467s      6.748w     11 calls
JK: D                               :      0.017u      0.000s      0.002w     11 calls
JK: USO2AO                          :      0.017u      0.017s      0.001w     11 calls
JK: JK                              :    106.933u      5.450s      6.740w     11 calls
DFH: compute_JK()                   :    106.933u      5.450s      6.740w     11 calls
DFH: Grabbing AOs                   :      0.000u      0.000s      0.000w     11 calls
DFH: compute_J                      :      6.100u      0.033s      0.368w     11 calls
DFH: compute_K                      :    100.433u      5.333s      6.342w     11 calls
JK: AO2USO                          :      0.000u      0.000s      0.000w     11 calls
HF: Form F                          :      0.000u      0.000s      0.002w     11 calls
HF: Form D                          :      0.033u      0.000s      0.002w     11 calls
HF: DIIS                            :      0.850u      0.067s      0.054w     10 calls
DIISManager::add_entry              :      0.233u      0.050s      0.015w     10 calls
DIISManager::extrapolate            :      0.317u      0.017s      0.021w     10 calls
bMatrix setup                       :      0.150u      0.000s      0.011w     10 calls
bMatrix pseudoinverse               :      0.017u      0.000s      0.001w     10 calls
New vector                          :      0.150u      0.017s      0.008w     10 calls
HF: Form C                          :      2.433u      0.017s      0.147w     10 calls

--------------------------------------------------------------------------------------
DFH: sparsity prep                  :      0.250u      0.033s      0.162w      1 calls
DFH: initialize()                   :    221.333u      3.667s     13.712w      1 calls
| DFH: AO Construction              :     63.100u      0.200s      3.798w      1 calls
| DFH: AO-Met. Contraction          :     41.183u      0.533s      2.517w      1 calls
HF: Form core H                     :      0.200u      0.017s      0.022w      1 calls
HF: Form S/X                        :      0.233u      0.000s      0.015w      1 calls
HF: Guess                           :     14.217u      0.617s      0.890w      1 calls
| SAD Guess                         :     13.983u      0.600s      0.875w      1 calls
HF: Form G                          :    107.050u      5.467s      6.748w     11 calls
| JK: D                             :      0.017u      0.000s      0.002w     11 calls
| JK: USO2AO                        :      0.017u      0.017s      0.001w     11 calls
| JK: JK                            :    106.933u      5.450s      6.740w     11 calls
| | DFH: compute_JK()               :    106.933u      5.450s      6.740w     11 calls
| | | DFH: Grabbing AOs             :      0.000u      0.000s      0.000w     11 calls
| | | DFH: compute_J                :      6.100u      0.033s      0.368w     11 calls
| | | DFH: compute_K                :    100.433u      5.333s      6.342w     11 calls
| JK: AO2USO                        :      0.000u      0.000s      0.000w     11 calls
HF: Form F                          :      0.000u      0.000s      0.002w     11 calls
HF: Form D                          :      0.033u      0.000s      0.002w     11 calls
HF: DIIS                            :      0.850u      0.067s      0.054w     10 calls
| DIISManager::add_entry            :      0.233u      0.050s      0.015w     10 calls
| DIISManager::extrapolate          :      0.317u      0.017s      0.021w     10 calls
| | bMatrix setup                   :      0.150u      0.000s      0.011w     10 calls
| | bMatrix pseudoinverse           :      0.017u      0.000s      0.001w     10 calls
| | New vector                      :      0.150u      0.017s      0.008w     10 calls
HF: Form C                          :      2.433u      0.017s      0.147w     10 calls

**************************************************************************************

Host: g2-node38.bme.utexas.edu

Timers On : Wed Feb 26 16:45:49 2020
Timers Off: Wed Feb 26 16:46:18 2020

Wall Time:       29.25 seconds

                                                       Time (seconds)
Module                                       User      System        Wall        Calls
DFH: sparsity prep                  :      0.250u      0.033s      0.162w      1 calls
DFH: initialize()                   :    227.817u      3.150s     14.028w      1 calls
DFH: AO Construction                :     68.233u      0.233s      4.106w      1 calls
DFH: AO-Met. Contraction            :     41.233u      0.533s      2.517w      1 calls
HF: Form core H                     :      0.200u      0.033s      0.023w      1 calls
HF: Form S/X                        :      0.233u      0.017s      0.015w      1 calls
HF: Guess                           :     13.900u      0.617s      0.871w      1 calls
SAD Guess                           :     13.683u      0.600s      0.857w      1 calls
HF: Form G                          :    107.700u      5.350s      6.782w     11 calls
JK: D                               :      0.033u      0.000s      0.002w     11 calls
JK: USO2AO                          :      0.033u      0.017s      0.001w     11 calls
JK: JK                              :    107.550u      5.317s      6.774w     11 calls
DFH: compute_JK()                   :    107.550u      5.317s      6.774w     11 calls
DFH: Grabbing AOs                   :      0.000u      0.000s      0.000w     11 calls
DFH: compute_J                      :      5.683u      0.050s      0.342w     11 calls
DFH: compute_K                      :    101.433u      5.167s      6.400w     11 calls
JK: AO2USO                          :      0.000u      0.000s      0.000w     11 calls
HF: Form F                          :      0.000u      0.000s      0.002w     11 calls
HF: Form D                          :      0.033u      0.000s      0.002w     11 calls
HF: DIIS                            :      0.833u      0.067s      0.055w     10 calls
DIISManager::add_entry              :      0.183u      0.017s      0.014w     10 calls
DIISManager::extrapolate            :      0.300u      0.050s      0.021w     10 calls
bMatrix setup                       :      0.183u      0.050s      0.012w     10 calls
bMatrix pseudoinverse               :      0.000u      0.000s      0.001w     10 calls
New vector                          :      0.117u      0.000s      0.008w     10 calls
HF: Form C                          :      2.400u      0.050s      0.147w     10 calls

--------------------------------------------------------------------------------------
DFH: sparsity prep                  :      0.250u      0.033s      0.162w      1 calls
DFH: initialize()                   :    227.817u      3.150s     14.028w      1 calls
| DFH: AO Construction              :     68.233u      0.233s      4.106w      1 calls
| DFH: AO-Met. Contraction          :     41.233u      0.533s      2.517w      1 calls
HF: Form core H                     :      0.200u      0.033s      0.023w      1 calls
HF: Form S/X                        :      0.233u      0.017s      0.015w      1 calls
HF: Guess                           :     13.900u      0.617s      0.871w      1 calls
| SAD Guess                         :     13.683u      0.600s      0.857w      1 calls
HF: Form G                          :    107.700u      5.350s      6.782w     11 calls
| JK: D                             :      0.033u      0.000s      0.002w     11 calls
| JK: USO2AO                        :      0.033u      0.017s      0.001w     11 calls
| JK: JK                            :    107.550u      5.317s      6.774w     11 calls
| | DFH: compute_JK()               :    107.550u      5.317s      6.774w     11 calls
| | | DFH: Grabbing AOs             :      0.000u      0.000s      0.000w     11 calls
| | | DFH: compute_J                :      5.683u      0.050s      0.342w     11 calls
| | | DFH: compute_K                :    101.433u      5.167s      6.400w     11 calls
| JK: AO2USO                        :      0.000u      0.000s      0.000w     11 calls
HF: Form F                          :      0.000u      0.000s      0.002w     11 calls
HF: Form D                          :      0.033u      0.000s      0.002w     11 calls
HF: DIIS                            :      0.833u      0.067s      0.055w     10 calls
| DIISManager::add_entry            :      0.183u      0.017s      0.014w     10 calls
| DIISManager::extrapolate          :      0.300u      0.050s      0.021w     10 calls
| | bMatrix setup                   :      0.183u      0.050s      0.012w     10 calls
| | bMatrix pseudoinverse           :      0.000u      0.000s      0.001w     10 calls
| | New vector                      :      0.117u      0.000s      0.008w     10 calls
HF: Form C                          :      2.400u      0.050s      0.147w     10 calls

**************************************************************************************

Host: g2-node38.bme.utexas.edu

Timers On : Wed Feb 26 16:48:55 2020
Timers Off: Wed Feb 26 16:49:24 2020

Wall Time:       29.74 seconds

                                                       Time (seconds)
Module                                       User      System        Wall        Calls
DFH: sparsity prep                  :      0.250u      0.033s      0.161w      1 calls
DFH: initialize()                   :    228.250u      4.000s     14.459w      1 calls
DFH: AO Construction                :     63.500u      0.217s      3.822w      1 calls
DFH: AO-Met. Contraction            :     41.667u      0.600s      2.548w      1 calls
HF: Form core H                     :      0.217u      0.017s      0.025w      1 calls
HF: Form S/X                        :      0.250u      0.017s      0.015w      1 calls
HF: Guess                           :     13.950u      0.900s      0.891w      1 calls
SAD Guess                           :     13.717u      0.900s      0.877w      1 calls
HF: Form G                          :    107.467u      5.300s      6.764w     11 calls
JK: D                               :      0.033u      0.000s      0.002w     11 calls
JK: USO2AO                          :      0.017u      0.000s      0.001w     11 calls
JK: JK                              :    107.317u      5.300s      6.756w     11 calls
DFH: compute_JK()                   :    107.317u      5.300s      6.756w     11 calls
DFH: Grabbing AOs                   :      0.000u      0.000s      0.000w     11 calls
DFH: compute_J                      :      5.783u      0.050s      0.349w     11 calls
DFH: compute_K                      :    101.067u      5.217s      6.376w     11 calls
JK: AO2USO                          :      0.000u      0.000s      0.000w     11 calls
HF: Form F                          :      0.017u      0.000s      0.002w     11 calls
HF: Form D                          :      0.017u      0.000s      0.002w     11 calls
HF: DIIS                            :      0.867u      0.133s      0.055w     10 calls
DIISManager::add_entry              :      0.183u      0.067s      0.014w     10 calls
DIISManager::extrapolate            :      0.317u      0.050s      0.021w     10 calls
bMatrix setup                       :      0.167u      0.017s      0.012w     10 calls
bMatrix pseudoinverse               :      0.017u      0.000s      0.001w     10 calls
New vector                          :      0.133u      0.033s      0.008w     10 calls
HF: Form C                          :      2.333u      0.000s      0.143w     10 calls

--------------------------------------------------------------------------------------
DFH: sparsity prep                  :      0.250u      0.033s      0.161w      1 calls
DFH: initialize()                   :    228.250u      4.000s     14.459w      1 calls
| DFH: AO Construction              :     63.500u      0.217s      3.822w      1 calls
| DFH: AO-Met. Contraction          :     41.667u      0.600s      2.548w      1 calls
HF: Form core H                     :      0.217u      0.017s      0.025w      1 calls
HF: Form S/X                        :      0.250u      0.017s      0.015w      1 calls
HF: Guess                           :     13.950u      0.900s      0.891w      1 calls
| SAD Guess                         :     13.717u      0.900s      0.877w      1 calls
HF: Form G                          :    107.467u      5.300s      6.764w     11 calls
| JK: D                             :      0.033u      0.000s      0.002w     11 calls
| JK: USO2AO                        :      0.017u      0.000s      0.001w     11 calls
| JK: JK                            :    107.317u      5.300s      6.756w     11 calls
| | DFH: compute_JK()               :    107.317u      5.300s      6.756w     11 calls
| | | DFH: Grabbing AOs             :      0.000u      0.000s      0.000w     11 calls
| | | DFH: compute_J                :      5.783u      0.050s      0.349w     11 calls
| | | DFH: compute_K                :    101.067u      5.217s      6.376w     11 calls
| JK: AO2USO                        :      0.000u      0.000s      0.000w     11 calls
HF: Form F                          :      0.017u      0.000s      0.002w     11 calls
HF: Form D                          :      0.017u      0.000s      0.002w     11 calls
HF: DIIS                            :      0.867u      0.133s      0.055w     10 calls
| DIISManager::add_entry            :      0.183u      0.067s      0.014w     10 calls
| DIISManager::extrapolate          :      0.317u      0.050s      0.021w     10 calls
| | bMatrix setup                   :      0.167u      0.017s      0.012w     10 calls
| | bMatrix pseudoinverse           :      0.017u      0.000s      0.001w     10 calls
| | New vector                      :      0.133u      0.033s      0.008w     10 calls
HF: Form C                          :      2.333u      0.000s      0.143w     10 calls

**************************************************************************************
