
    -----------------------------------------------------------------------
          Psi4: An Open-Source Ab Initio Electronic Structure Package
                               Psi4 1.3.2 release

                         Git: Rev {HEAD} ecbda83 


    R. M. Parrish, L. A. Burns, D. G. A. Smith, A. C. Simmonett,
    A. E. DePrince III, E. G. Hohenstein, U. Bozkaya, A. Yu. Sokolov,
    R. Di Remigio, R. M. Richard, J. F. Gonthier, A. M. James,
    H. R. McAlexander, A. Kumar, M. Saitow, X. Wang, B. P. Pritchard,
    P. Verma, H. F. Schaefer III, K. Patkowski, R. A. King, E. F. Valeev,
    F. A. Evangelista, J. M. Turney, T. D. Crawford, and C. D. Sherrill,
    J. Chem. Theory Comput. 13(7) pp 3185--3197 (2017).
    (doi: 10.1021/acs.jctc.7b00174)


                         Additional Contributions by
    P. Kraus, H. Kruse, M. H. Lechner, M. C. Schieber, R. A. Shaw,
    A. Alenaizan, R. Galvelis, Z. L. Glick, S. Lehtola, and J. P. Misiewicz

    -----------------------------------------------------------------------


    Psi4 started on: Sunday, 29 December 2019 12:31PM

    Process ID: 43300
    Host:       node37.bme.utexas.edu
    PSIDATADIR: /home/bdw2292/miniconda3/envs/p4env/share/psi4
    Memory:     500.0 MiB
    Threads:    1
    
  ==> Input File <==

--------------------------------------------------------------------------
molecule { 
0 1
 O    0.689709    0.039228    0.006809
 C   -0.746502    0.015926    0.010811
 H   -1.088243   -1.007718   -0.164001
 H   -1.106282    0.699115   -0.763389
 H   -1.084103    0.354667    0.994747
 H    0.972163   -0.844063   -0.294633
}
set optking { 
  frozen_dihedral = ("
  ")
}
memory 700MB
set_num_threads(1)
psi4_io.set_default_path("/scratch/bdw2292")
optimize('hf/6-311G*')
clean()
--------------------------------------------------------------------------

  Memory set to 667.572 MiB by Python driver.
  Threads set to 1 by Python driver.
gradient() will perform analytic gradient computation.

*** tstart() called on node37.bme.utexas.edu
*** at Sun Dec 29 12:31:56 2019

   => Loading Basis Set <=

    Name: 6-311G*
    Role: ORBITAL
    Keyword: BASIS
    atoms 1   entry O          line   152 file /home/bdw2292/miniconda3/envs/p4env/share/psi4/basis/6-311gs.gbs 
    atoms 2   entry C          line   114 file /home/bdw2292/miniconda3/envs/p4env/share/psi4/basis/6-311gs.gbs 
    atoms 3-6 entry H          line    37 file /home/bdw2292/miniconda3/envs/p4env/share/psi4/basis/6-311gs.gbs 


         ---------------------------------------------------------
                                   SCF
               by Justin Turney, Rob Parrish, Andy Simmonett
                          and Daniel G. A. Smith
                              RHF Reference
                        1 Threads,    667 MiB Core
         ---------------------------------------------------------

  ==> Geometry <==

    Molecular point group: c1
    Full point group: C1

    Geometry (in Angstrom), charge = 0, multiplicity = 1:

       Center              X                  Y                   Z               Mass       
    ------------   -----------------  -----------------  -----------------  -----------------
         O            0.697536980846     0.038780955511     0.006509653615    15.994914619570
         C           -0.738674019154     0.015478955511     0.010511653615    12.000000000000
         H           -1.080415019154    -1.008165044489    -0.164300346385     1.007825032230
         H           -1.098454019154     0.698667955511    -0.763688346385     1.007825032230
         H           -1.076275019154     0.354219955511     0.994447653615     1.007825032230
         H            0.979990980846    -0.844510044489    -0.294932346385     1.007825032230

  Running in c1 symmetry.

  Rotational constants: A =      4.15223  B =      0.82187  C =      0.79054 [cm^-1]
  Rotational constants: A = 124480.67322  B =  24639.16092  C =  23699.64558 [MHz]
  Nuclear repulsion =   40.060194030122723

  Charge       = 0
  Multiplicity = 1
  Electrons    = 18
  Nalpha       = 9
  Nbeta        = 9

  ==> Algorithm <==

  SCF Algorithm Type is DF.
  DIIS enabled.
  MOM disabled.
  Fractional occupation disabled.
  Guess Type is SAD.
  Energy threshold   = 1.00e-08
  Density threshold  = 1.00e-08
  Integral threshold = 0.00e+00

  ==> Primary Basis <==

  Basis Set: 6-311G*
    Blend: 6-311G*
    Number of shells: 28
    Number of basis function: 48
    Number of Cartesian functions: 50
    Spherical Harmonics?: true
    Max angular momentum: 2

   => Loading Basis Set <=

    Name: (6-311G* AUX)
    Role: JKFIT
    Keyword: DF_BASIS_SCF
    atoms 1   entry O          line   229 file /home/bdw2292/miniconda3/envs/p4env/share/psi4/basis/cc-pvtz-jkfit.gbs 
    atoms 2   entry C          line   125 file /home/bdw2292/miniconda3/envs/p4env/share/psi4/basis/cc-pvtz-jkfit.gbs 
    atoms 3-6 entry H          line    51 file /home/bdw2292/miniconda3/envs/p4env/share/psi4/basis/cc-pvtz-jkfit.gbs 

  ==> Pre-Iterations <==

   -------------------------------------------------------
    Irrep   Nso     Nmo     Nalpha   Nbeta   Ndocc  Nsocc
   -------------------------------------------------------
     A         48      48       0       0       0       0
   -------------------------------------------------------
    Total      48      48       9       9       9       0
   -------------------------------------------------------

  ==> Integral Setup <==

  DFHelper Memory: AOs need 0.006 GiB; user supplied 0.489 GiB. Using in-core AOs.

  ==> MemDFJK: Density-Fitted J/K Matrices <==

    J tasked:                   Yes
    K tasked:                   Yes
    wK tasked:                   No
    OpenMP threads:               1
    Memory [MiB]:               500
    Algorithm:                 Core
    Schwarz Cutoff:           1E-12
    Mask sparsity (%):       0.0000
    Fitting Condition:        1E-10

   => Auxiliary Basis Set <=

  Basis Set: (6-311G* AUX)
    Blend: CC-PVTZ-JKFIT
    Number of shells: 90
    Number of basis function: 278
    Number of Cartesian functions: 332
    Spherical Harmonics?: true
    Max angular momentum: 4

  Minimum eigenvalue in the overlap matrix is 1.1389960650E-02.
  Using Symmetric Orthogonalization.

  SCF Guess: Superposition of Atomic Densities via on-the-fly atomic UHF.

  ==> Iterations <==

                           Total Energy        Delta E     RMS |[F,P]|

   @DF-RHF iter SAD:  -114.38048817410682   -1.14380e+02   0.00000e+00 
   @DF-RHF iter   1:  -114.98348447700199   -6.02996e-01   8.11725e-03 DIIS
   @DF-RHF iter   2:  -115.04177522282201   -5.82907e-02   4.50108e-03 DIIS
   @DF-RHF iter   3:  -115.05717710232589   -1.54019e-02   7.14332e-04 DIIS
   @DF-RHF iter   4:  -115.05801268140935   -8.35579e-04   1.94289e-04 DIIS
   @DF-RHF iter   5:  -115.05807314097603   -6.04596e-05   4.77474e-05 DIIS
   @DF-RHF iter   6:  -115.05807687767361   -3.73670e-06   1.03528e-05 DIIS
   @DF-RHF iter   7:  -115.05807718955673   -3.11883e-07   2.35771e-06 DIIS
   @DF-RHF iter   8:  -115.05807720814127   -1.85845e-08   4.40290e-07 DIIS
   @DF-RHF iter   9:  -115.05807720879935   -6.58076e-10   8.18391e-08 DIIS
   @DF-RHF iter  10:  -115.05807720882135   -2.19984e-11   2.24596e-08 DIIS
   @DF-RHF iter  11:  -115.05807720882304   -1.69109e-12   4.36457e-09 DIIS
  Energy and wave function converged.


  ==> Post-Iterations <==

    Orbital Energies [Eh]
    ---------------------

    Doubly Occupied:                                                      

       1A    -20.543104     2A    -11.271347     3A     -1.343989  
       4A     -0.920144     5A     -0.681170     6A     -0.616877  
       7A     -0.586030     8A     -0.501180     9A     -0.444316  

    Virtual:                                                              

      10A      0.147649    11A      0.185945    12A      0.229779  
      13A      0.232059    14A      0.336519    15A      0.460761  
      16A      0.467087    17A      0.592063    18A      0.679420  
      19A      0.724113    20A      0.788466    21A      0.788726  
      22A      0.946114    23A      1.074502    24A      1.076386  
      25A      1.206117    26A      1.550761    27A      1.562718  
      28A      1.684709    29A      1.766955    30A      1.780868  
      31A      1.966192    32A      2.378182    33A      2.629462  
      34A      2.703875    35A      2.711324    36A      3.162311  
      37A      3.188276    38A      3.302391    39A      3.371311  
      40A      3.562049    41A      3.579517    42A      3.733161  
      43A      4.258363    44A      5.378070    45A      5.529237  
      46A      5.865090    47A     24.534253    48A     51.522720  

    Final Occupation by Irrep:
              A 
    DOCC [     9 ]

  @DF-RHF Final Energy:  -115.05807720882304

   => Energetics <=

    Nuclear Repulsion Energy =             40.0601940301227231
    One-Electron Energy =                -236.4202303853305693
    Two-Electron Energy =                  81.3019591463848172
    Total Energy =                       -115.0580772088230361

Computation Completed


Properties will be evaluated at   0.000000,   0.000000,   0.000000 [a0]

Properties computed using the SCF density matrix

  Nuclear Dipole Moment: [e a0]
     X:    -2.1295      Y:    -0.7496      Z:    -0.2142

  Electronic Dipole Moment: [e a0]
     X:     1.6419      Y:     0.0944      Z:     0.0042

  Dipole Moment: [e a0]
     X:    -0.4876      Y:    -0.6552      Z:    -0.2100     Total:     0.8433

  Dipole Moment: [D]
     X:    -1.2393      Y:    -1.6654      Z:    -0.5337     Total:     2.1435


*** tstop() called on node37.bme.utexas.edu at Sun Dec 29 12:31:57 2019
Module time:
	user time   =       0.92 seconds =       0.02 minutes
	system time =       0.02 seconds =       0.00 minutes
	total time  =          1 seconds =       0.02 minutes
Total time:
	user time   =       0.92 seconds =       0.02 minutes
	system time =       0.02 seconds =       0.00 minutes
	total time  =          1 seconds =       0.02 minutes

*** tstart() called on node37.bme.utexas.edu
*** at Sun Dec 29 12:31:57 2019


         ------------------------------------------------------------
                                   SCF GRAD                          
                          Rob Parrish, Justin Turney,                
                       Andy Simmonett, and Alex Sokolov              
         ------------------------------------------------------------

  ==> Geometry <==

    Molecular point group: c1
    Full point group: C1

    Geometry (in Angstrom), charge = 0, multiplicity = 1:

       Center              X                  Y                   Z               Mass       
    ------------   -----------------  -----------------  -----------------  -----------------
         O            0.697536980846     0.038780955511     0.006509653615    15.994914619570
         C           -0.738674019154     0.015478955511     0.010511653615    12.000000000000
         H           -1.080415019154    -1.008165044489    -0.164300346385     1.007825032230
         H           -1.098454019154     0.698667955511    -0.763688346385     1.007825032230
         H           -1.076275019154     0.354219955511     0.994447653615     1.007825032230
         H            0.979990980846    -0.844510044489    -0.294932346385     1.007825032230

  Nuclear repulsion =   40.060194030122723

  ==> Basis Set <==

  Basis Set: 6-311G*
    Blend: 6-311G*
    Number of shells: 28
    Number of basis function: 48
    Number of Cartesian functions: 50
    Spherical Harmonics?: true
    Max angular momentum: 2

  ==> DFJKGrad: Density-Fitted SCF Gradients <==

    Gradient:                    1
    J tasked:                  Yes
    K tasked:                  Yes
    wK tasked:                  No
    OpenMP threads:              1
    Integrals threads:           1
    Memory [MiB]:              500
    Schwarz Cutoff:          0E+00
    Fitting Condition:       1E-10

   => Auxiliary Basis Set <=

  Basis Set: (6-311G* AUX)
    Blend: CC-PVTZ-JKFIT
    Number of shells: 90
    Number of basis function: 278
    Number of Cartesian functions: 332
    Spherical Harmonics?: true
    Max angular momentum: 4


  -Total Gradient:
     Atom            X                  Y                   Z
    ------   -----------------  -----------------  -----------------
       1        0.010407304472     0.041204406354     0.012856779010
       2       -0.021682661406    -0.004675940495    -0.004335320035
       3        0.004914645112    -0.009189484471    -0.000065110671
       4        0.001889826806     0.007723711472    -0.005412812005
       5        0.000552020052     0.002898065685     0.008861517048
       6        0.003918864964    -0.037960758546    -0.011905053347


*** tstop() called on node37.bme.utexas.edu at Sun Dec 29 12:31:58 2019
Module time:
	user time   =       0.46 seconds =       0.01 minutes
	system time =       0.01 seconds =       0.00 minutes
	total time  =          1 seconds =       0.02 minutes
Total time:
	user time   =       1.38 seconds =       0.02 minutes
	system time =       0.03 seconds =       0.00 minutes
	total time  =          2 seconds =       0.03 minutes

			-----------------------------------------
			 OPTKING 2.0: for geometry optimizations 
			  - R.A. King,  Bethel University        
			-----------------------------------------

	Internal coordinates to be generated automatically.
	Detected frag 1 with atoms:  1 2 3 4 5 6
	---Fragment 1 Bond Connectivity---
	 1 : 2 6
	 2 : 1 3 4 5
	 3 : 2
	 4 : 2
	 5 : 2
	 6 : 1

	Assuming in current code that numbering for constraints corresponds to unified fragment.
	---Fragment 1 Geometry and Gradient---
	 O           1.3181538562        0.0732853848        0.0123014625
	 C          -1.3958915922        0.0292509866        0.0198641465
	 H          -2.0416884880       -1.9051558233       -0.3104826570
	 H          -2.0757772576        1.3202910885       -1.4431618199
	 H          -2.0338650219        0.6693787041        1.8792337114
	 H           1.8519145592       -1.5958926943       -0.5573413602
	             0.0104073045        0.0412044064        0.0128567790
	            -0.0216826614       -0.0046759405       -0.0043353200
	             0.0049146451       -0.0091894845       -0.0000651107
	             0.0018898268        0.0077237115       -0.0054128120
	             0.0005520201        0.0028980657        0.0088615170
	             0.0039188650       -0.0379607585       -0.0119050533

	Previous optimization step data not found.  Starting new optimization.

	---Fragment 1 Intrafragment Coordinates---
	 - Coordinate -           - BOHR/RAD -       - ANG/DEG -
	 R(1,2)           =         2.714413	       1.436406
	 R(1,6)           =         1.842702	       0.975116
	 R(2,3)           =         2.065941	       1.093249
	 R(2,4)           =         2.066271	       1.093423
	 R(2,5)           =         2.067372	       1.094006
	 B(1,2,3)         =         1.904235	     109.104606
	 B(1,2,4)         =         1.893241	     108.474747
	 B(1,2,5)         =         1.881819	     107.820288
	 B(2,1,6)         =         1.850207	     106.009056
	 B(3,2,4)         =         1.948688	     111.651620
	 B(3,2,5)         =         1.914812	     109.710625
	 B(4,2,5)         =         1.919638	     109.987177
	 D(3,2,1,6)       =         0.155564	       8.913145
	 D(4,2,1,6)       =        -1.970781	    -112.917432
	 D(5,2,1,6)       =         2.234164	     128.008171

	Current energy   :      -115.0580772088

	Generating empirical Hessian (Schlegel '84) for each fragment.
	Taking RFO optimization step.
	Going to follow RFO solution 1.
	Using RFO vector 1.
	Norm of target step-size    0.20844
	Projected energy change by RFO approximation:        -0.0014094229

	Back-transformation to cartesian coordinates...
	Could not converge backtransformation.
	Using first guess instead.

	--- Internal Coordinate Step in ANG or DEG, aJ/ANG or AJ/DEG ---
	 ---------------------------------------------------------------------------
	   Coordinate                Previous        Force       Change         New 
	   ----------                --------       ------       ------       ------
	    1 R(1,2)          =      1.436406    -0.118425    -0.018423     1.417983
	    2 R(1,6)          =      0.975116    -0.322970    -0.034357     0.940758
	    3 R(2,3)          =      1.093249    -0.058318    -0.007811     1.085438
	    4 R(2,4)          =      1.093423    -0.066212    -0.012031     1.081392
	    5 R(2,5)          =      1.094006    -0.071652    -0.012648     1.081359
	    6 B(1,2,3)        =    109.104606     0.000716     3.269471   112.374077
	    7 B(1,2,4)        =    108.474747     0.000327     1.390479   109.865226
	    8 B(1,2,5)        =    107.820288     0.000234     1.169234   108.989521
	    9 B(2,1,6)        =    106.009056     0.001090     5.000515   111.009572
	   10 B(3,2,4)        =    111.651620    -0.000599    -2.936861   108.714759
	   11 B(3,2,5)        =    109.710625    -0.000350    -1.557743   108.152882
	   12 B(4,2,5)        =    109.987177    -0.000280    -1.323048   108.664129
	   13 D(3,2,1,6)      =      8.913145    -0.000007     4.540705    13.453850
	   14 D(4,2,1,6)      =   -112.917432     0.000015     5.195799  -107.721633
	   15 D(5,2,1,6)      =    128.008171     0.000020     5.311033   133.319203
	 ---------------------------------------------------------------------------
	Successfully symmetrized geometry.

  ==> Convergence Check <==

  Measures of convergence in internal coordinates in au.
  Criteria marked as inactive (o), active & met (*), and active & unmet ( ).
  --------------------------------------------------------------------------------------------- ~
   Step     Total Energy     Delta E     MAX Force     RMS Force      MAX Disp      RMS Disp    ~
  --------------------------------------------------------------------------------------------- ~
    Convergence Criteria    1.00e-06 *    3.00e-04 *             o    1.20e-03 *             o  ~
  --------------------------------------------------------------------------------------------- ~
      1    -115.05807721   -1.15e+02      3.92e-02      1.25e-02 o    9.27e-02      5.51e-02 o  ~
  ---------------------------------------------------------------------------------------------

	Writing optimization data to binary file.
	Structure for next step:
	Cartesian Geometry (in Angstrom)
	    O     0.6916518678   0.0046974895   0.0236761637
	    C    -0.7263145896   0.0058736052   0.0169731554
	    H    -1.1395092758  -0.9833058648  -0.1532296688
	    H    -1.0895872990   0.6710729944  -0.7543574649
	    H    -1.0824221971   0.3594985088   0.9748213829
	    H     1.0298913879  -0.8033639971  -0.3193356457
			--------------------------
			 OPTKING Finished Execution 
			--------------------------

    Structure for next step:
    Molecular point group: c1
    Full point group: C1

    Geometry (in Angstrom), charge = 0, multiplicity = 1:

    O            0.690163829981     0.023944086536     0.013425124510
    C           -0.727802632943     0.025120202243     0.006722116215
    H           -1.140997320813    -0.964059271627    -0.163480708645
    H           -1.091075343792     0.690319594069    -0.764608507146
    H           -1.083910241855     0.378745107224     0.964570347531
    H            1.028403351466    -0.784117403282    -0.329586686200

gradient() will perform analytic gradient computation.

*** tstart() called on node37.bme.utexas.edu
*** at Sun Dec 29 12:31:58 2019

   => Loading Basis Set <=

    Name: 6-311G*
    Role: ORBITAL
    Keyword: BASIS
    atoms 1   entry O          line   152 file /home/bdw2292/miniconda3/envs/p4env/share/psi4/basis/6-311gs.gbs 
    atoms 2   entry C          line   114 file /home/bdw2292/miniconda3/envs/p4env/share/psi4/basis/6-311gs.gbs 
    atoms 3-6 entry H          line    37 file /home/bdw2292/miniconda3/envs/p4env/share/psi4/basis/6-311gs.gbs 


         ---------------------------------------------------------
                                   SCF
               by Justin Turney, Rob Parrish, Andy Simmonett
                          and Daniel G. A. Smith
                              RHF Reference
                        1 Threads,    667 MiB Core
         ---------------------------------------------------------

  ==> Geometry <==

    Molecular point group: c1
    Full point group: C1

    Geometry (in Angstrom), charge = 0, multiplicity = 1:

       Center              X                  Y                   Z               Mass       
    ------------   -----------------  -----------------  -----------------  -----------------
         O            0.690163829981     0.023944086536     0.013425124510    15.994914619570
         C           -0.727802632943     0.025120202243     0.006722116215    12.000000000000
         H           -1.140997320813    -0.964059271627    -0.163480708645     1.007825032230
         H           -1.091075343792     0.690319594069    -0.764608507146     1.007825032230
         H           -1.083910241855     0.378745107224     0.964570347531     1.007825032230
         H            1.028403351466    -0.784117403282    -0.329586686200     1.007825032230

  Running in c1 symmetry.

  Rotational constants: A =      4.41533  B =      0.82871  C =      0.80110 [cm^-1]
  Rotational constants: A = 132368.35338  B =  24843.98670  C =  24016.45847 [MHz]
  Nuclear repulsion =   40.528088786503190

  Charge       = 0
  Multiplicity = 1
  Electrons    = 18
  Nalpha       = 9
  Nbeta        = 9

  ==> Algorithm <==

  SCF Algorithm Type is DF.
  DIIS enabled.
  MOM disabled.
  Fractional occupation disabled.
  Guess Type is READ.
  Energy threshold   = 1.00e-08
  Density threshold  = 1.00e-08
  Integral threshold = 0.00e+00

  ==> Primary Basis <==

  Basis Set: 6-311G*
    Blend: 6-311G*
    Number of shells: 28
    Number of basis function: 48
    Number of Cartesian functions: 50
    Spherical Harmonics?: true
    Max angular momentum: 2

   => Loading Basis Set <=

    Name: (6-311G* AUX)
    Role: JKFIT
    Keyword: DF_BASIS_SCF
    atoms 1   entry O          line   229 file /home/bdw2292/miniconda3/envs/p4env/share/psi4/basis/cc-pvtz-jkfit.gbs 
    atoms 2   entry C          line   125 file /home/bdw2292/miniconda3/envs/p4env/share/psi4/basis/cc-pvtz-jkfit.gbs 
    atoms 3-6 entry H          line    51 file /home/bdw2292/miniconda3/envs/p4env/share/psi4/basis/cc-pvtz-jkfit.gbs 

   => Loading Basis Set <=

    Name: 6-311G*
    Role: ORBITAL
    Keyword: BASIS
    atoms 1   entry O          line   152 file /home/bdw2292/miniconda3/envs/p4env/share/psi4/basis/6-311gs.gbs 
    atoms 2   entry C          line   114 file /home/bdw2292/miniconda3/envs/p4env/share/psi4/basis/6-311gs.gbs 
    atoms 3-6 entry H          line    37 file /home/bdw2292/miniconda3/envs/p4env/share/psi4/basis/6-311gs.gbs 

  Reading orbitals from file 180, no projection.

  ==> Pre-Iterations <==

   -------------------------------------------------------
    Irrep   Nso     Nmo     Nalpha   Nbeta   Ndocc  Nsocc
   -------------------------------------------------------
     A         48      48       0       0       0       0
   -------------------------------------------------------
    Total      48      48       9       9       9       0
   -------------------------------------------------------

  ==> Integral Setup <==

  DFHelper Memory: AOs need 0.006 GiB; user supplied 0.489 GiB. Using in-core AOs.

  ==> MemDFJK: Density-Fitted J/K Matrices <==

    J tasked:                   Yes
    K tasked:                   Yes
    wK tasked:                   No
    OpenMP threads:               1
    Memory [MiB]:               500
    Algorithm:                 Core
    Schwarz Cutoff:           1E-12
    Mask sparsity (%):       0.0000
    Fitting Condition:        1E-10

   => Auxiliary Basis Set <=

  Basis Set: (6-311G* AUX)
    Blend: CC-PVTZ-JKFIT
    Number of shells: 90
    Number of basis function: 278
    Number of Cartesian functions: 332
    Spherical Harmonics?: true
    Max angular momentum: 4

  Minimum eigenvalue in the overlap matrix is 1.1014253761E-02.
  Using Symmetric Orthogonalization.

  SCF Guess: Orbitals guess was supplied from a previous computation.

  ==> Iterations <==

                           Total Energy        Delta E     RMS |[F,P]|

   @DF-RHF iter   0:  -115.09563971062843   -1.15096e+02   1.87985e-03 
   @DF-RHF iter   1:  -115.06118273073936    3.44570e-02   3.75879e-04 DIIS
   @DF-RHF iter   2:  -115.06142464721910   -2.41916e-04   1.31369e-04 DIIS
   @DF-RHF iter   3:  -115.06146365286840   -3.90056e-05   5.26635e-05 DIIS
   @DF-RHF iter   4:  -115.06147152364009   -7.87077e-06   1.66962e-05 DIIS
   @DF-RHF iter   5:  -115.06147226477458   -7.41134e-07   5.27396e-06 DIIS
   @DF-RHF iter   6:  -115.06147234710413   -8.23295e-08   1.87868e-06 DIIS
   @DF-RHF iter   7:  -115.06147235526790   -8.16377e-09   4.50607e-07 DIIS
   @DF-RHF iter   8:  -115.06147235602552   -7.57623e-10   9.56104e-08 DIIS
   @DF-RHF iter   9:  -115.06147235605469   -2.91749e-11   1.66918e-08 DIIS
   @DF-RHF iter  10:  -115.06147235605542   -7.24754e-13   3.65051e-09 DIIS
  Energy and wave function converged.


  ==> Post-Iterations <==

    Orbital Energies [Eh]
    ---------------------

    Doubly Occupied:                                                      

       1A    -20.539480     2A    -11.265786     3A     -1.355064  
       4A     -0.929534     5A     -0.692253     6A     -0.618886  
       7A     -0.594199     8A     -0.498618     9A     -0.444264  

    Virtual:                                                              

      10A      0.152642    11A      0.186948    12A      0.230750  
      13A      0.234334    14A      0.343737    15A      0.466261  
      16A      0.470725    17A      0.618401    18A      0.687675  
      19A      0.738169    20A      0.793072    21A      0.796314  
      22A      0.946495    23A      1.073365    24A      1.077570  
      25A      1.203479    26A      1.549222    27A      1.576846  
      28A      1.676165    29A      1.767317    30A      1.779649  
      31A      1.986580    32A      2.368596    33A      2.619153  
      34A      2.721573    35A      2.729854    36A      3.159307  
      37A      3.224398    38A      3.322258    39A      3.400603  
      40A      3.551228    41A      3.584479    42A      3.821160  
      43A      4.270240    44A      5.381525    45A      5.548977  
      46A      5.919174    47A     24.552152    48A     51.526267  

    Final Occupation by Irrep:
              A 
    DOCC [     9 ]

  @DF-RHF Final Energy:  -115.06147235605542

   => Energetics <=

    Nuclear Repulsion Energy =             40.5280887865031900
    One-Electron Energy =                -237.3029551822644976
    Two-Electron Energy =                  81.7133940397058893
    Total Energy =                       -115.0614723560554182

Computation Completed


Properties will be evaluated at   0.000000,   0.000000,   0.000000 [a0]

Properties computed using the SCF density matrix

  Nuclear Dipole Moment: [e a0]
     X:    -2.1412      Y:    -0.6365      Z:    -0.2747

  Electronic Dipole Moment: [e a0]
     X:     1.7084      Y:     0.0157      Z:     0.0191

  Dipole Moment: [e a0]
     X:    -0.4328      Y:    -0.6208      Z:    -0.2556     Total:     0.7988

  Dipole Moment: [D]
     X:    -1.1001      Y:    -1.5780      Z:    -0.6497     Total:     2.0303


*** tstop() called on node37.bme.utexas.edu at Sun Dec 29 12:31:59 2019
Module time:
	user time   =       0.46 seconds =       0.01 minutes
	system time =       0.02 seconds =       0.00 minutes
	total time  =          1 seconds =       0.02 minutes
Total time:
	user time   =       1.85 seconds =       0.03 minutes
	system time =       0.05 seconds =       0.00 minutes
	total time  =          3 seconds =       0.05 minutes

*** tstart() called on node37.bme.utexas.edu
*** at Sun Dec 29 12:31:59 2019


         ------------------------------------------------------------
                                   SCF GRAD                          
                          Rob Parrish, Justin Turney,                
                       Andy Simmonett, and Alex Sokolov              
         ------------------------------------------------------------

  ==> Geometry <==

    Molecular point group: c1
    Full point group: C1

    Geometry (in Angstrom), charge = 0, multiplicity = 1:

       Center              X                  Y                   Z               Mass       
    ------------   -----------------  -----------------  -----------------  -----------------
         O            0.690163829981     0.023944086536     0.013425124510    15.994914619570
         C           -0.727802632943     0.025120202243     0.006722116215    12.000000000000
         H           -1.140997320813    -0.964059271627    -0.163480708645     1.007825032230
         H           -1.091075343792     0.690319594069    -0.764608507146     1.007825032230
         H           -1.083910241855     0.378745107224     0.964570347531     1.007825032230
         H            1.028403351466    -0.784117403282    -0.329586686200     1.007825032230

  Nuclear repulsion =   40.528088786503190

  ==> Basis Set <==

  Basis Set: 6-311G*
    Blend: 6-311G*
    Number of shells: 28
    Number of basis function: 48
    Number of Cartesian functions: 50
    Spherical Harmonics?: true
    Max angular momentum: 2

  ==> DFJKGrad: Density-Fitted SCF Gradients <==

    Gradient:                    1
    J tasked:                  Yes
    K tasked:                  Yes
    wK tasked:                  No
    OpenMP threads:              1
    Integrals threads:           1
    Memory [MiB]:              500
    Schwarz Cutoff:          0E+00
    Fitting Condition:       1E-10

   => Auxiliary Basis Set <=

  Basis Set: (6-311G* AUX)
    Blend: CC-PVTZ-JKFIT
    Number of shells: 90
    Number of basis function: 278
    Number of Cartesian functions: 332
    Spherical Harmonics?: true
    Max angular momentum: 4


  -Total Gradient:
     Atom            X                  Y                   Z
    ------   -----------------  -----------------  -----------------
       1        0.009397866720     0.003695653004    -0.001072926539
       2       -0.011132608409     0.000555380919     0.000297530621
       3       -0.001004285823     0.000286115658     0.000014553879
       4        0.001101713176    -0.000529845419     0.001721513525
       5       -0.000971579322    -0.000465607512    -0.000670367823
       6        0.002608893658    -0.003541696650    -0.000290303663


*** tstop() called on node37.bme.utexas.edu at Sun Dec 29 12:31:59 2019
Module time:
	user time   =       0.46 seconds =       0.01 minutes
	system time =       0.01 seconds =       0.00 minutes
	total time  =          0 seconds =       0.00 minutes
Total time:
	user time   =       2.31 seconds =       0.04 minutes
	system time =       0.06 seconds =       0.00 minutes
	total time  =          3 seconds =       0.05 minutes

			-----------------------------------------
			 OPTKING 2.0: for geometry optimizations 
			  - R.A. King,  Bethel University        
			-----------------------------------------

	Previous internal coordinate definitions found.
	---Fragment 1 Geometry and Gradient---
	 O           1.3042206204        0.0452477659        0.0253698085
	 C          -1.3753476497        0.0474703025        0.0127029586
	 H          -2.1561724462       -1.8218079921       -0.3089337661
	 H          -2.0618335820        1.3045149718       -1.4449006717
	 H          -2.0482935017        0.7157245240        1.8227737856
	 H           1.9434006808       -1.4817671424       -0.6228285715
	             0.0093978667        0.0036956530       -0.0010729265
	            -0.0111326084        0.0005553809        0.0002975306
	            -0.0010042858        0.0002861157        0.0000145539
	             0.0011017132       -0.0005298454        0.0017215135
	            -0.0009715793       -0.0004656075       -0.0006703678
	             0.0026088937       -0.0035416966       -0.0002903037

	---Fragment 1 Intrafragment Coordinates---
	 - Coordinate -           - BOHR/RAD -       - ANG/DEG -
	 R(1,2)           =         2.679599	       1.417983
	 R(1,6)           =         1.777776	       0.940758
	 R(2,3)           =         2.051180	       1.085438
	 R(2,4)           =         2.043534	       1.081392
	 R(2,5)           =         2.043472	       1.081359
	 B(1,2,3)         =         1.961298	     112.374077
	 B(1,2,4)         =         1.917510	     109.865226
	 B(1,2,5)         =         1.902226	     108.989521
	 B(2,1,6)         =         1.937483	     111.009572
	 B(3,2,4)         =         1.897430	     108.714759
	 B(3,2,5)         =         1.887624	     108.152882
	 B(4,2,5)         =         1.896547	     108.664129
	 D(3,2,1,6)       =         0.234814	      13.453850
	 D(4,2,1,6)       =        -1.880097	    -107.721633
	 D(5,2,1,6)       =         2.326859	     133.319203

	Current energy   :      -115.0614723561

	Energy change for the previous step:
		Projected    :        -0.0014094229
		Actual       :        -0.0033951472
	Energy ratio indicates good step: Trust radius increased to 1.000e+00.


	Performing BFGS update.
	Previous computed or guess Hessian on step 1.
	Steps to be used in Hessian update: 1
	Taking RFO optimization step.
	Going to follow RFO solution 1.
	Using RFO vector 1.
	Norm of target step-size    0.73899
	Projected energy change by RFO approximation:        -0.0047828304

	Back-transformation to cartesian coordinates...
	Successfully converged to displaced geometry.

	--- Internal Coordinate Step in ANG or DEG, aJ/ANG or AJ/DEG ---
	 ---------------------------------------------------------------------------
	   Coordinate                Previous        Force       Change         New 
	   ----------                --------       ------       ------       ------
	    1 R(1,2)          =      1.417983    -0.098865    -0.018415     1.399568
	    2 R(1,6)          =      0.940758    -0.033663    -0.007419     0.933339
	    3 R(2,3)          =      1.085438    -0.000983    -0.000790     1.084647
	    4 R(2,4)          =      1.081392     0.015851     0.001948     1.083340
	    5 R(2,5)          =      1.081359     0.003511    -0.000506     1.080853
	    6 B(1,2,3)        =    112.374077    -0.000120    -0.338794   112.035283
	    7 B(1,2,4)        =    109.865226     0.000103     0.678586   110.543812
	    8 B(1,2,5)        =    108.989521    -0.000115    -0.439288   108.550233
	    9 B(2,1,6)        =    111.009572    -0.000166    -5.656752   105.352820
	   10 B(3,2,4)        =    108.714759     0.000004    -0.260155   108.454604
	   11 B(3,2,5)        =    108.152882     0.000079     0.138917   108.291799
	   12 B(4,2,5)        =    108.664129     0.000052     0.230292   108.894421
	   13 D(3,2,1,6)      =     13.453850     0.000015    24.487166    37.941017
	   14 D(4,2,1,6)      =   -107.721633     0.000015    24.573480   -83.148153
	   15 D(5,2,1,6)      =    133.319203     0.000002    24.157440   157.476643
	 ---------------------------------------------------------------------------
	Successfully symmetrized geometry.

  ==> Convergence Check <==

  Measures of convergence in internal coordinates in au.
  Criteria marked as inactive (o), active & met (*), and active & unmet ( ).
  ---------------------------------------------------------------------------------------------
   Step     Total Energy     Delta E     MAX Force     RMS Force      MAX Disp      RMS Disp   
  ---------------------------------------------------------------------------------------------
    Convergence Criteria    1.00e-06 *    3.00e-04 *             o    1.20e-03 *             o
  ---------------------------------------------------------------------------------------------
      2    -115.06147236   -3.40e-03      1.20e-02      3.45e-03 o    4.29e-01      1.92e-01 o  ~
  ---------------------------------------------------------------------------------------------

	Writing optimization data to binary file.
	Structure for next step:
	Cartesian Geometry (in Angstrom)
	    O     0.6925655283  -0.0351853379   0.0832331117
	    C    -0.7061189478   0.0035600746   0.0520652364
	    H    -1.1369374560  -0.9787662910  -0.1088379641
	    H    -1.0507201386   0.6624048079  -0.7358425331
	    H    -1.0609795662   0.3781969600   1.0017828386
	    H     0.9369722316  -0.6602578961  -0.5653590022
			--------------------------
			 OPTKING Finished Execution 
			--------------------------

    Structure for next step:
    Molecular point group: c1
    Full point group: C1

    Geometry (in Angstrom), charge = 0, multiplicity = 1:

    O            0.683999256788    -0.000114984349     0.035002683090
    C           -0.714685224880     0.038630428318     0.003834807583
    H           -1.145503734750    -0.943695941155    -0.157068393490
    H           -1.059286417043     0.697475164190    -0.784072964952
    H           -1.069545844659     0.413267315174     0.953552413528
    H            0.928405960977    -0.625187545033    -0.613589433377

gradient() will perform analytic gradient computation.

*** tstart() called on node37.bme.utexas.edu
*** at Sun Dec 29 12:31:59 2019

   => Loading Basis Set <=

    Name: 6-311G*
    Role: ORBITAL
    Keyword: BASIS
    atoms 1   entry O          line   152 file /home/bdw2292/miniconda3/envs/p4env/share/psi4/basis/6-311gs.gbs 
    atoms 2   entry C          line   114 file /home/bdw2292/miniconda3/envs/p4env/share/psi4/basis/6-311gs.gbs 
    atoms 3-6 entry H          line    37 file /home/bdw2292/miniconda3/envs/p4env/share/psi4/basis/6-311gs.gbs 


         ---------------------------------------------------------
                                   SCF
               by Justin Turney, Rob Parrish, Andy Simmonett
                          and Daniel G. A. Smith
                              RHF Reference
                        1 Threads,    667 MiB Core
         ---------------------------------------------------------

  ==> Geometry <==

    Molecular point group: c1
    Full point group: C1

    Geometry (in Angstrom), charge = 0, multiplicity = 1:

       Center              X                  Y                   Z               Mass       
    ------------   -----------------  -----------------  -----------------  -----------------
         O            0.683999256788    -0.000114984349     0.035002683090    15.994914619570
         C           -0.714685224880     0.038630428318     0.003834807583    12.000000000000
         H           -1.145503734750    -0.943695941155    -0.157068393490     1.007825032230
         H           -1.059286417043     0.697475164190    -0.784072964952     1.007825032230
         H           -1.069545844659     0.413267315174     0.953552413528     1.007825032230
         H            0.928405960977    -0.625187545033    -0.613589433377     1.007825032230

  Running in c1 symmetry.

  Rotational constants: A =      4.36315  B =      0.85492  C =      0.82407 [cm^-1]
  Rotational constants: A = 130803.82639  B =  25629.79590  C =  24705.07690 [MHz]
  Nuclear repulsion =   40.943061334448224

  Charge       = 0
  Multiplicity = 1
  Electrons    = 18
  Nalpha       = 9
  Nbeta        = 9

  ==> Algorithm <==

  SCF Algorithm Type is DF.
  DIIS enabled.
  MOM disabled.
  Fractional occupation disabled.
  Guess Type is READ.
  Energy threshold   = 1.00e-08
  Density threshold  = 1.00e-08
  Integral threshold = 0.00e+00

  ==> Primary Basis <==

  Basis Set: 6-311G*
    Blend: 6-311G*
    Number of shells: 28
    Number of basis function: 48
    Number of Cartesian functions: 50
    Spherical Harmonics?: true
    Max angular momentum: 2

   => Loading Basis Set <=

    Name: (6-311G* AUX)
    Role: JKFIT
    Keyword: DF_BASIS_SCF
    atoms 1   entry O          line   229 file /home/bdw2292/miniconda3/envs/p4env/share/psi4/basis/cc-pvtz-jkfit.gbs 
    atoms 2   entry C          line   125 file /home/bdw2292/miniconda3/envs/p4env/share/psi4/basis/cc-pvtz-jkfit.gbs 
    atoms 3-6 entry H          line    51 file /home/bdw2292/miniconda3/envs/p4env/share/psi4/basis/cc-pvtz-jkfit.gbs 

   => Loading Basis Set <=

    Name: 6-311G*
    Role: ORBITAL
    Keyword: BASIS
    atoms 1   entry O          line   152 file /home/bdw2292/miniconda3/envs/p4env/share/psi4/basis/6-311gs.gbs 
    atoms 2   entry C          line   114 file /home/bdw2292/miniconda3/envs/p4env/share/psi4/basis/6-311gs.gbs 
    atoms 3-6 entry H          line    37 file /home/bdw2292/miniconda3/envs/p4env/share/psi4/basis/6-311gs.gbs 

  Reading orbitals from file 180, no projection.

  ==> Pre-Iterations <==

   -------------------------------------------------------
    Irrep   Nso     Nmo     Nalpha   Nbeta   Ndocc  Nsocc
   -------------------------------------------------------
     A         48      48       0       0       0       0
   -------------------------------------------------------
    Total      48      48       9       9       9       0
   -------------------------------------------------------

  ==> Integral Setup <==

  DFHelper Memory: AOs need 0.006 GiB; user supplied 0.489 GiB. Using in-core AOs.

  ==> MemDFJK: Density-Fitted J/K Matrices <==

    J tasked:                   Yes
    K tasked:                   Yes
    wK tasked:                   No
    OpenMP threads:               1
    Memory [MiB]:               500
    Algorithm:                 Core
    Schwarz Cutoff:           1E-12
    Mask sparsity (%):       0.0000
    Fitting Condition:        1E-10

   => Auxiliary Basis Set <=

  Basis Set: (6-311G* AUX)
    Blend: CC-PVTZ-JKFIT
    Number of shells: 90
    Number of basis function: 278
    Number of Cartesian functions: 332
    Spherical Harmonics?: true
    Max angular momentum: 4

  Minimum eigenvalue in the overlap matrix is 1.0553965814E-02.
  Using Symmetric Orthogonalization.

  SCF Guess: Orbitals guess was supplied from a previous computation.

  ==> Iterations <==

                           Total Energy        Delta E     RMS |[F,P]|

   @DF-RHF iter   0:  -115.04538357625614   -1.15045e+02   4.26720e-03 
   @DF-RHF iter   1:  -115.05898446890104   -1.36009e-02   1.12781e-03 DIIS
   @DF-RHF iter   2:  -115.06147014763533   -2.48568e-03   5.00046e-04 DIIS
   @DF-RHF iter   3:  -115.06199501782700   -5.24870e-04   2.57548e-04 DIIS
   @DF-RHF iter   4:  -115.06213810749134   -1.43090e-04   5.26564e-05 DIIS
   @DF-RHF iter   5:  -115.06214874452618   -1.06370e-05   1.69112e-05 DIIS
   @DF-RHF iter   6:  -115.06214952112275   -7.76597e-07   3.68132e-06 DIIS
   @DF-RHF iter   7:  -115.06214956665036   -4.55276e-08   6.57092e-07 DIIS
   @DF-RHF iter   8:  -115.06214956812650   -1.47614e-09   1.78381e-07 DIIS
   @DF-RHF iter   9:  -115.06214956823035   -1.03853e-10   2.85210e-08 DIIS
   @DF-RHF iter  10:  -115.06214956823287   -2.51532e-12   7.07645e-09 DIIS
  Energy and wave function converged.


  ==> Post-Iterations <==

    Orbital Energies [Eh]
    ---------------------

    Doubly Occupied:                                                      

       1A    -20.542755     2A    -11.264233     3A     -1.369056  
       4A     -0.927545     5A     -0.698805     6A     -0.624222  
       7A     -0.596189     8A     -0.504137     9A     -0.445407  

    Virtual:                                                              

      10A      0.152713    11A      0.190150    12A      0.227973  
      13A      0.233911    14A      0.347023    15A      0.464799  
      16A      0.476082    17A      0.598625    18A      0.703660  
      19A      0.741740    20A      0.791005    21A      0.802422  
      22A      0.946068    23A      1.066037    24A      1.078012  
      25A      1.183834    26A      1.544498    27A      1.581691  
      28A      1.678881    29A      1.767814    30A      1.771095  
      31A      1.999371    32A      2.376270    33A      2.621345  
      34A      2.715715    35A      2.720940    36A      3.157934  
      37A      3.255493    38A      3.382722    39A      3.399222  
      40A      3.565141    41A      3.583234    42A      3.811832  
      43A      4.279745    44A      5.382661    45A      5.560859  
      46A      5.919431    47A     24.569931    48A     51.528345  

    Final Occupation by Irrep:
              A 
    DOCC [     9 ]

  @DF-RHF Final Energy:  -115.06214956823287

   => Energetics <=

    Nuclear Repulsion Energy =             40.9430613344482239
    One-Electron Energy =                -238.0657219376431613
    Two-Electron Energy =                  82.0605110349620617
    Total Energy =                       -115.0621495682328685

Computation Completed


Properties will be evaluated at   0.000000,   0.000000,   0.000000 [a0]

Properties computed using the SCF density matrix

  Nuclear Dipole Moment: [e a0]
     X:    -2.1960      Y:    -0.4295      Z:    -0.5634

  Electronic Dipole Moment: [e a0]
     X:     1.7329      Y:    -0.0159      Z:     0.0927

  Dipole Moment: [e a0]
     X:    -0.4630      Y:    -0.4454      Z:    -0.4708     Total:     0.7965

  Dipole Moment: [D]
     X:    -1.1769      Y:    -1.1320      Z:    -1.1965     Total:     2.0244


*** tstop() called on node37.bme.utexas.edu at Sun Dec 29 12:32:00 2019
Module time:
	user time   =       0.45 seconds =       0.01 minutes
	system time =       0.01 seconds =       0.00 minutes
	total time  =          1 seconds =       0.02 minutes
Total time:
	user time   =       2.77 seconds =       0.05 minutes
	system time =       0.07 seconds =       0.00 minutes
	total time  =          4 seconds =       0.07 minutes

*** tstart() called on node37.bme.utexas.edu
*** at Sun Dec 29 12:32:00 2019


         ------------------------------------------------------------
                                   SCF GRAD                          
                          Rob Parrish, Justin Turney,                
                       Andy Simmonett, and Alex Sokolov              
         ------------------------------------------------------------

  ==> Geometry <==

    Molecular point group: c1
    Full point group: C1

    Geometry (in Angstrom), charge = 0, multiplicity = 1:

       Center              X                  Y                   Z               Mass       
    ------------   -----------------  -----------------  -----------------  -----------------
         O            0.683999256788    -0.000114984349     0.035002683090    15.994914619570
         C           -0.714685224880     0.038630428318     0.003834807583    12.000000000000
         H           -1.145503734750    -0.943695941155    -0.157068393490     1.007825032230
         H           -1.059286417043     0.697475164190    -0.784072964952     1.007825032230
         H           -1.069545844659     0.413267315174     0.953552413528     1.007825032230
         H            0.928405960977    -0.625187545033    -0.613589433377     1.007825032230

  Nuclear repulsion =   40.943061334448224

  ==> Basis Set <==

  Basis Set: 6-311G*
    Blend: 6-311G*
    Number of shells: 28
    Number of basis function: 48
    Number of Cartesian functions: 50
    Spherical Harmonics?: true
    Max angular momentum: 2

  ==> DFJKGrad: Density-Fitted SCF Gradients <==

    Gradient:                    1
    J tasked:                  Yes
    K tasked:                  Yes
    wK tasked:                  No
    OpenMP threads:              1
    Integrals threads:           1
    Memory [MiB]:              500
    Schwarz Cutoff:          0E+00
    Fitting Condition:       1E-10

   => Auxiliary Basis Set <=

  Basis Set: (6-311G* AUX)
    Blend: CC-PVTZ-JKFIT
    Number of shells: 90
    Number of basis function: 278
    Number of Cartesian functions: 332
    Spherical Harmonics?: true
    Max angular momentum: 4


  -Total Gradient:
     Atom            X                  Y                   Z
    ------   -----------------  -----------------  -----------------
       1        0.007378701190     0.004434168973    -0.001258425944
       2        0.001442462046    -0.005758956685    -0.003112137116
       3        0.000299821842     0.001708194161    -0.001011814210
       4        0.002849275776    -0.001329273753     0.001151872068
       5       -0.000241090853    -0.000757888922     0.000140265820
       6       -0.011729170000     0.001703756225     0.004090239381


*** tstop() called on node37.bme.utexas.edu at Sun Dec 29 12:32:00 2019
Module time:
	user time   =       0.47 seconds =       0.01 minutes
	system time =       0.00 seconds =       0.00 minutes
	total time  =          0 seconds =       0.00 minutes
Total time:
	user time   =       3.24 seconds =       0.05 minutes
	system time =       0.07 seconds =       0.00 minutes
	total time  =          4 seconds =       0.07 minutes

			-----------------------------------------
			 OPTKING 2.0: for geometry optimizations 
			  - R.A. King,  Bethel University        
			-----------------------------------------

	Previous internal coordinate definitions found.
	---Fragment 1 Geometry and Gradient---
	 O           1.2925712653       -0.0002172889        0.0661454847
	 C          -1.3505593409        0.0730009296        0.0072467361
	 H          -2.1646883344       -1.7833268745       -0.2968162467
	 H          -2.0017612166        1.3180370396       -1.4816831661
	 H          -2.0211487250        0.7809620423        1.8019529078
	 H           1.7544329995       -1.1814332372       -1.1595159826
	             0.0073787012        0.0044341690       -0.0012584259
	             0.0014424620       -0.0057589567       -0.0031121371
	             0.0002998218        0.0017081942       -0.0010118142
	             0.0028492758       -0.0013292738        0.0011518721
	            -0.0002410909       -0.0007578889        0.0001402658
	            -0.0117291700        0.0017037562        0.0040902394

	---Fragment 1 Intrafragment Coordinates---
	 - Coordinate -           - BOHR/RAD -       - ANG/DEG -
	 R(1,2)           =         2.644800	       1.399568
	 R(1,6)           =         1.763755	       0.933339
	 R(2,3)           =         2.049686	       1.084647
	 R(2,4)           =         2.047215	       1.083340
	 R(2,5)           =         2.042515	       1.080853
	 B(1,2,3)         =         1.955385	     112.035283
	 B(1,2,4)         =         1.929353	     110.543812
	 B(1,2,5)         =         1.894559	     108.550233
	 B(2,1,6)         =         1.838754	     105.352820
	 B(3,2,4)         =         1.892890	     108.454604
	 B(3,2,5)         =         1.890048	     108.291799
	 B(4,2,5)         =         1.900566	     108.894421
	 D(3,2,1,6)       =         0.662196	      37.941017
	 D(4,2,1,6)       =        -1.451209	     -83.148153
	 D(5,2,1,6)       =         2.748486	     157.476643

	Current energy   :      -115.0621495682

	Energy change for the previous step:
		Projected    :        -0.0047828304
		Actual       :        -0.0006772122
	Energy ratio indicates iffy step: Trust radius decreased to 2.500e-01.


	Performing BFGS update.
	Previous computed or guess Hessian on step 1.
	Change in internal coordinate of 5.20e-01 exceeds limit of 5.00e-01.
	 Skipping Hessian update for step 1.
	Steps to be used in Hessian update: 2
	Taking RFO optimization step.
	Going to follow RFO solution 1.
	Using RFO vector 1.

	Determining step-restricting scale parameter for RS-RFO.
	Maximum step size allowed    0.25000

	 Iter      |step|        alpha        rfo_root  
	------------------------------------------------
	    0     0.58555       1.00000           1
	    1     0.38012       1.80806           1
	    2     0.28613       2.63674           1
	    3     0.25462       3.07709           1
	    4     0.25010       3.15118           1
	    5     0.25000       3.15282           1
	------------------------------------------------
	Norm of target step-size    0.25000
	Projected energy change by RFO approximation:        -0.0026296888

	Back-transformation to cartesian coordinates...
	Successfully converged to displaced geometry.

	--- Internal Coordinate Step in ANG or DEG, aJ/ANG or AJ/DEG ---
	 ---------------------------------------------------------------------------
	   Coordinate                Previous        Force       Change         New 
	   ----------                --------       ------       ------       ------
	    1 R(1,2)          =      1.399568     0.036700    -0.004201     1.395367
	    2 R(1,6)          =      0.933339     0.058123     0.000336     0.933675
	    3 R(2,3)          =      1.084647     0.012490     0.000663     1.085310
	    4 R(2,4)          =      1.083340     0.021029     0.002020     1.085360
	    5 R(2,5)          =      1.080853     0.000497     0.000076     1.080928
	    6 B(1,2,3)        =    112.035283    -0.000070    -0.264224   111.771059
	    7 B(1,2,4)        =    110.543812     0.000283     0.627406   111.171217
	    8 B(1,2,5)        =    108.550233    -0.000097    -0.328524   108.221710
	    9 B(2,1,6)        =    105.352820     0.001365     3.193356   108.546176
	   10 B(3,2,4)        =    108.454604    -0.000008     0.018906   108.473509
	   11 B(3,2,5)        =    108.291799    -0.000017    -0.018639   108.273160
	   12 B(4,2,5)        =    108.894421    -0.000098    -0.044551   108.849870
	   13 D(3,2,1,6)      =     37.941017     0.000040     8.191919    46.132935
	   14 D(4,2,1,6)      =    -83.148153     0.000008     7.909923   -75.238230
	   15 D(5,2,1,6)      =    157.476643     0.000011     7.795517   165.272161
	 ---------------------------------------------------------------------------
	Successfully symmetrized geometry.

  ==> Convergence Check <==

  Measures of convergence in internal coordinates in au.
  Criteria marked as inactive (o), active & met (*), and active & unmet ( ).
  ---------------------------------------------------------------------------------------------
   Step     Total Energy     Delta E     MAX Force     RMS Force      MAX Disp      RMS Disp   
  ---------------------------------------------------------------------------------------------
    Convergence Criteria    1.00e-06 *    3.00e-04 *             o    1.20e-03 *             o
  ---------------------------------------------------------------------------------------------
      3    -115.06214957   -6.77e-04      1.79e-02      5.32e-03 o    1.43e-01      6.40e-02 o  ~
  ---------------------------------------------------------------------------------------------

	Writing optimization data to binary file.
	Structure for next step:
	Cartesian Geometry (in Angstrom)
	    O     0.6715851851  -0.0410391346   0.0580904549
	    C    -0.7209274218   0.0323355126   0.0073659018
	    H    -1.1704410229  -0.9446143917  -0.1389337561
	    H    -1.0500793181   0.6858830497  -0.7942207845
	    H    -1.0729719561   0.4298384967   0.9488868507
	    H     0.9662185396  -0.5820290940  -0.6435295523
			--------------------------
			 OPTKING Finished Execution 
			--------------------------

    Structure for next step:
    Molecular point group: c1
    Full point group: C1

    Geometry (in Angstrom), charge = 0, multiplicity = 1:

    O            0.679536989699    -0.019727570852     0.046074270371
    C           -0.712975622692     0.053647076622    -0.004650282926
    H           -1.162489225585    -0.923302831489    -0.150949941469
    H           -1.042127520297     0.707194616268    -0.806236972434
    H           -1.065020158419     0.451150062325     0.936870669663
    H            0.974170345330    -0.560717532400    -0.655545739589

gradient() will perform analytic gradient computation.

*** tstart() called on node37.bme.utexas.edu
*** at Sun Dec 29 12:32:00 2019

   => Loading Basis Set <=

    Name: 6-311G*
    Role: ORBITAL
    Keyword: BASIS
    atoms 1   entry O          line   152 file /home/bdw2292/miniconda3/envs/p4env/share/psi4/basis/6-311gs.gbs 
    atoms 2   entry C          line   114 file /home/bdw2292/miniconda3/envs/p4env/share/psi4/basis/6-311gs.gbs 
    atoms 3-6 entry H          line    37 file /home/bdw2292/miniconda3/envs/p4env/share/psi4/basis/6-311gs.gbs 


         ---------------------------------------------------------
                                   SCF
               by Justin Turney, Rob Parrish, Andy Simmonett
                          and Daniel G. A. Smith
                              RHF Reference
                        1 Threads,    667 MiB Core
         ---------------------------------------------------------

  ==> Geometry <==

    Molecular point group: c1
    Full point group: C1

    Geometry (in Angstrom), charge = 0, multiplicity = 1:

       Center              X                  Y                   Z               Mass       
    ------------   -----------------  -----------------  -----------------  -----------------
         O            0.679536989699    -0.019727570852     0.046074270371    15.994914619570
         C           -0.712975622692     0.053647076622    -0.004650282926    12.000000000000
         H           -1.162489225585    -0.923302831489    -0.150949941469     1.007825032230
         H           -1.042127520297     0.707194616268    -0.806236972434     1.007825032230
         H           -1.065020158419     0.451150062325     0.936870669663     1.007825032230
         H            0.974170345330    -0.560717532400    -0.655545739589     1.007825032230

  Running in c1 symmetry.

  Rotational constants: A =      4.39043  B =      0.85466  C =      0.82507 [cm^-1]
  Rotational constants: A = 131621.64544  B =  25621.92376  C =  24734.85381 [MHz]
  Nuclear repulsion =   40.956780963219721

  Charge       = 0
  Multiplicity = 1
  Electrons    = 18
  Nalpha       = 9
  Nbeta        = 9

  ==> Algorithm <==

  SCF Algorithm Type is DF.
  DIIS enabled.
  MOM disabled.
  Fractional occupation disabled.
  Guess Type is READ.
  Energy threshold   = 1.00e-08
  Density threshold  = 1.00e-08
  Integral threshold = 0.00e+00

  ==> Primary Basis <==

  Basis Set: 6-311G*
    Blend: 6-311G*
    Number of shells: 28
    Number of basis function: 48
    Number of Cartesian functions: 50
    Spherical Harmonics?: true
    Max angular momentum: 2

   => Loading Basis Set <=

    Name: (6-311G* AUX)
    Role: JKFIT
    Keyword: DF_BASIS_SCF
    atoms 1   entry O          line   229 file /home/bdw2292/miniconda3/envs/p4env/share/psi4/basis/cc-pvtz-jkfit.gbs 
    atoms 2   entry C          line   125 file /home/bdw2292/miniconda3/envs/p4env/share/psi4/basis/cc-pvtz-jkfit.gbs 
    atoms 3-6 entry H          line    51 file /home/bdw2292/miniconda3/envs/p4env/share/psi4/basis/cc-pvtz-jkfit.gbs 

   => Loading Basis Set <=

    Name: 6-311G*
    Role: ORBITAL
    Keyword: BASIS
    atoms 1   entry O          line   152 file /home/bdw2292/miniconda3/envs/p4env/share/psi4/basis/6-311gs.gbs 
    atoms 2   entry C          line   114 file /home/bdw2292/miniconda3/envs/p4env/share/psi4/basis/6-311gs.gbs 
    atoms 3-6 entry H          line    37 file /home/bdw2292/miniconda3/envs/p4env/share/psi4/basis/6-311gs.gbs 

  Reading orbitals from file 180, no projection.

  ==> Pre-Iterations <==

   -------------------------------------------------------
    Irrep   Nso     Nmo     Nalpha   Nbeta   Ndocc  Nsocc
   -------------------------------------------------------
     A         48      48       0       0       0       0
   -------------------------------------------------------
    Total      48      48       9       9       9       0
   -------------------------------------------------------

  ==> Integral Setup <==

  DFHelper Memory: AOs need 0.006 GiB; user supplied 0.489 GiB. Using in-core AOs.

  ==> MemDFJK: Density-Fitted J/K Matrices <==

    J tasked:                   Yes
    K tasked:                   Yes
    wK tasked:                   No
    OpenMP threads:               1
    Memory [MiB]:               500
    Algorithm:                 Core
    Schwarz Cutoff:           1E-12
    Mask sparsity (%):       0.0000
    Fitting Condition:        1E-10

   => Auxiliary Basis Set <=

  Basis Set: (6-311G* AUX)
    Blend: CC-PVTZ-JKFIT
    Number of shells: 90
    Number of basis function: 278
    Number of Cartesian functions: 332
    Spherical Harmonics?: true
    Max angular momentum: 4

  Minimum eigenvalue in the overlap matrix is 1.0562930076E-02.
  Using Symmetric Orthogonalization.

  SCF Guess: Orbitals guess was supplied from a previous computation.

  ==> Iterations <==

                           Total Energy        Delta E     RMS |[F,P]|

   @DF-RHF iter   0:  -115.06310454039304   -1.15063e+02   1.58164e-03 
   @DF-RHF iter   1:  -115.06293656167212    1.67979e-04   3.43089e-04 DIIS
   @DF-RHF iter   2:  -115.06317680944706   -2.40248e-04   1.38393e-04 DIIS
   @DF-RHF iter   3:  -115.06322755469989   -5.07453e-05   6.35233e-05 DIIS
   @DF-RHF iter   4:  -115.06323455640594   -7.00171e-06   1.46814e-05 DIIS
   @DF-RHF iter   5:  -115.06323537177083   -8.15365e-07   4.18668e-06 DIIS
   @DF-RHF iter   6:  -115.06323542814536   -5.63745e-08   1.14064e-06 DIIS
   @DF-RHF iter   7:  -115.06323543229476   -4.14940e-09   2.08197e-07 DIIS
   @DF-RHF iter   8:  -115.06323543243710   -1.42336e-10   4.52354e-08 DIIS
   @DF-RHF iter   9:  -115.06323543244369   -6.59384e-12   6.02876e-09 DIIS
  Energy and wave function converged.


  ==> Post-Iterations <==

    Orbital Energies [Eh]
    ---------------------

    Doubly Occupied:                                                      

       1A    -20.541394     2A    -11.264211     3A     -1.367806  
       4A     -0.928430     5A     -0.698825     6A     -0.623617  
       7A     -0.598390     8A     -0.499874     9A     -0.444547  

    Virtual:                                                              

      10A      0.153986    11A      0.189659    12A      0.227821  
      13A      0.234261    14A      0.347079    15A      0.464054  
      16A      0.480027    17A      0.599680    18A      0.703937  
      19A      0.739046    20A      0.791187    21A      0.804832  
      22A      0.945755    23A      1.065498    24A      1.078573  
      25A      1.179213    26A      1.547092    27A      1.594214  
      28A      1.688798    29A      1.767247    30A      1.770013  
      31A      2.004267    32A      2.371568    33A      2.620398  
      34A      2.712638    35A      2.721774    36A      3.161198  
      37A      3.262375    38A      3.383048    39A      3.407423  
      40A      3.541667    41A      3.583796    42A      3.828235  
      43A      4.277205    44A      5.384961    45A      5.552486  
      46A      5.934431    47A     24.571764    48A     51.529439  

    Final Occupation by Irrep:
              A 
    DOCC [     9 ]

  @DF-RHF Final Energy:  -115.06323543244369

   => Energetics <=

    Nuclear Repulsion Energy =             40.9567809632197211
    One-Electron Energy =                -238.1058452088058743
    Two-Electron Energy =                  82.0858288131424558
    Total Energy =                       -115.0632354324436903

Computation Completed


Properties will be evaluated at   0.000000,   0.000000,   0.000000 [a0]

Properties computed using the SCF density matrix

  Nuclear Dipole Moment: [e a0]
     X:    -2.1487      Y:    -0.3054      Z:    -0.6334

  Electronic Dipole Moment: [e a0]
     X:     1.7220      Y:    -0.0629      Z:     0.1102

  Dipole Moment: [e a0]
     X:    -0.4267      Y:    -0.3683      Z:    -0.5232     Total:     0.7690

  Dipole Moment: [D]
     X:    -1.0845      Y:    -0.9362      Z:    -1.3298     Total:     1.9547


*** tstop() called on node37.bme.utexas.edu at Sun Dec 29 12:32:01 2019
Module time:
	user time   =       0.45 seconds =       0.01 minutes
	system time =       0.01 seconds =       0.00 minutes
	total time  =          1 seconds =       0.02 minutes
Total time:
	user time   =       3.70 seconds =       0.06 minutes
	system time =       0.08 seconds =       0.00 minutes
	total time  =          5 seconds =       0.08 minutes

*** tstart() called on node37.bme.utexas.edu
*** at Sun Dec 29 12:32:01 2019


         ------------------------------------------------------------
                                   SCF GRAD                          
                          Rob Parrish, Justin Turney,                
                       Andy Simmonett, and Alex Sokolov              
         ------------------------------------------------------------

  ==> Geometry <==

    Molecular point group: c1
    Full point group: C1

    Geometry (in Angstrom), charge = 0, multiplicity = 1:

       Center              X                  Y                   Z               Mass       
    ------------   -----------------  -----------------  -----------------  -----------------
         O            0.679536989699    -0.019727570852     0.046074270371    15.994914619570
         C           -0.712975622692     0.053647076622    -0.004650282926    12.000000000000
         H           -1.162489225585    -0.923302831489    -0.150949941469     1.007825032230
         H           -1.042127520297     0.707194616268    -0.806236972434     1.007825032230
         H           -1.065020158419     0.451150062325     0.936870669663     1.007825032230
         H            0.974170345330    -0.560717532400    -0.655545739589     1.007825032230

  Nuclear repulsion =   40.956780963219721

  ==> Basis Set <==

  Basis Set: 6-311G*
    Blend: 6-311G*
    Number of shells: 28
    Number of basis function: 48
    Number of Cartesian functions: 50
    Spherical Harmonics?: true
    Max angular momentum: 2

  ==> DFJKGrad: Density-Fitted SCF Gradients <==

    Gradient:                    1
    J tasked:                  Yes
    K tasked:                  Yes
    wK tasked:                  No
    OpenMP threads:              1
    Integrals threads:           1
    Memory [MiB]:              500
    Schwarz Cutoff:          0E+00
    Fitting Condition:       1E-10

   => Auxiliary Basis Set <=

  Basis Set: (6-311G* AUX)
    Blend: CC-PVTZ-JKFIT
    Number of shells: 90
    Number of basis function: 278
    Number of Cartesian functions: 332
    Spherical Harmonics?: true
    Max angular momentum: 4


  -Total Gradient:
     Atom            X                  Y                   Z
    ------   -----------------  -----------------  -----------------
       1        0.001169507487    -0.000417444844    -0.004856636452
       2        0.002013951574    -0.001264384867     0.000255885639
       3        0.001044965475     0.001232319125    -0.000699552878
       4        0.001754254313    -0.000943281995     0.000392105657
       5       -0.000880629178    -0.000637098263     0.000348808660
       6       -0.005102049670     0.002029890843     0.004559389373


*** tstop() called on node37.bme.utexas.edu at Sun Dec 29 12:32:01 2019
Module time:
	user time   =       0.47 seconds =       0.01 minutes
	system time =       0.00 seconds =       0.00 minutes
	total time  =          0 seconds =       0.00 minutes
Total time:
	user time   =       4.17 seconds =       0.07 minutes
	system time =       0.08 seconds =       0.00 minutes
	total time  =          5 seconds =       0.08 minutes

			-----------------------------------------
			 OPTKING 2.0: for geometry optimizations 
			  - R.A. King,  Bethel University        
			-----------------------------------------

	Previous internal coordinate definitions found.
	---Fragment 1 Geometry and Gradient---
	 O           1.2841388026       -0.0372797060        0.0870677524
	 C          -1.3473286610        0.1013782822       -0.0087877611
	 H          -2.1967862602       -1.7447894824       -0.2852540480
	 H          -1.9693356012        1.3364041421       -1.5235670701
	 H          -2.0125964175        0.8525500593        1.7704289806
	 H           1.8409151522       -1.0596025700       -1.2388019105
	             0.0011695075       -0.0004174448       -0.0048566365
	             0.0020139516       -0.0012643849        0.0002558856
	             0.0010449655        0.0012323191       -0.0006995529
	             0.0017542543       -0.0009432820        0.0003921057
	            -0.0008806292       -0.0006370983        0.0003488087
	            -0.0051020497        0.0020298908        0.0045593894

	---Fragment 1 Intrafragment Coordinates---
	 - Coordinate -           - BOHR/RAD -       - ANG/DEG -
	 R(1,2)           =         2.636861	       1.395367
	 R(1,6)           =         1.764391	       0.933675
	 R(2,3)           =         2.050938	       1.085310
	 R(2,4)           =         2.051033	       1.085360
	 R(2,5)           =         2.042658	       1.080928
	 B(1,2,3)         =         1.950773	     111.771059
	 B(1,2,4)         =         1.940304	     111.171217
	 B(1,2,5)         =         1.888825	     108.221710
	 B(2,1,6)         =         1.894488	     108.546176
	 B(3,2,4)         =         1.893220	     108.473509
	 B(3,2,5)         =         1.889723	     108.273160
	 B(4,2,5)         =         1.899789	     108.849870
	 D(3,2,1,6)       =         0.805172	      46.132935
	 D(4,2,1,6)       =        -1.313155	     -75.238230
	 D(5,2,1,6)       =         2.884543	     165.272161

	Current energy   :      -115.0632354324

	Energy change for the previous step:
		Projected    :        -0.0026296888
		Actual       :        -0.0010858642

	Performing BFGS update.
	Previous computed or guess Hessian on step 1.
	Change in internal coordinate of 5.70e-01 exceeds limit of 5.00e-01.
	 Skipping Hessian update for step 2.
	Change in internal coordinate of 6.58e-01 exceeds limit of 5.00e-01.
	 Skipping Hessian update for step 1.
	Steps to be used in Hessian update: 3
	Taking RFO optimization step.
	Going to follow RFO solution 1.
	Using RFO vector 1.

	Determining step-restricting scale parameter for RS-RFO.
	Maximum step size allowed    0.25000

	 Iter      |step|        alpha        rfo_root  
	------------------------------------------------
	    0     0.78465       1.00000           1
	    1     0.49156       2.17606           1
	    2     0.33855       3.88830           1
	    3     0.27074       5.42868           1
	    4     0.25171       6.04123           1
	    5     0.25001       6.10137           1
	    6     0.25000       6.10186           1
	------------------------------------------------
	Norm of target step-size    0.25000
	Projected energy change by RFO approximation:        -0.0010256635

	Back-transformation to cartesian coordinates...
	Successfully converged to displaced geometry.

	--- Internal Coordinate Step in ANG or DEG, aJ/ANG or AJ/DEG ---
	 ---------------------------------------------------------------------------
	   Coordinate                Previous        Force       Change         New 
	   ----------                --------       ------       ------       ------
	    1 R(1,2)          =      1.395367     0.033120     0.001692     1.397059
	    2 R(1,6)          =      0.933675     0.051182     0.005377     0.939052
	    3 R(2,3)          =      1.085310     0.011928     0.002251     1.087560
	    4 R(2,4)          =      1.085360     0.011448     0.002461     1.087822
	    5 R(2,5)          =      1.080928    -0.002936    -0.000763     1.080165
	    6 B(1,2,3)        =    111.771059     0.000060     0.445963   112.217022
	    7 B(1,2,4)        =    111.171217     0.000179     0.953671   112.124888
	    8 B(1,2,5)        =    108.221710    -0.000158    -1.182055   107.039655
	    9 B(2,1,6)        =    108.546176     0.000433     0.837067   109.383243
	   10 B(3,2,4)        =    108.473509    -0.000012     0.188170   108.661679
	   11 B(3,2,5)        =    108.273160    -0.000006    -0.033087   108.240074
	   12 B(4,2,5)        =    108.849870    -0.000071    -0.437397   108.412473
	   13 D(3,2,1,6)      =     46.132935     0.000031     8.753489    54.886425
	   14 D(4,2,1,6)      =    -75.238230    -0.000004     7.497420   -67.740811
	   15 D(5,2,1,6)      =    165.272161     0.000014     8.221664   173.493825
	 ---------------------------------------------------------------------------
	Successfully symmetrized geometry.

  ==> Convergence Check <==

  Measures of convergence in internal coordinates in au.
  Criteria marked as inactive (o), active & met (*), and active & unmet ( ).
  ---------------------------------------------------------------------------------------------
   Step     Total Energy     Delta E     MAX Force     RMS Force      MAX Disp      RMS Disp   
  ---------------------------------------------------------------------------------------------
    Convergence Criteria    1.00e-06 *    3.00e-04 *             o    1.20e-03 *             o
  ---------------------------------------------------------------------------------------------
      4    -115.06323543   -1.09e-03      6.21e-03      2.66e-03 o    1.53e-01      6.44e-02 o  ~
  ---------------------------------------------------------------------------------------------

	Writing optimization data to binary file.
	Structure for next step:
	Cartesian Geometry (in Angstrom)
	    O     0.6775797650  -0.0434209876   0.0544741447
	    C    -0.7158582528   0.0404802483  -0.0008918708
	    H    -1.1826289407  -0.9358215780  -0.1092771880
	    H    -1.0558459364   0.6808115325  -0.8119035994
	    H    -1.0444621473   0.4704231270   0.9339478592
	    H     0.9923103294  -0.5042285206  -0.7007873396
			--------------------------
			 OPTKING Finished Execution 
			--------------------------

    Structure for next step:
    Molecular point group: c1
    Full point group: C1

    Geometry (in Angstrom), charge = 0, multiplicity = 1:

    O            0.679485065164    -0.027814165529     0.049253334486
    C           -0.713952958082     0.056087070712    -0.006112681224
    H           -1.180723647819    -0.920214759413    -0.114497998896
    H           -1.053940643021     0.696418357467    -0.817124413033
    H           -1.042556853829     0.486029951145     0.928727052450
    H            0.994215630811    -0.488621700317    -0.706008152832

gradient() will perform analytic gradient computation.

*** tstart() called on node37.bme.utexas.edu
*** at Sun Dec 29 12:32:01 2019

   => Loading Basis Set <=

    Name: 6-311G*
    Role: ORBITAL
    Keyword: BASIS
    atoms 1   entry O          line   152 file /home/bdw2292/miniconda3/envs/p4env/share/psi4/basis/6-311gs.gbs 
    atoms 2   entry C          line   114 file /home/bdw2292/miniconda3/envs/p4env/share/psi4/basis/6-311gs.gbs 
    atoms 3-6 entry H          line    37 file /home/bdw2292/miniconda3/envs/p4env/share/psi4/basis/6-311gs.gbs 


         ---------------------------------------------------------
                                   SCF
               by Justin Turney, Rob Parrish, Andy Simmonett
                          and Daniel G. A. Smith
                              RHF Reference
                        1 Threads,    667 MiB Core
         ---------------------------------------------------------

  ==> Geometry <==

    Molecular point group: c1
    Full point group: C1

    Geometry (in Angstrom), charge = 0, multiplicity = 1:

       Center              X                  Y                   Z               Mass       
    ------------   -----------------  -----------------  -----------------  -----------------
         O            0.679485065164    -0.027814165529     0.049253334486    15.994914619570
         C           -0.713952958082     0.056087070712    -0.006112681224    12.000000000000
         H           -1.180723647819    -0.920214759413    -0.114497998896     1.007825032230
         H           -1.053940643021     0.696418357467    -0.817124413033     1.007825032230
         H           -1.042556853829     0.486029951145     0.928727052450     1.007825032230
         H            0.994215630811    -0.488621700317    -0.706008152832     1.007825032230

  Running in c1 symmetry.

  Rotational constants: A =      4.38697  B =      0.85066  C =      0.82185 [cm^-1]
  Rotational constants: A = 131518.10816  B =  25502.14968  C =  24638.49236 [MHz]
  Nuclear repulsion =   40.869996051755116

  Charge       = 0
  Multiplicity = 1
  Electrons    = 18
  Nalpha       = 9
  Nbeta        = 9

  ==> Algorithm <==

  SCF Algorithm Type is DF.
  DIIS enabled.
  MOM disabled.
  Fractional occupation disabled.
  Guess Type is READ.
  Energy threshold   = 1.00e-08
  Density threshold  = 1.00e-08
  Integral threshold = 0.00e+00

  ==> Primary Basis <==

  Basis Set: 6-311G*
    Blend: 6-311G*
    Number of shells: 28
    Number of basis function: 48
    Number of Cartesian functions: 50
    Spherical Harmonics?: true
    Max angular momentum: 2

   => Loading Basis Set <=

    Name: (6-311G* AUX)
    Role: JKFIT
    Keyword: DF_BASIS_SCF
    atoms 1   entry O          line   229 file /home/bdw2292/miniconda3/envs/p4env/share/psi4/basis/cc-pvtz-jkfit.gbs 
    atoms 2   entry C          line   125 file /home/bdw2292/miniconda3/envs/p4env/share/psi4/basis/cc-pvtz-jkfit.gbs 
    atoms 3-6 entry H          line    51 file /home/bdw2292/miniconda3/envs/p4env/share/psi4/basis/cc-pvtz-jkfit.gbs 

   => Loading Basis Set <=

    Name: 6-311G*
    Role: ORBITAL
    Keyword: BASIS
    atoms 1   entry O          line   152 file /home/bdw2292/miniconda3/envs/p4env/share/psi4/basis/6-311gs.gbs 
    atoms 2   entry C          line   114 file /home/bdw2292/miniconda3/envs/p4env/share/psi4/basis/6-311gs.gbs 
    atoms 3-6 entry H          line    37 file /home/bdw2292/miniconda3/envs/p4env/share/psi4/basis/6-311gs.gbs 

  Reading orbitals from file 180, no projection.

  ==> Pre-Iterations <==

   -------------------------------------------------------
    Irrep   Nso     Nmo     Nalpha   Nbeta   Ndocc  Nsocc
   -------------------------------------------------------
     A         48      48       0       0       0       0
   -------------------------------------------------------
    Total      48      48       9       9       9       0
   -------------------------------------------------------

  ==> Integral Setup <==

  DFHelper Memory: AOs need 0.006 GiB; user supplied 0.489 GiB. Using in-core AOs.

  ==> MemDFJK: Density-Fitted J/K Matrices <==

    J tasked:                   Yes
    K tasked:                   Yes
    wK tasked:                   No
    OpenMP threads:               1
    Memory [MiB]:               500
    Algorithm:                 Core
    Schwarz Cutoff:           1E-12
    Mask sparsity (%):       0.0000
    Fitting Condition:        1E-10

   => Auxiliary Basis Set <=

  Basis Set: (6-311G* AUX)
    Blend: CC-PVTZ-JKFIT
    Number of shells: 90
    Number of basis function: 278
    Number of Cartesian functions: 332
    Spherical Harmonics?: true
    Max angular momentum: 4

  Minimum eigenvalue in the overlap matrix is 1.0652153814E-02.
  Using Symmetric Orthogonalization.

  SCF Guess: Orbitals guess was supplied from a previous computation.

  ==> Iterations <==

                           Total Energy        Delta E     RMS |[F,P]|

   @DF-RHF iter   0:  -115.05680810308408   -1.15057e+02   1.20409e-03 
   @DF-RHF iter   1:  -115.06337763907119   -6.56954e-03   3.00275e-04 DIIS
   @DF-RHF iter   2:  -115.06357562246295   -1.97983e-04   1.21946e-04 DIIS
   @DF-RHF iter   3:  -115.06362349581275   -4.78733e-05   4.06530e-05 DIIS
   @DF-RHF iter   4:  -115.06362654367786   -3.04787e-06   1.34130e-05 DIIS
   @DF-RHF iter   5:  -115.06362721284313   -6.69165e-07   2.23745e-06 DIIS
   @DF-RHF iter   6:  -115.06362723325961   -2.04165e-08   5.25432e-07 DIIS
   @DF-RHF iter   7:  -115.06362723400542   -7.45814e-10   1.44005e-07 DIIS
   @DF-RHF iter   8:  -115.06362723405805   -5.26228e-11   3.81506e-08 DIIS
   @DF-RHF iter   9:  -115.06362723406224   -4.19220e-12   6.55818e-09 DIIS
  Energy and wave function converged.


  ==> Post-Iterations <==

    Orbital Energies [Eh]
    ---------------------

[...]
    C           -0.714458680443     0.061066319454    -0.007774286015
    H           -1.187490190186    -0.914497271751    -0.089617429192
    H           -1.042747730075     0.678976787378    -0.840001621696
    H           -1.043421700246     0.523749702787     0.911313683057
    H            1.007574697771    -0.435583833128    -0.730659656893

gradient() will perform analytic gradient computation.

*** tstart() called on node37.bme.utexas.edu
*** at Sun Dec 29 12:32:06 2019

   => Loading Basis Set <=

    Name: 6-311G*
    Role: ORBITAL
    Keyword: BASIS
    atoms 1   entry O          line   152 file /home/bdw2292/miniconda3/envs/p4env/share/psi4/basis/6-311gs.gbs 
    atoms 2   entry C          line   114 file /home/bdw2292/miniconda3/envs/p4env/share/psi4/basis/6-311gs.gbs 
    atoms 3-6 entry H          line    37 file /home/bdw2292/miniconda3/envs/p4env/share/psi4/basis/6-311gs.gbs 


         ---------------------------------------------------------
                                   SCF
               by Justin Turney, Rob Parrish, Andy Simmonett
                          and Daniel G. A. Smith
                              RHF Reference
                        1 Threads,    667 MiB Core
         ---------------------------------------------------------

  ==> Geometry <==

    Molecular point group: c1
    Full point group: C1

    Geometry (in Angstrom), charge = 0, multiplicity = 1:

       Center              X                  Y                   Z               Mass       
    ------------   -----------------  -----------------  -----------------  -----------------
         O            0.678798326458    -0.036529620696     0.053024173778    15.994914619570
         C           -0.714458680443     0.061066319454    -0.007774286015    12.000000000000
         H           -1.187490190186    -0.914497271751    -0.089617429192     1.007825032230
         H           -1.042747730075     0.678976787378    -0.840001621696     1.007825032230
         H           -1.043421700246     0.523749702787     0.911313683057     1.007825032230
         H            1.007574697771    -0.435583833128    -0.730659656893     1.007825032230

  Running in c1 symmetry.

  Rotational constants: A =      4.39255  B =      0.84925  C =      0.82072 [cm^-1]
  Rotational constants: A = 131685.47869  B =  25459.94231  C =  24604.48817 [MHz]
  Nuclear repulsion =   40.852226925276064

  Charge       = 0
  Multiplicity = 1
  Electrons    = 18
  Nalpha       = 9
  Nbeta        = 9

  ==> Algorithm <==

  SCF Algorithm Type is DF.
  DIIS enabled.
  MOM disabled.
  Fractional occupation disabled.
  Guess Type is READ.
  Energy threshold   = 1.00e-08
  Density threshold  = 1.00e-08
  Integral threshold = 0.00e+00

  ==> Primary Basis <==

  Basis Set: 6-311G*
    Blend: 6-311G*
    Number of shells: 28
    Number of basis function: 48
    Number of Cartesian functions: 50
    Spherical Harmonics?: true
    Max angular momentum: 2

   => Loading Basis Set <=

    Name: (6-311G* AUX)
    Role: JKFIT
    Keyword: DF_BASIS_SCF
    atoms 1   entry O          line   229 file /home/bdw2292/miniconda3/envs/p4env/share/psi4/basis/cc-pvtz-jkfit.gbs 
    atoms 2   entry C          line   125 file /home/bdw2292/miniconda3/envs/p4env/share/psi4/basis/cc-pvtz-jkfit.gbs 
    atoms 3-6 entry H          line    51 file /home/bdw2292/miniconda3/envs/p4env/share/psi4/basis/cc-pvtz-jkfit.gbs 

   => Loading Basis Set <=

    Name: 6-311G*
    Role: ORBITAL
    Keyword: BASIS
    atoms 1   entry O          line   152 file /home/bdw2292/miniconda3/envs/p4env/share/psi4/basis/6-311gs.gbs 
    atoms 2   entry C          line   114 file /home/bdw2292/miniconda3/envs/p4env/share/psi4/basis/6-311gs.gbs 
    atoms 3-6 entry H          line    37 file /home/bdw2292/miniconda3/envs/p4env/share/psi4/basis/6-311gs.gbs 

  Reading orbitals from file 180, no projection.

  ==> Pre-Iterations <==

   -------------------------------------------------------
    Irrep   Nso     Nmo     Nalpha   Nbeta   Ndocc  Nsocc
   -------------------------------------------------------
     A         48      48       0       0       0       0
   -------------------------------------------------------
    Total      48      48       9       9       9       0
   -------------------------------------------------------

  ==> Integral Setup <==

  DFHelper Memory: AOs need 0.006 GiB; user supplied 0.489 GiB. Using in-core AOs.

  ==> MemDFJK: Density-Fitted J/K Matrices <==

    J tasked:                   Yes
    K tasked:                   Yes
    wK tasked:                   No
    OpenMP threads:               1
    Memory [MiB]:               500
    Algorithm:                 Core
    Schwarz Cutoff:           1E-12
    Mask sparsity (%):       0.0000
    Fitting Condition:        1E-10

   => Auxiliary Basis Set <=

  Basis Set: (6-311G* AUX)
    Blend: CC-PVTZ-JKFIT
    Number of shells: 90
    Number of basis function: 278
    Number of Cartesian functions: 332
    Spherical Harmonics?: true
    Max angular momentum: 4

  Minimum eigenvalue in the overlap matrix is 1.0677484269E-02.
  Using Symmetric Orthogonalization.

  SCF Guess: Orbitals guess was supplied from a previous computation.

  ==> Iterations <==

                           Total Energy        Delta E     RMS |[F,P]|

   @DF-RHF iter   0:  -115.06370874482457   -1.15064e+02   6.52229e-05 
   @DF-RHF iter   1:  -115.06371392501438   -5.18019e-06   1.66810e-05 DIIS
   @DF-RHF iter   2:  -115.06371455102436   -6.26010e-07   6.78655e-06 DIIS
   @DF-RHF iter   3:  -115.06371470385170   -1.52827e-07   2.00268e-06 DIIS
   @DF-RHF iter   4:  -115.06371471223929   -8.38759e-09   7.49933e-07 DIIS
   @DF-RHF iter   5:  -115.06371471419445   -1.95516e-09   1.27681e-07 DIIS
   @DF-RHF iter   6:  -115.06371471425518   -6.07372e-11   3.48597e-08 DIIS
   @DF-RHF iter   7:  -115.06371471425746   -2.27374e-12   6.72598e-09 DIIS
  Energy and wave function converged.


  ==> Post-Iterations <==

    Orbital Energies [Eh]
    ---------------------

    Doubly Occupied:                                                      

       1A    -20.541666     2A    -11.264803     3A     -1.364457  
       4A     -0.928362     5A     -0.697004     6A     -0.622286  
       7A     -0.597328     8A     -0.498104     9A     -0.444932  

    Virtual:                                                              

      10A      0.154641    11A      0.189143    12A      0.227344  
      13A      0.234006    14A      0.346235    15A      0.461385  
      16A      0.484061    17A      0.596245    18A      0.700389  
      19A      0.737287    20A      0.791096    21A      0.805898  
      22A      0.946316    23A      1.064724    24A      1.080035  
      25A      1.175337    26A      1.547050    27A      1.602378  
      28A      1.695651    29A      1.764274    30A      1.770921  
      31A      2.002482    32A      2.368211    33A      2.619150  
      34A      2.706074    35A      2.725010    36A      3.165145  
      37A      3.258002    38A      3.378719    39A      3.421422  
      40A      3.516527    41A      3.577445    42A      3.830231  
      43A      4.273877    44A      5.386407    45A      5.542668  
      46A      5.932761    47A     24.568155    48A     51.527635  

    Final Occupation by Irrep:
              A 
    DOCC [     9 ]

  @DF-RHF Final Energy:  -115.06371471425746

   => Energetics <=

    Nuclear Repulsion Energy =             40.8522269252760637
    One-Electron Energy =                -237.9139995948416129
    Two-Electron Energy =                  81.9980579553080986
    Total Energy =                       -115.0637147142574577

Computation Completed


Properties will be evaluated at   0.000000,   0.000000,   0.000000 [a0]

Properties computed using the SCF density matrix

  Nuclear Dipole Moment: [e a0]
     X:    -2.1211      Y:    -0.1383      Z:    -0.7019

  Electronic Dipole Moment: [e a0]
     X:     1.7152      Y:    -0.1033      Z:     0.1110

  Dipole Moment: [e a0]
     X:    -0.4060      Y:    -0.2417      Z:    -0.5909     Total:     0.7566

  Dipole Moment: [D]
     X:    -1.0319      Y:    -0.6142      Z:    -1.5019     Total:     1.9230


*** tstop() called on node37.bme.utexas.edu at Sun Dec 29 12:32:06 2019
Module time:
	user time   =       0.45 seconds =       0.01 minutes
	system time =       0.01 seconds =       0.00 minutes
	total time  =          0 seconds =       0.00 minutes
Total time:
	user time   =       8.49 seconds =       0.14 minutes
	system time =       0.15 seconds =       0.00 minutes
	total time  =         10 seconds =       0.17 minutes

*** tstart() called on node37.bme.utexas.edu
*** at Sun Dec 29 12:32:06 2019


         ------------------------------------------------------------
                                   SCF GRAD                          
                          Rob Parrish, Justin Turney,                
                       Andy Simmonett, and Alex Sokolov              
         ------------------------------------------------------------

  ==> Geometry <==

    Molecular point group: c1
    Full point group: C1

    Geometry (in Angstrom), charge = 0, multiplicity = 1:

       Center              X                  Y                   Z               Mass       
    ------------   -----------------  -----------------  -----------------  -----------------
         O            0.678798326458    -0.036529620696     0.053024173778    15.994914619570
         C           -0.714458680443     0.061066319454    -0.007774286015    12.000000000000
         H           -1.187490190186    -0.914497271751    -0.089617429192     1.007825032230
         H           -1.042747730075     0.678976787378    -0.840001621696     1.007825032230
         H           -1.043421700246     0.523749702787     0.911313683057     1.007825032230
         H            1.007574697771    -0.435583833128    -0.730659656893     1.007825032230

  Nuclear repulsion =   40.852226925276064

  ==> Basis Set <==

  Basis Set: 6-311G*
    Blend: 6-311G*
    Number of shells: 28
    Number of basis function: 48
    Number of Cartesian functions: 50
    Spherical Harmonics?: true
    Max angular momentum: 2

  ==> DFJKGrad: Density-Fitted SCF Gradients <==

    Gradient:                    1
    J tasked:                  Yes
    K tasked:                  Yes
    wK tasked:                  No
    OpenMP threads:              1
    Integrals threads:           1
    Memory [MiB]:              500
    Schwarz Cutoff:          0E+00
    Fitting Condition:       1E-10

   => Auxiliary Basis Set <=

  Basis Set: (6-311G* AUX)
    Blend: CC-PVTZ-JKFIT
    Number of shells: 90
    Number of basis function: 278
    Number of Cartesian functions: 332
    Spherical Harmonics?: true
    Max angular momentum: 4


  -Total Gradient:
     Atom            X                  Y                   Z
    ------   -----------------  -----------------  -----------------
       1        0.000026435022     0.000025927412    -0.000009601987
       2       -0.000009844976    -0.000043163644     0.000008079543
       3       -0.000025588999     0.000014366204    -0.000002046819
       4        0.000011725709     0.000000569382    -0.000001034450
       5       -0.000000216452     0.000001134096     0.000000142493
       6       -0.000002510305     0.000001166551     0.000004461220


*** tstop() called on node37.bme.utexas.edu at Sun Dec 29 12:32:07 2019
Module time:
	user time   =       0.48 seconds =       0.01 minutes
	system time =       0.00 seconds =       0.00 minutes
	total time  =          1 seconds =       0.02 minutes
Total time:
	user time   =       8.98 seconds =       0.15 minutes
	system time =       0.15 seconds =       0.00 minutes
	total time  =         11 seconds =       0.18 minutes

			-----------------------------------------
			 OPTKING 2.0: for geometry optimizations 
			  - R.A. King,  Bethel University        
			-----------------------------------------

	Previous internal coordinate definitions found.
	---Fragment 1 Geometry and Gradient---
	 O           1.2827429314       -0.0690309786        0.1002011665
	 C          -1.3501312340        0.1153986193       -0.0146912714
	 H          -2.2440312361       -1.7281493861       -0.1693523972
	 H          -1.9705076278        1.2830801737       -1.5873730099
	 H          -1.9717812468        0.9897434966        1.7221332754
	 H           1.9040402297       -0.8231341493       -1.3807466424
	             0.0000264350        0.0000259274       -0.0000096020
	            -0.0000098450       -0.0000431636        0.0000080795
	            -0.0000255890        0.0000143662       -0.0000020468
	             0.0000117257        0.0000005694       -0.0000010345
	            -0.0000002165        0.0000011341        0.0000001425
	            -0.0000025103        0.0000011666        0.0000044612

	---Fragment 1 Intrafragment Coordinates---
	 - Coordinate -           - BOHR/RAD -       - ANG/DEG -
	 R(1,2)           =         2.641825	       1.397994
	 R(1,6)           =         1.774229	       0.938882
	 R(2,3)           =         2.054665	       1.087282
	 R(2,4)           =         2.054671	       1.087285
	 R(2,5)           =         2.041442	       1.080285
	 B(1,2,3)         =         1.954352	     111.976116
	 B(1,2,4)         =         1.953978	     111.954715
	 B(1,2,5)         =         1.871700	     107.240487
	 B(2,1,6)         =         1.920228	     110.020932
	 B(3,2,4)         =         1.897516	     108.719639
	 B(3,2,5)         =         1.892148	     108.412088
	 B(4,2,5)         =         1.892156	     108.412539
	 D(3,2,1,6)       =         1.067867	      61.184267
	 D(4,2,1,6)       =        -1.068402	     -61.214942
	 D(5,2,1,6)       =         3.141428	     179.990549

	Current energy   :      -115.0637147143

	Energy change for the previous step:
		Projected    :        -0.0000004336
		Actual       :        -0.0000001523

	Performing BFGS update.
	Previous computed or guess Hessian on step 1.
	Steps to be used in Hessian update: 8 7
	Taking RFO optimization step.
	Going to follow RFO solution 1.
	Using RFO vector 1.
	Norm of target step-size    0.00040
	Projected energy change by RFO approximation:        -0.0000000320

	Back-transformation to cartesian coordinates...
	Successfully converged to displaced geometry.
	First geometry is closer to target in internal coordinates, so am using that one.
	First geometry has RMS(Delta(q)) = 9.46e-09

	--- Internal Coordinate Step in ANG or DEG, aJ/ANG or AJ/DEG ---
	 ---------------------------------------------------------------------------
	   Coordinate                Previous        Force       Change         New 
	   ----------                --------       ------       ------       ------
	    1 R(1,2)          =      1.397994    -0.000179    -0.000019     1.397974
	    2 R(1,6)          =      0.938882     0.000042     0.000004     0.938885
	    3 R(2,3)          =      1.087282     0.000013     0.000001     1.087283
	    4 R(2,4)          =      1.087285     0.000020     0.000002     1.087287
	    5 R(2,5)          =      1.080285    -0.000006    -0.000002     1.080283
	    6 B(1,2,3)        =    111.976116    -0.000004    -0.014493   111.961624
	    7 B(1,2,4)        =    111.954715     0.000002     0.008892   111.963607
	    8 B(1,2,5)        =    107.240487     0.000000     0.002096   107.242583
	    9 B(2,1,6)        =    110.020932     0.000000    -0.000268   110.020664
	   10 B(3,2,4)        =    108.719639     0.000001     0.001927   108.721565
	   11 B(3,2,5)        =    108.412088     0.000001     0.000782   108.412870
	   12 B(4,2,5)        =    108.412539    -0.000000     0.000999   108.413538
	   13 D(3,2,1,6)      =     61.184267     0.000000     0.009607    61.193875
	   14 D(4,2,1,6)      =    -61.214942     0.000000     0.011202   -61.203740
	   15 D(5,2,1,6)      =    179.990549    -0.000000     0.003539   179.994088
	 ---------------------------------------------------------------------------
	Successfully symmetrized geometry.

  ==> Convergence Check <==

  Measures of convergence in internal coordinates in au.
  Criteria marked as inactive (o), active & met (*), and active & unmet ( ).
  ---------------------------------------------------------------------------------------------
   Step     Total Energy     Delta E     MAX Force     RMS Force      MAX Disp      RMS Disp   
  ---------------------------------------------------------------------------------------------
    Convergence Criteria    1.00e-06 *    3.00e-04 *             o    1.20e-03 *             o
  ---------------------------------------------------------------------------------------------
      9    -115.06371471   -1.52e-07 *    5.05e-05 *    1.69e-05 o    2.53e-04 *    1.04e-04 o  ~
  ---------------------------------------------------------------------------------------------


  **** Optimization is complete! (in 9 steps) ****

  ==> Optimization Summary <==

  Measures of convergence in internal coordinates in au.
  --------------------------------------------------------------------------------------------------------------- ~
   Step         Total Energy             Delta E       MAX Force       RMS Force        MAX Disp        RMS Disp  ~
  --------------------------------------------------------------------------------------------------------------- ~
      1    -115.058077208823   -115.058077208823      0.03920148      0.01252839      0.09269500      0.05514123  ~
      2    -115.061472356055     -0.003395147232      0.01200005      0.00345419      0.42888813      0.19249548  ~
      3    -115.062149568233     -0.000677212177      0.01794273      0.00531848      0.14297595      0.06396537  ~
      4    -115.063235432444     -0.001085864211      0.00621238      0.00266364      0.15277721      0.06442361  ~
      5    -115.063627234062     -0.000391801619      0.00260029      0.00089769      0.14891434      0.06459784  ~
      6    -115.063652915224     -0.000025681162      0.00418197      0.00139556      0.04920101      0.02311586  ~
      7    -115.063480385216      0.000172530009      0.00584934      0.00305434      0.02458333      0.01257374  ~
      8    -115.063714561995     -0.000234176780      0.00015451      0.00005158      0.00398083      0.00174478  ~
      9    -115.063714714257     -0.000000152262      0.00005048      0.00001685      0.00025294      0.00010413  ~
  --------------------------------------------------------------------------------------------------------------- ~

	Writing optimization data to binary file.
	Final energy is   -115.0637147142575
	Final (previous) structure:
	Cartesian Geometry (in Angstrom)
	    O     0.6787983238  -0.0365296206   0.0530241736
	    C    -0.7144586776   0.0610663192  -0.0077742860
	    H    -1.1874901855  -0.9144972682  -0.0896174288
	    H    -1.0427477260   0.6789767847  -0.8400016184
	    H    -1.0434216961   0.5237497007   0.9113136795
	    H     1.0075746938  -0.4355838314  -0.7306596540
	Saving final (previous) structure.
			--------------------------
			 OPTKING Finished Execution 
			--------------------------

    Final optimized geometry and variables:
    Molecular point group: c1
    Full point group: C1

    Geometry (in Angstrom), charge = 0, multiplicity = 1:

    O            0.678798326458    -0.036529620696     0.053024173778
    C           -0.714458680443     0.061066319454    -0.007774286015
    H           -1.187490190186    -0.914497271751    -0.089617429192
    H           -1.042747730075     0.678976787378    -0.840001621696
    H           -1.043421700246     0.523749702787     0.911313683057
    H            1.007574697771    -0.435583833128    -0.730659656893

	Removing binary optimization data file.
	Cleaning optimization helper files.

    Psi4 stopped on: Sunday, 29 December 2019 12:32PM
    Psi4 wall time for execution: 0:00:10.37

*** Psi4 exiting successfully. Buy a developer a beer!
