
    -----------------------------------------------------------------------
          Psi4: An Open-Source Ab Initio Electronic Structure Package
                               Psi4 1.3.2 release

                         Git: Rev {HEAD} ecbda83 


    R. M. Parrish, L. A. Burns, D. G. A. Smith, A. C. Simmonett,
    A. E. DePrince III, E. G. Hohenstein, U. Bozkaya, A. Yu. Sokolov,
    R. Di Remigio, R. M. Richard, J. F. Gonthier, A. M. James,
    H. R. McAlexander, A. Kumar, M. Saitow, X. Wang, B. P. Pritchard,
    P. Verma, H. F. Schaefer III, K. Patkowski, R. A. King, E. F. Valeev,
    F. A. Evangelista, J. M. Turney, T. D. Crawford, and C. D. Sherrill,
    J. Chem. Theory Comput. 13(7) pp 3185--3197 (2017).
    (doi: 10.1021/acs.jctc.7b00174)


                         Additional Contributions by
    P. Kraus, H. Kruse, M. H. Lechner, M. C. Schieber, R. A. Shaw,
    A. Alenaizan, R. Galvelis, Z. L. Glick, S. Lehtola, and J. P. Misiewicz

    -----------------------------------------------------------------------


    Psi4 started on: Sunday, 29 December 2019 12:34PM

    Process ID: 44739
    Host:       node37.bme.utexas.edu
    PSIDATADIR: /home/bdw2292/miniconda3/envs/p4env/share/psi4
    Memory:     500.0 MiB
    Threads:    1
    
  ==> Input File <==

--------------------------------------------------------------------------
molecule { 
0 1
 O    0.698107    0.117717   -0.116917
 C   -0.734147    0.086805   -0.015413
 H   -1.032223    0.664590    0.863780
 H   -1.063746   -0.953318    0.053932
 H   -1.143963    0.545025   -0.920270
 H    0.960483   -0.754421   -0.465530
}
set {
 basis 6-311++G(2d,2p)
 e_convergence 10 
 d_convergence 10 
 scf_type pk
 pcm true
  pcm_scf_type total 
}
pcm = {
 Units = Angstrom
 Medium {
 SolverType = IEFPCM
 Solvent = Water
 }
 Cavity {
 RadiiSet = UFF
 Type = GePol
 Scaling = False
 Area = 0.3
 Mode = Implicit
 }
}
memory 700MB
set_num_threads(1)
psi4_io.set_default_path("/scratch/bdw2292")
set freeze_core True
E, wfn = energy('mp2/6-311++G(2d,2p)',return_wfn=True)
clean()
--------------------------------------------------------------------------

  Memory set to 667.572 MiB by Python driver.
  Threads set to 1 by Python driver.

*** tstart() called on node37.bme.utexas.edu
*** at Sun Dec 29 12:34:25 2019

   => Loading Basis Set <=

    Name: 6-311++G(2D,2P)
    Role: ORBITAL
    Keyword: BASIS
    atoms 1   entry O          line   176 file /home/bdw2292/miniconda3/envs/p4env/share/psi4/basis/6-311ppg_2d_2p_.gbs 
    atoms 2   entry C          line   130 file /home/bdw2292/miniconda3/envs/p4env/share/psi4/basis/6-311ppg_2d_2p_.gbs 
    atoms 3-6 entry H          line    45 file /home/bdw2292/miniconda3/envs/p4env/share/psi4/basis/6-311ppg_2d_2p_.gbs 


         ---------------------------------------------------------
                                   SCF
               by Justin Turney, Rob Parrish, Andy Simmonett
                          and Daniel G. A. Smith
                              RHF Reference
                        1 Threads,    667 MiB Core
         ---------------------------------------------------------

  ==> Geometry <==

    Molecular point group: c1
    Full point group: C1

    Geometry (in Angstrom), charge = 0, multiplicity = 1:

       Center              X                  Y                   Z               Mass       
    ------------   -----------------  -----------------  -----------------  -----------------
         O            0.696261258975     0.042075481109    -0.038019626205    15.994914619570
         C           -0.735992741025     0.011163481109     0.063484373795    12.000000000000
         H           -1.034068741025     0.588948481109     0.942677373795     1.007825032230
         H           -1.065591741025    -1.028959518891     0.132829373795     1.007825032230
         H           -1.145808741025     0.469383481109    -0.841372626205     1.007825032230
         H            0.958637258975    -0.830062518891    -0.386632626205     1.007825032230

  Running in c1 symmetry.

  Rotational constants: A =      4.15025  B =      0.82312  C =      0.79022 [cm^-1]
  Rotational constants: A = 124421.36593  B =  24676.50213  C =  23690.17651 [MHz]
  Nuclear repulsion =   40.065363628066784

  Charge       = 0
  Multiplicity = 1
  Electrons    = 18
  Nalpha       = 9
  Nbeta        = 9

  ==> Algorithm <==

  SCF Algorithm Type is PK.
  DIIS enabled.
  MOM disabled.
  Fractional occupation disabled.
  Guess Type is SAD.
  Energy threshold   = 1.00e-10
  Density threshold  = 1.00e-10
  Integral threshold = 0.00e+00

  ==> Primary Basis <==

  Basis Set: 6-311++G(2D,2P)
    Blend: 6-311++G(2D,2P)
    Number of shells: 46
    Number of basis function: 94
    Number of Cartesian functions: 98
    Spherical Harmonics?: true
    Max angular momentum: 2

  **PSI4:PCMSOLVER Interface Active**

-----------------------------------------------------------------------
   PCMSolver: An Open Source API for the Polarizable Continuum Model
                   PCMSolver 1.2.1+fa7c826

           Git: Branch {HEAD}, Revision {fa7c826}

 R. Di Remigio, A. H. Steindal, K. Mozgawa, V. Weijo, H. Cao, and
 L. Frediani, Int. J. Quantum Chem., to be submitted

 Source repository: https://github.com/PCMSolver/pcmsolver
 Documentation: https://pcmsolver.readthedocs.io/
 PCMSolver initialized on: Sunday, 29 December 2019 12:34 PM
-----------------------------------------------------------------------

~~~~~~~~~~ PCMSolver ~~~~~~~~~~
Using CODATA 2010 set of constants.
Input parsing done API-side
========== Cavity 
Atomic radii set: 
Cavity type: GePol
Average tesserae area = 0.3 Ang^2
Solvent probe radius = 1.385 Ang
Number of spheres = 6 [initial = 6; added = 0]
Number of finite elements = 314
Number of irreducible finite elements = 314
============ Spheres list (in Angstrom)
 Sphere   on   Radius   Alpha       X            Y            Z     
-------- ---- -------- ------- -----------  -----------  -----------
   1      O    1.7500   1.00     0.696261     0.042075     -0.038020
   2      C    1.9255   1.00     -0.735993     0.011163     0.063484
   3      H    1.4430   1.00     -1.034069     0.588948     0.942677
   4      H    1.4430   1.00     -1.065592     -1.028960     0.132829
   5      H    1.4430   1.00     -1.145809     0.469383     -0.841373
   6      H    1.4430   1.00     0.958637     -0.830063     -0.386633
========== Static solver 
Solver Type: IEFPCM, isotropic
PCM matrix hermitivitized
============ Medium 
Medium initialized from solvent built-in data.
Solvent name:          Water
Static  permittivity = 78.39
Optical permittivity = 1.78
Solvent radius =       1.39 Ang
.... Inside 
Green's function type: vacuum
.... Outside 
Green's function type: uniform dielectric
Permittivity = 78.39

  PCM does not make use of molecular symmetry: further calculations in C1 point group.
  ==> Pre-Iterations <==

   -------------------------------------------------------
    Irrep   Nso     Nmo     Nalpha   Nbeta   Ndocc  Nsocc
   -------------------------------------------------------
     A         94      94       0       0       0       0
   -------------------------------------------------------
    Total      94      94       9       9       9       0
   -------------------------------------------------------

  ==> Integral Setup <==

  Using in-core PK algorithm.
   Calculation information:
      Number of atoms:                   6
      Number of AO shells:              46
      Number of primitives:             72
      Number of atomic orbitals:        98
      Number of basis functions:        94

      Integral cutoff                 1.00e-12
      Number of threads:                 1

  Performing in-core PK
  Using 19940690 doubles for integral storage.
  We computed 584403 shell quartets total.
  Whereas there are 584821 unique shell quartets.

  ==> DiskJK: Disk-Based J/K Matrices <==

    J tasked:                  Yes
    K tasked:                  Yes
    wK tasked:                  No
    Memory [MiB]:              500
    Schwarz Cutoff:          1E-12

    OpenMP threads:              1

  Minimum eigenvalue in the overlap matrix is 8.1149626228E-04.
  Using Symmetric Orthogonalization.

  SCF Guess: Superposition of Atomic Densities via on-the-fly atomic UHF.

  ==> Iterations <==

                        Total Energy        Delta E     RMS |[F,P]|

   @RHF iter SAD:  -114.34760752453826   -1.14348e+02   0.00000e+00 
   @RHF iter   1:  -115.00896166621911   -6.61354e-01   4.36865e-03 DIIS
   @RHF iter   2:  -115.06974292005114   -6.07813e-02   2.49911e-03 DIIS
   @RHF iter   3:  -115.08838205216480   -1.86391e-02   3.84682e-04 DIIS
   @RHF iter   4:  -115.08930641551143   -9.24363e-04   1.13298e-04 DIIS
   @RHF iter   5:  -115.08938857073102   -8.21552e-05   2.52282e-05 DIIS
   @RHF iter   6:  -115.08939352115152   -4.95042e-06   5.75672e-06 DIIS
   @RHF iter   7:  -115.08939390756112   -3.86410e-07   1.41750e-06 DIIS
   @RHF iter   8:  -115.08939393382920   -2.62681e-08   2.86229e-07 DIIS
   @RHF iter   9:  -115.08939393484805   -1.01885e-09   3.88259e-08 DIIS
   @RHF iter  10:  -115.08939393486790   -1.98526e-11   9.83380e-09 DIIS
   @RHF iter  11:  -115.08939393486911   -1.20792e-12   2.25308e-09 DIIS
   @RHF iter  12:  -115.08939393486936   -2.55795e-13   5.49176e-10 DIIS
   @RHF iter  13:  -115.08939393486931    5.68434e-14   1.15350e-10 DIIS
   @RHF iter  14:  -115.08939393486975   -4.40536e-13   4.00371e-11 DIIS
  Energy and wave function converged.


  ==> Post-Iterations <==

    Orbital Energies [Eh]
    ---------------------

    Doubly Occupied:                                                      

       1A    -20.562732     2A    -11.268753     3A     -1.355231  
       4A     -0.919722     5A     -0.688129     6A     -0.618851  
       7A     -0.593126     8A     -0.508771     9A     -0.452763  

    Virtual:                                                              

      10A      0.045308    11A      0.069055    12A      0.077995  
      13A      0.080947    14A      0.127514    15A      0.154713  
      16A      0.159308    17A      0.187503    18A      0.255965  
      19A      0.272349    20A      0.284417    21A      0.304457  
      22A      0.309664    23A      0.331388    24A      0.346674  
      25A      0.389421    26A      0.462674    27A      0.561616  
      28A      0.574125    29A      0.670182    30A      0.714172  
      31A      0.731955    32A      0.752888    33A      0.765472  
      34A      0.790841    35A      0.793984    36A      0.888274  
      37A      0.981854    38A      1.049085    39A      1.090207  
      40A      1.146144    41A      1.213659    42A      1.222857  
      43A      1.271358    44A      1.298052    45A      1.309596  
      46A      1.346793    47A      1.392626    48A      1.501317  
      49A      1.537182    50A      1.549244    51A      1.653212  
      52A      1.673431    53A      1.686464    54A      1.770390  
      55A      1.813503    56A      2.116088    57A      2.236024  
      58A      2.294025    59A      2.528216    60A      2.545882  
      61A      2.886602    62A      2.923798    63A      3.100264  
      64A      3.202213    65A      3.499727    66A      3.508809  
      67A      3.656911    68A      3.678683    69A      3.768931  
      70A      3.947434    71A      3.976044    72A      4.014883  
      73A      4.141695    74A      4.148926    75A      4.209427  
      76A      4.317876    77A      4.414277    78A      4.450779  
      79A      4.472160    80A      4.479679    81A      4.575251  
      82A      4.771535    83A      5.438640    84A      5.454326  
      85A      5.594474    86A      5.972316    87A      6.452360  
      88A      7.466638    89A      7.552319    90A      7.635153  
      91A      7.712007    92A      8.005208    93A     25.117217  
      94A     51.635431  

    Final Occupation by Irrep:
              A 
    DOCC [     9 ]

  @RHF Final Energy:  -115.08939393486975

   => Energetics <=

    Nuclear Repulsion Energy =             40.0653636280667840
    One-Electron Energy =                -236.4430535683213179
    Two-Electron Energy =                  81.2979188501476244
    PCM Polarization Energy =              -0.0096228447628422
    Total Energy =                       -115.0893939348697472

Computation Completed


Properties will be evaluated at   0.000000,   0.000000,   0.000000 [a0]

Properties computed using the SCF density matrix

  Nuclear Dipole Moment: [e a0]
     X:    -2.1405      Y:    -0.7504      Z:    -0.1431

  Electronic Dipole Moment: [e a0]
     X:     1.5379      Y:     0.0368      Z:    -0.0683

  Dipole Moment: [e a0]
     X:    -0.6026      Y:    -0.7137      Z:    -0.2115     Total:     0.9577

  Dipole Moment: [D]
     X:    -1.5317      Y:    -1.8140      Z:    -0.5375     Total:     2.4342


*** tstop() called on node37.bme.utexas.edu at Sun Dec 29 12:34:46 2019
Module time:
	user time   =      19.86 seconds =       0.33 minutes
	system time =       0.14 seconds =       0.00 minutes
	total time  =         21 seconds =       0.35 minutes
Total time:
	user time   =      19.86 seconds =       0.33 minutes
	system time =       0.14 seconds =       0.00 minutes
	total time  =         21 seconds =       0.35 minutes

*** tstart() called on node37.bme.utexas.edu
*** at Sun Dec 29 12:34:46 2019


  //>>>>>>>>>>>>>>>>>>>>>>>>>>>>>>>>>>>//
  //               DFMP2               //
  //<<<<<<<<<<<<<<<<<<<<<<<<<<<<<<<<<<<//

   => Loading Basis Set <=

    Name: (6-311++G(2D,2P) AUX)
    Role: RIFIT
    Keyword: DF_BASIS_MP2
    atoms 1   entry O          line   264 file /home/bdw2292/miniconda3/envs/p4env/share/psi4/basis/aug-cc-pvtz-ri.gbs 
    atoms 2   entry C          line   148 file /home/bdw2292/miniconda3/envs/p4env/share/psi4/basis/aug-cc-pvtz-ri.gbs 
    atoms 3-6 entry H          line    30 file /home/bdw2292/miniconda3/envs/p4env/share/psi4/basis/aug-cc-pvtz-ri.gbs 

	 --------------------------------------------------------
	                          DF-MP2                         
	      2nd-Order Density-Fitted Moller-Plesset Theory     
	              RMP2 Wavefunction,   1 Threads             
	                                                         
	        Rob Parrish, Justin Turney, Andy Simmonett,      
	           Ed Hohenstein, and C. David Sherrill          
	 --------------------------------------------------------

   => Auxiliary Basis Set <=

  Basis Set: (6-311++G(2D,2P) AUX)
    Blend: AUG-CC-PVTZ-RI
    Number of shells: 112
    Number of basis function: 396
    Number of Cartesian functions: 492
    Spherical Harmonics?: true
    Max angular momentum: 4

	 --------------------------------------------------------
	                 NBF =    94, NAUX =   396
	 --------------------------------------------------------
	   CLASS    FOCC     OCC    AOCC    AVIR     VIR    FVIR
	   PAIRS       2       9       7      85      85       0
	 --------------------------------------------------------

	-----------------------------------------------------------
	 ==================> DF-MP2 Energies <==================== 
	-----------------------------------------------------------
	 Reference Energy          =    -115.0893939348697472 [Eh]
	 Singles Energy            =      -0.0000000000000000 [Eh]
	 Same-Spin Energy          =      -0.0930497342285195 [Eh]
	 Opposite-Spin Energy      =      -0.2991291664072560 [Eh]
	 Correlation Energy        =      -0.3921789006357755 [Eh]
	 Total Energy              =    -115.4815728355055171 [Eh]
	-----------------------------------------------------------
	 ================> DF-SCS-MP2 Energies <================== 
	-----------------------------------------------------------
	 SCS Same-Spin Scale       =       0.3333333333333333 [-]
	 SCS Opposite-Spin Scale   =       1.2000000000000000 [-]
	 SCS Same-Spin Energy      =      -0.0310165780761732 [Eh]
	 SCS Opposite-Spin Energy  =      -0.3589549996887072 [Eh]
	 SCS Correlation Energy    =      -0.3899715777648804 [Eh]
	 SCS Total Energy          =    -115.4793655126346295 [Eh]
	-----------------------------------------------------------


*** tstop() called on node37.bme.utexas.edu at Sun Dec 29 12:34:46 2019
Module time:
	user time   =       0.40 seconds =       0.01 minutes
	system time =       0.01 seconds =       0.00 minutes
	total time  =          0 seconds =       0.00 minutes
Total time:
	user time   =      20.26 seconds =       0.34 minutes
	system time =       0.15 seconds =       0.00 minutes
	total time  =         21 seconds =       0.35 minutes

    Psi4 stopped on: Sunday, 29 December 2019 12:34PM
    Psi4 wall time for execution: 0:00:21.19

*** Psi4 exiting successfully. Buy a developer a beer!
