
    -----------------------------------------------------------------------
          Psi4: An Open-Source Ab Initio Electronic Structure Package
                               Psi4 1.3.2 release

                         Git: Rev {HEAD} ecbda83 


    R. M. Parrish, L. A. Burns, D. G. A. Smith, A. C. Simmonett,
    A. E. DePrince III, E. G. Hohenstein, U. Bozkaya, A. Yu. Sokolov,
    R. Di Remigio, R. M. Richard, J. F. Gonthier, A. M. James,
    H. R. McAlexander, A. Kumar, M. Saitow, X. Wang, B. P. Pritchard,
    P. Verma, H. F. Schaefer III, K. Patkowski, R. A. King, E. F. Valeev,
    F. A. Evangelista, J. M. Turney, T. D. Crawford, and C. D. Sherrill,
    J. Chem. Theory Comput. 13(7) pp 3185--3197 (2017).
    (doi: 10.1021/acs.jctc.7b00174)


                         Additional Contributions by
    P. Kraus, H. Kruse, M. H. Lechner, M. C. Schieber, R. A. Shaw,
    A. Alenaizan, R. Galvelis, Z. L. Glick, S. Lehtola, and J. P. Misiewicz

    -----------------------------------------------------------------------


    Psi4 started on: Sunday, 29 December 2019 12:31PM

    Process ID: 43260
    Host:       node37.bme.utexas.edu
    PSIDATADIR: /home/bdw2292/miniconda3/envs/p4env/share/psi4
    Memory:     500.0 MiB
    Threads:    1
    
  ==> Input File <==

--------------------------------------------------------------------------
molecule { 
0 1
 O    0.689956    0.036030    0.013344
 C   -0.746370    0.018725    0.005569
 H   -1.100135    0.161685    1.030250
 H   -1.090747   -0.931539   -0.411067
 H   -1.087782    0.843883   -0.626390
 H    0.971378   -0.848095   -0.286586
}
set optking { 
  frozen_dihedral = ("
  ")
}
memory 700MB
set_num_threads(1)
psi4_io.set_default_path("/scratch/bdw2292")
optimize('hf/6-311G*')
clean()
--------------------------------------------------------------------------

  Memory set to 667.572 MiB by Python driver.
  Threads set to 1 by Python driver.
gradient() will perform analytic gradient computation.

*** tstart() called on node37.bme.utexas.edu
*** at Sun Dec 29 12:31:01 2019

   => Loading Basis Set <=

    Name: 6-311G*
    Role: ORBITAL
    Keyword: BASIS
    atoms 1   entry O          line   152 file /home/bdw2292/miniconda3/envs/p4env/share/psi4/basis/6-311gs.gbs 
    atoms 2   entry C          line   114 file /home/bdw2292/miniconda3/envs/p4env/share/psi4/basis/6-311gs.gbs 
    atoms 3-6 entry H          line    37 file /home/bdw2292/miniconda3/envs/p4env/share/psi4/basis/6-311gs.gbs 


         ---------------------------------------------------------
                                   SCF
               by Justin Turney, Rob Parrish, Andy Simmonett
                          and Daniel G. A. Smith
                              RHF Reference
                        1 Threads,    667 MiB Core
         ---------------------------------------------------------

  ==> Geometry <==

    Molecular point group: c1
    Full point group: C1

    Geometry (in Angstrom), charge = 0, multiplicity = 1:

       Center              X                  Y                   Z               Mass       
    ------------   -----------------  -----------------  -----------------  -----------------
         O            0.697636997520     0.035378231363     0.013838213854    15.994914619570
         C           -0.738689002480     0.018073231363     0.006063213854    12.000000000000
         H           -1.092454002480     0.161033231363     1.030744213854     1.007825032230
         H           -1.083066002480    -0.932190768637    -0.410572786146     1.007825032230
         H           -1.080101002480     0.843231231363    -0.625895786146     1.007825032230
         H            0.979058997520    -0.848746768637    -0.286091786146     1.007825032230

  Running in c1 symmetry.

  Rotational constants: A =      4.15256  B =      0.82193  C =      0.79036 [cm^-1]
  Rotational constants: A = 124490.56963  B =  24640.71253  C =  23694.26074 [MHz]
  Nuclear repulsion =   40.059456458558465

  Charge       = 0
  Multiplicity = 1
  Electrons    = 18
  Nalpha       = 9
  Nbeta        = 9

  ==> Algorithm <==

  SCF Algorithm Type is DF.
  DIIS enabled.
  MOM disabled.
  Fractional occupation disabled.
  Guess Type is SAD.
  Energy threshold   = 1.00e-08
  Density threshold  = 1.00e-08
  Integral threshold = 0.00e+00

  ==> Primary Basis <==

  Basis Set: 6-311G*
    Blend: 6-311G*
    Number of shells: 28
    Number of basis function: 48
    Number of Cartesian functions: 50
    Spherical Harmonics?: true
    Max angular momentum: 2

   => Loading Basis Set <=

    Name: (6-311G* AUX)
    Role: JKFIT
    Keyword: DF_BASIS_SCF
    atoms 1   entry O          line   229 file /home/bdw2292/miniconda3/envs/p4env/share/psi4/basis/cc-pvtz-jkfit.gbs 
    atoms 2   entry C          line   125 file /home/bdw2292/miniconda3/envs/p4env/share/psi4/basis/cc-pvtz-jkfit.gbs 
    atoms 3-6 entry H          line    51 file /home/bdw2292/miniconda3/envs/p4env/share/psi4/basis/cc-pvtz-jkfit.gbs 

  ==> Pre-Iterations <==

   -------------------------------------------------------
    Irrep   Nso     Nmo     Nalpha   Nbeta   Ndocc  Nsocc
   -------------------------------------------------------
     A         48      48       0       0       0       0
   -------------------------------------------------------
    Total      48      48       9       9       9       0
   -------------------------------------------------------

  ==> Integral Setup <==

  DFHelper Memory: AOs need 0.006 GiB; user supplied 0.489 GiB. Using in-core AOs.

  ==> MemDFJK: Density-Fitted J/K Matrices <==

    J tasked:                   Yes
    K tasked:                   Yes
    wK tasked:                   No
    OpenMP threads:               1
    Memory [MiB]:               500
    Algorithm:                 Core
    Schwarz Cutoff:           1E-12
    Mask sparsity (%):       0.0000
    Fitting Condition:        1E-10

   => Auxiliary Basis Set <=

  Basis Set: (6-311G* AUX)
    Blend: CC-PVTZ-JKFIT
    Number of shells: 90
    Number of basis function: 278
    Number of Cartesian functions: 332
    Spherical Harmonics?: true
    Max angular momentum: 4

  Minimum eigenvalue in the overlap matrix is 1.1386494162E-02.
  Using Symmetric Orthogonalization.

  SCF Guess: Superposition of Atomic Densities via on-the-fly atomic UHF.

  ==> Iterations <==

                           Total Energy        Delta E     RMS |[F,P]|

   @DF-RHF iter SAD:  -114.38047271000809   -1.14380e+02   0.00000e+00 
   @DF-RHF iter   1:  -114.98338837397462   -6.02916e-01   8.11829e-03 DIIS
   @DF-RHF iter   2:  -115.04168702389389   -5.82986e-02   4.50159e-03 DIIS
   @DF-RHF iter   3:  -115.05709278056091   -1.54058e-02   7.14266e-04 DIIS
   @DF-RHF iter   4:  -115.05792784385469   -8.35063e-04   1.94181e-04 DIIS
   @DF-RHF iter   5:  -115.05798820719127   -6.03633e-05   4.77046e-05 DIIS
   @DF-RHF iter   6:  -115.05799193335243   -3.72616e-06   1.03347e-05 DIIS
   @DF-RHF iter   7:  -115.05799224388625   -3.10534e-07   2.35349e-06 DIIS
   @DF-RHF iter   8:  -115.05799226241220   -1.85260e-08   4.39430e-07 DIIS
   @DF-RHF iter   9:  -115.05799226306833   -6.56129e-10   8.13606e-08 DIIS
   @DF-RHF iter  10:  -115.05799226309016   -2.18279e-11   2.22412e-08 DIIS
   @DF-RHF iter  11:  -115.05799226309169   -1.53477e-12   4.27521e-09 DIIS
  Energy and wave function converged.


  ==> Post-Iterations <==

    Orbital Energies [Eh]
    ---------------------

    Doubly Occupied:                                                      

       1A    -20.543058     2A    -11.271346     3A     -1.343957  
       4A     -0.920146     5A     -0.681314     6A     -0.616571  
       7A     -0.586132     8A     -0.501337     9A     -0.444147  

    Virtual:                                                              

      10A      0.147515    11A      0.185900    12A      0.230154  
      13A      0.231902    14A      0.336659    15A      0.460537  
      16A      0.466982    17A      0.592618    18A      0.679558  
      19A      0.724081    20A      0.787981    21A      0.788885  
      22A      0.946062    23A      1.074799    24A      1.076176  
      25A      1.207186    26A      1.552333    27A      1.560407  
      28A      1.684358    29A      1.766816    30A      1.781076  
      31A      1.966212    32A      2.378164    33A      2.629413  
      34A      2.703290    35A      2.712369    36A      3.162360  
      37A      3.188234    38A      3.300353    39A      3.371869  
      40A      3.561778    41A      3.580506    42A      3.733310  
      43A      4.258457    44A      5.377975    45A      5.529653  
      46A      5.865269    47A     24.534185    48A     51.522852  

    Final Occupation by Irrep:
              A 
    DOCC [     9 ]

  @DF-RHF Final Energy:  -115.05799226309169

   => Energetics <=

    Nuclear Repulsion Energy =             40.0594564585584649
    One-Electron Energy =                -236.4188816002908595
    Two-Electron Energy =                  81.3014328786407106
    Total Energy =                       -115.0579922630916911

Computation Completed


Properties will be evaluated at   0.000000,   0.000000,   0.000000 [a0]

Properties computed using the SCF density matrix

  Nuclear Dipole Moment: [e a0]
     X:    -2.1309      Y:    -0.7279      Z:    -0.2735

  Electronic Dipole Moment: [e a0]
     X:     1.6426      Y:     0.0775      Z:     0.0472

  Dipole Moment: [e a0]
     X:    -0.4883      Y:    -0.6505      Z:    -0.2263     Total:     0.8442

  Dipole Moment: [D]
     X:    -1.2411      Y:    -1.6533      Z:    -0.5751     Total:     2.1458


*** tstop() called on node37.bme.utexas.edu at Sun Dec 29 12:31:02 2019
Module time:
	user time   =       0.93 seconds =       0.02 minutes
	system time =       0.02 seconds =       0.00 minutes
	total time  =          1 seconds =       0.02 minutes
Total time:
	user time   =       0.93 seconds =       0.02 minutes
	system time =       0.02 seconds =       0.00 minutes
	total time  =          1 seconds =       0.02 minutes

*** tstart() called on node37.bme.utexas.edu
*** at Sun Dec 29 12:31:02 2019


         ------------------------------------------------------------
                                   SCF GRAD                          
                          Rob Parrish, Justin Turney,                
                       Andy Simmonett, and Alex Sokolov              
         ------------------------------------------------------------

  ==> Geometry <==

    Molecular point group: c1
    Full point group: C1

    Geometry (in Angstrom), charge = 0, multiplicity = 1:

       Center              X                  Y                   Z               Mass       
    ------------   -----------------  -----------------  -----------------  -----------------
         O            0.697636997520     0.035378231363     0.013838213854    15.994914619570
         C           -0.738689002480     0.018073231363     0.006063213854    12.000000000000
         H           -1.092454002480     0.161033231363     1.030744213854     1.007825032230
         H           -1.083066002480    -0.932190768637    -0.410572786146     1.007825032230
         H           -1.080101002480     0.843231231363    -0.625895786146     1.007825032230
         H            0.979058997520    -0.848746768637    -0.286091786146     1.007825032230

  Nuclear repulsion =   40.059456458558465

  ==> Basis Set <==

  Basis Set: 6-311G*
    Blend: 6-311G*
    Number of shells: 28
    Number of basis function: 48
    Number of Cartesian functions: 50
    Spherical Harmonics?: true
    Max angular momentum: 2

  ==> DFJKGrad: Density-Fitted SCF Gradients <==

    Gradient:                    1
    J tasked:                  Yes
    K tasked:                  Yes
    wK tasked:                  No
    OpenMP threads:              1
    Integrals threads:           1
    Memory [MiB]:              500
    Schwarz Cutoff:          0E+00
    Fitting Condition:       1E-10

   => Auxiliary Basis Set <=

  Basis Set: (6-311G* AUX)
    Blend: CC-PVTZ-JKFIT
    Number of shells: 90
    Number of basis function: 278
    Number of Cartesian functions: 332
    Spherical Harmonics?: true
    Max angular momentum: 4


  -Total Gradient:
     Atom            X                  Y                   Z
    ------   -----------------  -----------------  -----------------
       1        0.010388224278     0.040993196613     0.013990906207
       2       -0.021596903768    -0.006487897843     0.001490381772
       3        0.001495074926     0.003446075820     0.008862746292
       4        0.004884661832    -0.007613795979    -0.005316689406
       5        0.001001642884     0.007240559048    -0.005691410145
       6        0.003827299848    -0.037578137658    -0.013335934719


*** tstop() called on node37.bme.utexas.edu at Sun Dec 29 12:31:03 2019
Module time:
	user time   =       0.46 seconds =       0.01 minutes
	system time =       0.01 seconds =       0.00 minutes
	total time  =          1 seconds =       0.02 minutes
Total time:
	user time   =       1.39 seconds =       0.02 minutes
	system time =       0.03 seconds =       0.00 minutes
	total time  =          2 seconds =       0.03 minutes

			-----------------------------------------
			 OPTKING 2.0: for geometry optimizations 
			  - R.A. King,  Bethel University        
			-----------------------------------------

	Internal coordinates to be generated automatically.
	Detected frag 1 with atoms:  1 2 3 4 5 6
	---Fragment 1 Bond Connectivity---
	 1 : 2 6
	 2 : 1 3 4 5
	 3 : 2
	 4 : 2
	 5 : 2
	 6 : 1

	Assuming in current code that numbering for constraints corresponds to unified fragment.
	---Fragment 1 Geometry and Gradient---
	 O           1.3183428603        0.0668551681        0.0261504342
	 C          -1.3959199066        0.0341534575        0.0114578136
	 H          -2.0644388693        0.3043087044        1.9478242696
	 H          -2.0466981205       -1.7615852494       -0.7758701204
	 H          -2.0410950825        1.5934760877       -1.1827716189
	 H           1.8501533660       -1.6038989426       -0.5406351226
	             0.0103882243        0.0409931966        0.0139909062
	            -0.0215969038       -0.0064878978        0.0014903818
	             0.0014950749        0.0034460758        0.0088627463
	             0.0048846618       -0.0076137960       -0.0053166894
	             0.0010016429        0.0072405590       -0.0056914101
	             0.0038272998       -0.0375781377       -0.0133359347

	Previous optimization step data not found.  Starting new optimization.

	---Fragment 1 Intrafragment Coordinates---
	 - Coordinate -           - BOHR/RAD -       - ANG/DEG -
	 R(1,2)           =         2.714500	       1.436451
	 R(1,6)           =         1.842685	       0.975107
	 R(2,3)           =         2.066257	       1.093416
	 R(2,4)           =         2.065932	       1.093244
	 R(2,5)           =         2.067347	       1.093993
	 B(1,2,3)         =         1.893219	     108.473463
	 B(1,2,4)         =         1.904465	     109.117798
	 B(1,2,5)         =         1.881881	     107.823854
	 B(2,1,6)         =         1.850419	     106.021216
	 B(3,2,4)         =         1.948593	     111.646144
	 B(3,2,5)         =         1.919588	     109.984272
	 B(4,2,5)         =         1.914698	     109.704087
	 D(3,2,1,6)       =         2.040619	     116.918866
	 D(4,2,1,6)       =        -0.085735	      -4.912261
	 D(5,2,1,6)       =        -2.164364	    -124.008907

	Current energy   :      -115.0579922631

	Generating empirical Hessian (Schlegel '84) for each fragment.
	Taking RFO optimization step.
	Going to follow RFO solution 1.
	Using RFO vector 1.
	Norm of target step-size    0.17571
	Projected energy change by RFO approximation:        -0.0078233038

	Back-transformation to cartesian coordinates...
	Could not converge backtransformation.
	Using first guess instead.

	--- Internal Coordinate Step in ANG or DEG, aJ/ANG or AJ/DEG ---
	 ---------------------------------------------------------------------------
	   Coordinate                Previous        Force       Change         New 
	   ----------                --------       ------       ------       ------
	    1 R(1,2)          =      1.436451    -0.117476    -0.018371     1.418080
	    2 R(1,6)          =      0.975107    -0.323604    -0.035759     0.939348
	    3 R(2,3)          =      1.093416    -0.068154    -0.012408     1.081008
	    4 R(2,4)          =      1.093244    -0.058540    -0.007927     1.085317
	    5 R(2,5)          =      1.093993    -0.069505    -0.012327     1.081666
	    6 B(1,2,3)        =    108.473463     0.000264     1.073922   109.547385
	    7 B(1,2,4)        =    109.117798     0.000716     3.271607   112.389405
	    8 B(1,2,5)        =    107.823854     0.000300     1.498929   109.322783
	    9 B(2,1,6)        =    106.021216     0.001100     5.119301   111.140517
	   10 B(3,2,4)        =    111.646144    -0.000600    -3.013527   108.632616
	   11 B(3,2,5)        =    109.984272    -0.000281    -1.321667   108.662605
	   12 B(4,2,5)        =    109.704087    -0.000352    -1.494958   108.209130
	   13 D(3,2,1,6)      =    116.918866    -0.000014    -3.243881   113.674985
	   14 D(4,2,1,6)      =     -4.912261     0.000016    -2.272952    -7.185214
	   15 D(5,2,1,6)      =   -124.008907    -0.000019    -3.347500  -127.356407
	 ---------------------------------------------------------------------------
	Successfully symmetrized geometry.

  ==> Convergence Check <==

  Measures of convergence in internal coordinates in au.
  Criteria marked as inactive (o), active & met (*), and active & unmet ( ).
  --------------------------------------------------------------------------------------------- ~
   Step     Total Energy     Delta E     MAX Force     RMS Force      MAX Disp      RMS Disp    ~
  --------------------------------------------------------------------------------------------- ~
    Convergence Criteria    1.00e-06 *    3.00e-04 *             o    1.20e-03 *             o  ~
  --------------------------------------------------------------------------------------------- ~
      1    -115.05799226   -1.15e+02      3.93e-02      1.25e-02 o    8.93e-02      4.59e-02 o  ~
  ---------------------------------------------------------------------------------------------

	Writing optimization data to binary file.
	Structure for next step:
	Cartesian Geometry (in Angstrom)
	    O     0.6915848549   0.0144782408  -0.0090270736
	    C    -0.7264875571   0.0141917786  -0.0043755754
	    H    -1.0848899149   0.1467329232   1.0068412110
	    H    -1.1410022256  -0.9069979740  -0.4012393310
	    H    -1.0865525866   0.8351888770  -0.6096171833
	    H     1.0297334235  -0.8268154545  -0.2544967635
			--------------------------
			 OPTKING Finished Execution 
			--------------------------

    Structure for next step:
    Molecular point group: c1
    Full point group: C1

    Geometry (in Angstrom), charge = 0, multiplicity = 1:

    O            0.690229204804     0.025590875912     0.005255885324
    C           -0.727843212762     0.025304413754     0.009907383491
    H           -1.086245571965     0.157845558818     1.021124173882
    H           -1.142357882923    -0.895885342474    -0.386956373692
    H           -1.087908243749     0.846301515386    -0.595334226718
    H            1.028377774702    -0.815702822693    -0.240213805561

gradient() will perform analytic gradient computation.

*** tstart() called on node37.bme.utexas.edu
*** at Sun Dec 29 12:31:03 2019

   => Loading Basis Set <=

    Name: 6-311G*
    Role: ORBITAL
    Keyword: BASIS
    atoms 1   entry O          line   152 file /home/bdw2292/miniconda3/envs/p4env/share/psi4/basis/6-311gs.gbs 
    atoms 2   entry C          line   114 file /home/bdw2292/miniconda3/envs/p4env/share/psi4/basis/6-311gs.gbs 
    atoms 3-6 entry H          line    37 file /home/bdw2292/miniconda3/envs/p4env/share/psi4/basis/6-311gs.gbs 


         ---------------------------------------------------------
                                   SCF
               by Justin Turney, Rob Parrish, Andy Simmonett
                          and Daniel G. A. Smith
                              RHF Reference
                        1 Threads,    667 MiB Core
         ---------------------------------------------------------

  ==> Geometry <==

    Molecular point group: c1
    Full point group: C1

    Geometry (in Angstrom), charge = 0, multiplicity = 1:

       Center              X                  Y                   Z               Mass       
    ------------   -----------------  -----------------  -----------------  -----------------
         O            0.690229204804     0.025590875912     0.005255885324    15.994914619570
         C           -0.727843212762     0.025304413754     0.009907383491    12.000000000000
         H           -1.086245571965     0.157845558818     1.021124173882     1.007825032230
         H           -1.142357882923    -0.895885342474    -0.386956373692     1.007825032230
         H           -1.087908243749     0.846301515386    -0.595334226718     1.007825032230
         H            1.028377774702    -0.815702822693    -0.240213805561     1.007825032230

  Running in c1 symmetry.

  Rotational constants: A =      4.42018  B =      0.82853  C =      0.80095 [cm^-1]
  Rotational constants: A = 132513.67999  B =  24838.79648  C =  24011.85244 [MHz]
  Nuclear repulsion =   40.533337174984204

  Charge       = 0
  Multiplicity = 1
  Electrons    = 18
  Nalpha       = 9
  Nbeta        = 9

  ==> Algorithm <==

  SCF Algorithm Type is DF.
  DIIS enabled.
  MOM disabled.
  Fractional occupation disabled.
  Guess Type is READ.
  Energy threshold   = 1.00e-08
  Density threshold  = 1.00e-08
  Integral threshold = 0.00e+00

  ==> Primary Basis <==

  Basis Set: 6-311G*
    Blend: 6-311G*
    Number of shells: 28
    Number of basis function: 48
    Number of Cartesian functions: 50
    Spherical Harmonics?: true
    Max angular momentum: 2

   => Loading Basis Set <=

    Name: (6-311G* AUX)
    Role: JKFIT
    Keyword: DF_BASIS_SCF
    atoms 1   entry O          line   229 file /home/bdw2292/miniconda3/envs/p4env/share/psi4/basis/cc-pvtz-jkfit.gbs 
    atoms 2   entry C          line   125 file /home/bdw2292/miniconda3/envs/p4env/share/psi4/basis/cc-pvtz-jkfit.gbs 
    atoms 3-6 entry H          line    51 file /home/bdw2292/miniconda3/envs/p4env/share/psi4/basis/cc-pvtz-jkfit.gbs 

   => Loading Basis Set <=

    Name: 6-311G*
    Role: ORBITAL
    Keyword: BASIS
    atoms 1   entry O          line   152 file /home/bdw2292/miniconda3/envs/p4env/share/psi4/basis/6-311gs.gbs 
    atoms 2   entry C          line   114 file /home/bdw2292/miniconda3/envs/p4env/share/psi4/basis/6-311gs.gbs 
    atoms 3-6 entry H          line    37 file /home/bdw2292/miniconda3/envs/p4env/share/psi4/basis/6-311gs.gbs 

  Reading orbitals from file 180, no projection.

  ==> Pre-Iterations <==

   -------------------------------------------------------
    Irrep   Nso     Nmo     Nalpha   Nbeta   Ndocc  Nsocc
   -------------------------------------------------------
     A         48      48       0       0       0       0
   -------------------------------------------------------
    Total      48      48       9       9       9       0
   -------------------------------------------------------

  ==> Integral Setup <==

  DFHelper Memory: AOs need 0.006 GiB; user supplied 0.489 GiB. Using in-core AOs.

  ==> MemDFJK: Density-Fitted J/K Matrices <==

    J tasked:                   Yes
    K tasked:                   Yes
    wK tasked:                   No
    OpenMP threads:               1
    Memory [MiB]:               500
    Algorithm:                 Core
    Schwarz Cutoff:           1E-12
    Mask sparsity (%):       0.0000
    Fitting Condition:        1E-10

   => Auxiliary Basis Set <=

  Basis Set: (6-311G* AUX)
    Blend: CC-PVTZ-JKFIT
    Number of shells: 90
    Number of basis function: 278
    Number of Cartesian functions: 332
    Spherical Harmonics?: true
    Max angular momentum: 4

  Minimum eigenvalue in the overlap matrix is 1.1011127027E-02.
  Using Symmetric Orthogonalization.

  SCF Guess: Orbitals guess was supplied from a previous computation.

  ==> Iterations <==

                           Total Energy        Delta E     RMS |[F,P]|

   @DF-RHF iter   0:  -115.09692009819133   -1.15097e+02   1.79526e-03 
   @DF-RHF iter   1:  -115.06108215479023    3.58379e-02   3.48915e-04 DIIS
   @DF-RHF iter   2:  -115.06127360319562   -1.91448e-04   1.17048e-04 DIIS
   @DF-RHF iter   3:  -115.06130045848640   -2.68553e-05   4.63400e-05 DIIS
   @DF-RHF iter   4:  -115.06130614267906   -5.68419e-06   1.54779e-05 DIIS
   @DF-RHF iter   5:  -115.06130669592083   -5.53242e-07   4.44225e-06 DIIS
   @DF-RHF iter   6:  -115.06130674667671   -5.07559e-08   1.60178e-06 DIIS
   @DF-RHF iter   7:  -115.06130675283964   -6.16294e-09   3.95042e-07 DIIS
   @DF-RHF iter   8:  -115.06130675344833   -6.08694e-10   8.89287e-08 DIIS
   @DF-RHF iter   9:  -115.06130675347633   -2.79954e-11   1.63287e-08 DIIS
   @DF-RHF iter  10:  -115.06130675347690   -5.68434e-13   3.45109e-09 DIIS
  Energy and wave function converged.


  ==> Post-Iterations <==

    Orbital Energies [Eh]
    ---------------------

    Doubly Occupied:                                                      

       1A    -20.539152     2A    -11.265775     3A     -1.355228  
       4A     -0.929732     5A     -0.692594     6A     -0.618674  
       7A     -0.594370     8A     -0.498657     9A     -0.444042  

    Virtual:                                                              

      10A      0.152547    11A      0.186910    12A      0.231143  
      13A      0.234335    14A      0.343906    15A      0.466779  
      16A      0.469700    17A      0.621194    18A      0.687768  
      19A      0.738182    20A      0.793430    21A      0.795263  
      22A      0.946432    23A      1.074348    24A      1.076954  
      25A      1.205964    26A      1.551081    27A      1.573108  
      28A      1.674658    29A      1.767097    30A      1.780551  
      31A      1.986594    32A      2.368818    33A      2.619046  
      34A      2.721411    35A      2.731964    36A      3.158481  
      37A      3.224295    38A      3.316700    39A      3.401700  
      40A      3.551543    41A      3.587142    42A      3.824182  
      43A      4.270328    44A      5.381303    45A      5.550669  
      46A      5.920688    47A     24.552042    48A     51.526696  

    Final Occupation by Irrep:
              A 
    DOCC [     9 ]

  @DF-RHF Final Energy:  -115.06130675347690

   => Energetics <=

    Nuclear Repulsion Energy =             40.5333371749842044
    One-Electron Energy =                -237.3128351019945512
    Two-Electron Energy =                  81.7181911735334410
    Total Energy =                       -115.0613067534768987

Computation Completed


Properties will be evaluated at   0.000000,   0.000000,   0.000000 [a0]

Properties computed using the SCF density matrix

  Nuclear Dipole Moment: [e a0]
     X:    -2.1417      Y:    -0.6631      Z:    -0.1888

  Electronic Dipole Moment: [e a0]
     X:     1.7088      Y:     0.0177      Z:    -0.0033

  Dipole Moment: [e a0]
     X:    -0.4329      Y:    -0.6454      Z:    -0.1921     Total:     0.8005

  Dipole Moment: [D]
     X:    -1.1004      Y:    -1.6404      Z:    -0.4882     Total:     2.0347


*** tstop() called on node37.bme.utexas.edu at Sun Dec 29 12:31:03 2019
Module time:
	user time   =       0.46 seconds =       0.01 minutes
	system time =       0.01 seconds =       0.00 minutes
	total time  =          0 seconds =       0.00 minutes
Total time:
	user time   =       1.86 seconds =       0.03 minutes
	system time =       0.05 seconds =       0.00 minutes
	total time  =          2 seconds =       0.03 minutes

*** tstart() called on node37.bme.utexas.edu
*** at Sun Dec 29 12:31:03 2019


         ------------------------------------------------------------
                                   SCF GRAD                          
                          Rob Parrish, Justin Turney,                
                       Andy Simmonett, and Alex Sokolov              
         ------------------------------------------------------------

  ==> Geometry <==

    Molecular point group: c1
    Full point group: C1

    Geometry (in Angstrom), charge = 0, multiplicity = 1:

       Center              X                  Y                   Z               Mass       
    ------------   -----------------  -----------------  -----------------  -----------------
         O            0.690229204804     0.025590875912     0.005255885324    15.994914619570
         C           -0.727843212762     0.025304413754     0.009907383491    12.000000000000
         H           -1.086245571965     0.157845558818     1.021124173882     1.007825032230
         H           -1.142357882923    -0.895885342474    -0.386956373692     1.007825032230
         H           -1.087908243749     0.846301515386    -0.595334226718     1.007825032230
         H            1.028377774702    -0.815702822693    -0.240213805561     1.007825032230

  Nuclear repulsion =   40.533337174984204

  ==> Basis Set <==

  Basis Set: 6-311G*
    Blend: 6-311G*
    Number of shells: 28
    Number of basis function: 48
    Number of Cartesian functions: 50
    Spherical Harmonics?: true
    Max angular momentum: 2

  ==> DFJKGrad: Density-Fitted SCF Gradients <==

    Gradient:                    1
    J tasked:                  Yes
    K tasked:                  Yes
    wK tasked:                  No
    OpenMP threads:              1
    Integrals threads:           1
    Memory [MiB]:              500
    Schwarz Cutoff:          0E+00
    Fitting Condition:       1E-10

   => Auxiliary Basis Set <=

  Basis Set: (6-311G* AUX)
    Blend: CC-PVTZ-JKFIT
    Number of shells: 90
    Number of basis function: 278
    Number of Cartesian functions: 332
    Spherical Harmonics?: true
    Max angular momentum: 4


  -Total Gradient:
     Atom            X                  Y                   Z
    ------   -----------------  -----------------  -----------------
       1        0.009736110453     0.001107693788     0.002018910911
       2       -0.011074391523     0.000654604522     0.000191644353
       3        0.000983172812     0.000355384455    -0.001667253057
       4       -0.000991693317     0.000312262299     0.000053704670
       5       -0.000810333011    -0.000718580925     0.000518074433
       6        0.002157134585    -0.001711364139    -0.001115081310


*** tstop() called on node37.bme.utexas.edu at Sun Dec 29 12:31:04 2019
Module time:
	user time   =       0.46 seconds =       0.01 minutes
	system time =       0.00 seconds =       0.00 minutes
	total time  =          1 seconds =       0.02 minutes
Total time:
	user time   =       2.32 seconds =       0.04 minutes
	system time =       0.05 seconds =       0.00 minutes
	total time  =          3 seconds =       0.05 minutes

			-----------------------------------------
			 OPTKING 2.0: for geometry optimizations 
			  - R.A. King,  Bethel University        
			-----------------------------------------

	Previous internal coordinate definitions found.
	---Fragment 1 Geometry and Gradient---
	 O           1.3043441609        0.0483597468        0.0099321838
	 C          -1.3754243344        0.0478184118        0.0187222414
	 H          -2.0527066360        0.2982848763        1.9296450287
	 H          -2.1587435360       -1.6929779371       -0.7312415688
	 H          -2.0558486303        1.5992780836       -1.1250186416
	 H           1.9433523477       -1.5414549347       -0.4539383041
	             0.0097361105        0.0011076938        0.0020189109
	            -0.0110743915        0.0006546045        0.0001916444
	             0.0009831728        0.0003553845       -0.0016672531
	            -0.0009916933        0.0003122623        0.0000537047
	            -0.0008103330       -0.0007185809        0.0005180744
	             0.0021571346       -0.0017113641       -0.0011150813

	---Fragment 1 Intrafragment Coordinates---
	 - Coordinate -           - BOHR/RAD -       - ANG/DEG -
	 R(1,2)           =         2.679783	       1.418080
	 R(1,6)           =         1.775111	       0.939348
	 R(2,3)           =         2.042810	       1.081008
	 R(2,4)           =         2.050953	       1.085317
	 R(2,5)           =         2.044052	       1.081666
	 B(1,2,3)         =         1.911963	     109.547385
	 B(1,2,4)         =         1.961565	     112.389405
	 B(1,2,5)         =         1.908043	     109.322783
	 B(2,1,6)         =         1.939768	     111.140517
	 B(3,2,4)         =         1.895997	     108.632616
	 B(3,2,5)         =         1.896520	     108.662605
	 B(4,2,5)         =         1.888606	     108.209130
	 D(3,2,1,6)       =         1.984003	     113.674985
	 D(4,2,1,6)       =        -0.125406	      -7.185214
	 D(5,2,1,6)       =        -2.222789	    -127.356407

	Current energy   :      -115.0613067535

	Energy change for the previous step:
		Projected    :        -0.0078233038
		Actual       :        -0.0033144904

	Performing BFGS update.
	Previous computed or guess Hessian on step 1.
	Steps to be used in Hessian update: 1
	Taking RFO optimization step.
	Going to follow RFO solution 1.
	Using RFO vector 1.

	Determining step-restricting scale parameter for RS-RFO.
	Maximum step size allowed    0.50000

	 Iter      |step|        alpha        rfo_root  
	------------------------------------------------
	    0     0.59750       1.00000           1
	    1     0.51530       1.25600           1
	    2     0.50050       1.31241           1
	    3     0.50000       1.31437           1
	------------------------------------------------
	Norm of target step-size    0.50000
	Projected energy change by RFO approximation:        -0.0027812374

	Back-transformation to cartesian coordinates...
	Could not converge backtransformation.
	Using first guess instead.

	--- Internal Coordinate Step in ANG or DEG, aJ/ANG or AJ/DEG ---
	 ---------------------------------------------------------------------------
	   Coordinate                Previous        Force       Change         New 
	   ----------                --------       ------       ------       ------
	    1 R(1,2)          =      1.418080    -0.097959    -0.015466     1.402614
	    2 R(1,6)          =      0.939348    -0.021426     0.017106     0.956454
	    3 R(2,3)          =      1.081008     0.015176     0.003701     1.084709
	    4 R(2,4)          =      1.085317    -0.000775    -0.000587     1.084730
	    5 R(2,5)          =      1.081666     0.004659     0.001444     1.083109
	    6 B(1,2,3)        =    109.547385     0.000092     0.628878   110.176263
	    7 B(1,2,4)        =    112.389405    -0.000120    -0.462190   111.927215
	    8 B(1,2,5)        =    109.322783    -0.000099    -0.342306   108.980477
	    9 B(2,1,6)        =    111.140517    -0.000177    -1.709305   109.431212
	   10 B(3,2,4)        =    108.632616     0.000008    -0.211713   108.420903
	   11 B(3,2,5)        =    108.662605     0.000053     0.260467   108.923071
	   12 B(4,2,5)        =    108.209130     0.000073     0.141873   108.351002
	   13 D(3,2,1,6)      =    113.674985    -0.000011   -16.380720    97.294264
	   14 D(4,2,1,6)      =     -7.185214    -0.000009   -16.239428   -23.424641
	   15 D(5,2,1,6)      =   -127.356407     0.000003   -15.893622  -143.250028
	 ---------------------------------------------------------------------------
	Successfully symmetrized geometry.

  ==> Convergence Check <==

  Measures of convergence in internal coordinates in au.
  Criteria marked as inactive (o), active & met (*), and active & unmet ( ).
  ---------------------------------------------------------------------------------------------
   Step     Total Energy     Delta E     MAX Force     RMS Force      MAX Disp      RMS Disp   
  ---------------------------------------------------------------------------------------------
    Convergence Criteria    1.00e-06 *    3.00e-04 *             o    1.20e-03 *             o
  ---------------------------------------------------------------------------------------------
      2    -115.06130675   -3.31e-03      1.19e-02      3.32e-03 o    2.86e-01      1.27e-01 o  ~
  ---------------------------------------------------------------------------------------------

	Writing optimization data to binary file.
	Structure for next step:
	Cartesian Geometry (in Angstrom)
	    O     0.6793148854   0.0528569608  -0.0841838084
	    C    -0.7210367524   0.0312454258  -0.0075438574
	    H    -1.0406525231   0.1218073948   1.0250443437
	    H    -1.1349459147  -0.8847092424  -0.4153990945
	    H    -1.1176830867   0.8658849418  -0.5724986859
	    H     1.0092554686  -0.8436312796  -0.1316358599
			--------------------------
			 OPTKING Finished Execution 
			--------------------------

    Structure for next step:
    Molecular point group: c1
    Full point group: C1

    Geometry (in Angstrom), charge = 0, multiplicity = 1:

    O            0.682086244940     0.038058337165    -0.036339634429
    C           -0.718265398338     0.016446802082     0.040300316887
    H           -1.037881170263     0.107008771464     1.072888522045
    H           -1.132174562262    -0.899507869725    -0.367554921826
    H           -1.114911734163     0.851086321305    -0.524654513796
    H            1.012026829489    -0.858429906769    -0.083791686099

gradient() will perform analytic gradient computation.

*** tstart() called on node37.bme.utexas.edu
*** at Sun Dec 29 12:31:04 2019

   => Loading Basis Set <=

    Name: 6-311G*
    Role: ORBITAL
    Keyword: BASIS
    atoms 1   entry O          line   152 file /home/bdw2292/miniconda3/envs/p4env/share/psi4/basis/6-311gs.gbs 
    atoms 2   entry C          line   114 file /home/bdw2292/miniconda3/envs/p4env/share/psi4/basis/6-311gs.gbs 
    atoms 3-6 entry H          line    37 file /home/bdw2292/miniconda3/envs/p4env/share/psi4/basis/6-311gs.gbs 


         ---------------------------------------------------------
                                   SCF
               by Justin Turney, Rob Parrish, Andy Simmonett
                          and Daniel G. A. Smith
                              RHF Reference
                        1 Threads,    667 MiB Core
         ---------------------------------------------------------

  ==> Geometry <==

    Molecular point group: c1
    Full point group: C1

    Geometry (in Angstrom), charge = 0, multiplicity = 1:

       Center              X                  Y                   Z               Mass       
    ------------   -----------------  -----------------  -----------------  -----------------
         O            0.682086244940     0.038058337165    -0.036339634429    15.994914619570
         C           -0.718265398338     0.016446802082     0.040300316887    12.000000000000
         H           -1.037881170263     0.107008771464     1.072888522045     1.007825032230
         H           -1.132174562262    -0.899507869725    -0.367554921826     1.007825032230
         H           -1.114911734163     0.851086321305    -0.524654513796     1.007825032230
         H            1.012026829489    -0.858429906769    -0.083791686099     1.007825032230

  Running in c1 symmetry.

  Rotational constants: A =      4.35789  B =      0.84535  C =      0.81538 [cm^-1]
  Rotational constants: A = 130646.26091  B =  25342.97199  C =  24444.43323 [MHz]
  Nuclear repulsion =   40.698214083499899

  Charge       = 0
  Multiplicity = 1
  Electrons    = 18
  Nalpha       = 9
  Nbeta        = 9

  ==> Algorithm <==

  SCF Algorithm Type is DF.
  DIIS enabled.
  MOM disabled.
  Fractional occupation disabled.
  Guess Type is READ.
  Energy threshold   = 1.00e-08
  Density threshold  = 1.00e-08
  Integral threshold = 0.00e+00

  ==> Primary Basis <==

  Basis Set: 6-311G*
    Blend: 6-311G*
    Number of shells: 28
    Number of basis function: 48
    Number of Cartesian functions: 50
    Spherical Harmonics?: true
    Max angular momentum: 2

   => Loading Basis Set <=

    Name: (6-311G* AUX)
    Role: JKFIT
    Keyword: DF_BASIS_SCF
    atoms 1   entry O          line   229 file /home/bdw2292/miniconda3/envs/p4env/share/psi4/basis/cc-pvtz-jkfit.gbs 
    atoms 2   entry C          line   125 file /home/bdw2292/miniconda3/envs/p4env/share/psi4/basis/cc-pvtz-jkfit.gbs 
    atoms 3-6 entry H          line    51 file /home/bdw2292/miniconda3/envs/p4env/share/psi4/basis/cc-pvtz-jkfit.gbs 

   => Loading Basis Set <=

    Name: 6-311G*
    Role: ORBITAL
    Keyword: BASIS
    atoms 1   entry O          line   152 file /home/bdw2292/miniconda3/envs/p4env/share/psi4/basis/6-311gs.gbs 
    atoms 2   entry C          line   114 file /home/bdw2292/miniconda3/envs/p4env/share/psi4/basis/6-311gs.gbs 
    atoms 3-6 entry H          line    37 file /home/bdw2292/miniconda3/envs/p4env/share/psi4/basis/6-311gs.gbs 

  Reading orbitals from file 180, no projection.

  ==> Pre-Iterations <==

   -------------------------------------------------------
    Irrep   Nso     Nmo     Nalpha   Nbeta   Ndocc  Nsocc
   -------------------------------------------------------
     A         48      48       0       0       0       0
   -------------------------------------------------------
    Total      48      48       9       9       9       0
   -------------------------------------------------------

  ==> Integral Setup <==

  DFHelper Memory: AOs need 0.006 GiB; user supplied 0.489 GiB. Using in-core AOs.

  ==> MemDFJK: Density-Fitted J/K Matrices <==

    J tasked:                   Yes
    K tasked:                   Yes
    wK tasked:                   No
    OpenMP threads:               1
    Memory [MiB]:               500
    Algorithm:                 Core
    Schwarz Cutoff:           1E-12
    Mask sparsity (%):       0.0000
    Fitting Condition:        1E-10

   => Auxiliary Basis Set <=

  Basis Set: (6-311G* AUX)
    Blend: CC-PVTZ-JKFIT
    Number of shells: 90
    Number of basis function: 278
    Number of Cartesian functions: 332
    Spherical Harmonics?: true
    Max angular momentum: 4

  Minimum eigenvalue in the overlap matrix is 1.0748247791E-02.
  Using Symmetric Orthogonalization.

  SCF Guess: Orbitals guess was supplied from a previous computation.

  ==> Iterations <==

                           Total Energy        Delta E     RMS |[F,P]|

   @DF-RHF iter   0:  -115.04569534733142   -1.15046e+02   3.06097e-03 
   @DF-RHF iter   1:  -115.06049685617518   -1.48015e-02   6.69758e-04 DIIS
   @DF-RHF iter   2:  -115.06145533342911   -9.58477e-04   2.75515e-04 DIIS
   @DF-RHF iter   3:  -115.06167913988726   -2.23806e-04   1.20637e-04 DIIS
   @DF-RHF iter   4:  -115.06170687691368   -2.77370e-05   3.30466e-05 DIIS
   @DF-RHF iter   5:  -115.06171095981196   -4.08290e-06   8.59145e-06 DIIS
   @DF-RHF iter   6:  -115.06171123741724   -2.77605e-07   2.21687e-06 DIIS
   @DF-RHF iter   7:  -115.06171125110961   -1.36924e-08   5.88829e-07 DIIS
   @DF-RHF iter   8:  -115.06171125212416   -1.01454e-09   1.27428e-07 DIIS
   @DF-RHF iter   9:  -115.06171125217476   -5.06049e-11   1.88993e-08 DIIS
   @DF-RHF iter  10:  -115.06171125217568   -9.23706e-13   4.71719e-09 DIIS
  Energy and wave function converged.


  ==> Post-Iterations <==

    Orbital Energies [Eh]
    ---------------------

    Doubly Occupied:                                                      

       1A    -20.542200     2A    -11.264688     3A     -1.358477  
       4A     -0.926162     5A     -0.692833     6A     -0.621337  
       7A     -0.596319     8A     -0.497985     9A     -0.443109  

    Virtual:                                                              

      10A      0.151371    11A      0.186945    12A      0.230438  
      13A      0.234586    14A      0.346283    15A      0.467244  
      16A      0.471725    17A      0.601238    18A      0.698657  
      19A      0.737456    20A      0.791542    21A      0.797912  
      22A      0.945113    23A      1.069805    24A      1.077400  
      25A      1.198631    26A      1.548197    27A      1.580922  
      28A      1.678355    29A      1.767740    30A      1.776489  
      31A      1.999247    32A      2.370138    33A      2.619185  
      34A      2.718744    35A      2.725085    36A      3.161099  
      37A      3.249658    38A      3.344336    39A      3.402417  
      40A      3.560019    41A      3.586279    42A      3.789239  
      43A      4.274352    44A      5.382682    45A      5.539789  
      46A      5.923601    47A     24.564502    48A     51.527146  

    Final Occupation by Irrep:
              A 
    DOCC [     9 ]

  @DF-RHF Final Energy:  -115.06171125217568

   => Energetics <=

    Nuclear Repulsion Energy =             40.6982140834998987
    One-Electron Energy =                -237.6336317641675180
    Two-Electron Energy =                  81.8737064284919427
    Total Energy =                       -115.0617112521756837

Computation Completed


Properties will be evaluated at   0.000000,   0.000000,   0.000000 [a0]

Properties computed using the SCF density matrix

  Nuclear Dipole Moment: [e a0]
     X:    -2.1275      Y:    -0.7496      Z:     0.0907

  Electronic Dipole Moment: [e a0]
     X:     1.7133      Y:     0.0740      Z:    -0.1069

  Dipole Moment: [e a0]
     X:    -0.4142      Y:    -0.6756      Z:    -0.0163     Total:     0.7927

  Dipole Moment: [D]
     X:    -1.0529      Y:    -1.7173      Z:    -0.0413     Total:     2.0148


*** tstop() called on node37.bme.utexas.edu at Sun Dec 29 12:31:05 2019
Module time:
	user time   =       0.45 seconds =       0.01 minutes
	system time =       0.00 seconds =       0.00 minutes
	total time  =          1 seconds =       0.02 minutes
Total time:
	user time   =       2.79 seconds =       0.05 minutes
	system time =       0.06 seconds =       0.00 minutes
	total time  =          4 seconds =       0.07 minutes

*** tstart() called on node37.bme.utexas.edu
*** at Sun Dec 29 12:31:05 2019


         ------------------------------------------------------------
                                   SCF GRAD                          
                          Rob Parrish, Justin Turney,                
                       Andy Simmonett, and Alex Sokolov              
         ------------------------------------------------------------

  ==> Geometry <==

    Molecular point group: c1
    Full point group: C1

    Geometry (in Angstrom), charge = 0, multiplicity = 1:

       Center              X                  Y                   Z               Mass       
    ------------   -----------------  -----------------  -----------------  -----------------
         O            0.682086244940     0.038058337165    -0.036339634429    15.994914619570
         C           -0.718265398338     0.016446802082     0.040300316887    12.000000000000
         H           -1.037881170263     0.107008771464     1.072888522045     1.007825032230
         H           -1.132174562262    -0.899507869725    -0.367554921826     1.007825032230
         H           -1.114911734163     0.851086321305    -0.524654513796     1.007825032230
         H            1.012026829489    -0.858429906769    -0.083791686099     1.007825032230

  Nuclear repulsion =   40.698214083499899

  ==> Basis Set <==

  Basis Set: 6-311G*
    Blend: 6-311G*
    Number of shells: 28
    Number of basis function: 48
    Number of Cartesian functions: 50
    Spherical Harmonics?: true
    Max angular momentum: 2

  ==> DFJKGrad: Density-Fitted SCF Gradients <==

    Gradient:                    1
    J tasked:                  Yes
    K tasked:                  Yes
    wK tasked:                  No
    OpenMP threads:              1
    Integrals threads:           1
    Memory [MiB]:              500
    Schwarz Cutoff:          0E+00
    Fitting Condition:       1E-10

   => Auxiliary Basis Set <=

  Basis Set: (6-311G* AUX)
    Blend: CC-PVTZ-JKFIT
    Number of shells: 90
    Number of basis function: 278
    Number of Cartesian functions: 332
    Spherical Harmonics?: true
    Max angular momentum: 4


  -Total Gradient:
     Atom            X                  Y                   Z
    ------   -----------------  -----------------  -----------------
       1       -0.005444675882     0.020443086466     0.005044464786
       2       -0.001544472610    -0.000595345682    -0.002486422771
       3        0.002026994070    -0.000087763904    -0.000229660428
       4        0.000864829599     0.000165447487     0.001260063810
       5       -0.001260277949     0.000270637084    -0.000845320174
       6        0.005357602773    -0.020196061451    -0.002743125224


*** tstop() called on node37.bme.utexas.edu at Sun Dec 29 12:31:05 2019
Module time:
	user time   =       0.46 seconds =       0.01 minutes
	system time =       0.01 seconds =       0.00 minutes
	total time  =          0 seconds =       0.00 minutes
Total time:
	user time   =       3.25 seconds =       0.05 minutes
	system time =       0.07 seconds =       0.00 minutes
	total time  =          4 seconds =       0.07 minutes

			-----------------------------------------
			 OPTKING 2.0: for geometry optimizations 
			  - R.A. King,  Bethel University        
			-----------------------------------------

	Previous internal coordinate definitions found.
	---Fragment 1 Geometry and Gradient---
	 O           1.2889561969        0.0719198340       -0.0686719566
	 C          -1.3573248883        0.0310799516        0.0761565617
	 H          -1.9613111626        0.2022172711        2.0274654698
	 H          -2.1394998489       -1.6998235215       -0.6945781383
	 H          -2.1068778316        1.6083200564       -0.9914533416
	 H           1.9124535393       -1.6221974217       -0.1583433383
	            -0.0054446759        0.0204430865        0.0050444648
	            -0.0015444726       -0.0005953457       -0.0024864228
	             0.0020269941       -0.0000877639       -0.0002296604
	             0.0008648296        0.0001654475        0.0012600638
	            -0.0012602779        0.0002706371       -0.0008453202
	             0.0053576028       -0.0201960615       -0.0027431252

	---Fragment 1 Intrafragment Coordinates---
	 - Coordinate -           - BOHR/RAD -       - ANG/DEG -
	 R(1,2)           =         2.650556	       1.402614
	 R(1,6)           =         1.807436	       0.956454
	 R(2,3)           =         2.049803	       1.084709
	 R(2,4)           =         2.049843	       1.084730
	 R(2,5)           =         2.046780	       1.083109
	 B(1,2,3)         =         1.922939	     110.176263
	 B(1,2,4)         =         1.953498	     111.927215
	 B(1,2,5)         =         1.902068	     108.980477
	 B(2,1,6)         =         1.909935	     109.431212
	 B(3,2,4)         =         1.892302	     108.420903
	 B(3,2,5)         =         1.901066	     108.923071
	 B(4,2,5)         =         1.891082	     108.351002
	 D(3,2,1,6)       =         1.698105	      97.294264
	 D(4,2,1,6)       =        -0.408837	     -23.424641
	 D(5,2,1,6)       =        -2.500185	    -143.250028

	Current energy   :      -115.0617112522

	Energy change for the previous step:
		Projected    :        -0.0027812374
		Actual       :        -0.0004044987
	Energy ratio indicates iffy step: Trust radius decreased to 1.250e-01.


	Performing BFGS update.
	Previous computed or guess Hessian on step 1.
	Steps to be used in Hessian update: 2 1
	Taking RFO optimization step.
	Going to follow RFO solution 1.
	Using RFO vector 1.

	Determining step-restricting scale parameter for RS-RFO.
	Maximum step size allowed    0.12500

	 Iter      |step|        alpha        rfo_root  
	------------------------------------------------
	    0     0.73738       1.00000           1
	    1     0.42355       2.29823           1
	    2     0.25678       4.63480           1
	    3     0.17374       7.89282           1
	    4     0.13742      10.92011           1
	    5     0.12631      12.30964           1
	    6     0.12502      12.49280           1
	    7     0.12500      12.49540           1
	------------------------------------------------
	Norm of target step-size    0.12500
	Projected energy change by RFO approximation:         0.0004818224

	Back-transformation to cartesian coordinates...
	Successfully converged to displaced geometry.

	--- Internal Coordinate Step in ANG or DEG, aJ/ANG or AJ/DEG ---
	 ---------------------------------------------------------------------------
	   Coordinate                Previous        Force       Change         New 
	   ----------                --------       ------       ------       ------
	    1 R(1,2)          =      1.402614     0.001721    -0.011041     1.391573
	    2 R(1,6)          =      0.956454    -0.172306    -0.019152     0.937302
	    3 R(2,3)          =      1.084709     0.006782     0.001276     1.085985
	    4 R(2,4)          =      1.084730     0.007773     0.000682     1.085412
	    5 R(2,5)          =      1.083109    -0.009153    -0.002317     1.080793
	    6 B(1,2,3)        =    110.176263     0.000243     1.417147   111.593410
	    7 B(1,2,4)        =    111.927215     0.000048     0.286026   112.213242
	    8 B(1,2,5)        =    108.980477    -0.000182    -0.822710   108.157766
	    9 B(2,1,6)        =    109.431212     0.000258     0.897437   110.328649
	   10 B(3,2,4)        =    108.420903    -0.000031    -0.337220   108.083683
	   11 B(3,2,5)        =    108.923071    -0.000062    -0.281478   108.641593
	   12 B(4,2,5)        =    108.351002    -0.000021    -0.313487   108.037515
	   13 D(3,2,1,6)      =     97.294264    -0.000002    -3.441390    93.852874
	   14 D(4,2,1,6)      =    -23.424641    -0.000039    -4.204078   -27.628719
	   15 D(5,2,1,6)      =   -143.250028    -0.000012    -3.451452  -146.701481
	 ---------------------------------------------------------------------------
	Successfully symmetrized geometry.

  ==> Convergence Check <==

  Measures of convergence in internal coordinates in au.
  Criteria marked as inactive (o), active & met (*), and active & unmet ( ).
  ---------------------------------------------------------------------------------------------
   Step     Total Energy     Delta E     MAX Force     RMS Force      MAX Disp      RMS Disp   
  ---------------------------------------------------------------------------------------------
    Convergence Criteria    1.00e-06 *    3.00e-04 *             o    1.20e-03 *             o
  ---------------------------------------------------------------------------------------------
      3    -115.06171125   -4.04e-04      2.09e-02      5.62e-03 o    7.34e-02      3.22e-02 o  ~
  ---------------------------------------------------------------------------------------------

	Writing optimization data to binary file.
	Structure for next step:
	Cartesian Geometry (in Angstrom)
	    O     0.6752463531   0.0314394768  -0.0542136123
	    C    -0.7129429856   0.0116512895   0.0407234141
	    H    -1.0441658880   0.0898955389   1.0720007425
	    H    -1.1403766356  -0.8916972523  -0.3828117041
	    H    -1.1003838054   0.8560249972  -0.5115766508
	    H     1.0135031801  -0.8426515916  -0.0632741071
			--------------------------
			 OPTKING Finished Execution 
			--------------------------

    Structure for next step:
    Molecular point group: c1
    Full point group: C1

    Geometry (in Angstrom), charge = 0, multiplicity = 1:

    O            0.676620391722     0.036182796275    -0.045994466018
    C           -0.711568952460     0.016394608891     0.048942560733
    H           -1.042791856139     0.094638858638     1.080219893223
    H           -1.139002604147    -0.886953936390    -0.374592559067
    H           -1.099009773791     0.860768319904    -0.503357506287
    H            1.014877220065    -0.837908275512    -0.055054960811

gradient() will perform analytic gradient computation.

*** tstart() called on node37.bme.utexas.edu
*** at Sun Dec 29 12:31:05 2019

   => Loading Basis Set <=

    Name: 6-311G*
    Role: ORBITAL
    Keyword: BASIS
    atoms 1   entry O          line   152 file /home/bdw2292/miniconda3/envs/p4env/share/psi4/basis/6-311gs.gbs 
    atoms 2   entry C          line   114 file /home/bdw2292/miniconda3/envs/p4env/share/psi4/basis/6-311gs.gbs 
    atoms 3-6 entry H          line    37 file /home/bdw2292/miniconda3/envs/p4env/share/psi4/basis/6-311gs.gbs 


         ---------------------------------------------------------
                                   SCF
               by Justin Turney, Rob Parrish, Andy Simmonett
                          and Daniel G. A. Smith
                              RHF Reference
                        1 Threads,    667 MiB Core
         ---------------------------------------------------------

  ==> Geometry <==

    Molecular point group: c1
    Full point group: C1

    Geometry (in Angstrom), charge = 0, multiplicity = 1:

       Center              X                  Y                   Z               Mass       
    ------------   -----------------  -----------------  -----------------  -----------------
         O            0.676620391722     0.036182796275    -0.045994466018    15.994914619570
         C           -0.711568952460     0.016394608891     0.048942560733    12.000000000000
         H           -1.042791856139     0.094638858638     1.080219893223     1.007825032230
         H           -1.139002604147    -0.886953936390    -0.374592559067     1.007825032230
         H           -1.099009773791     0.860768319904    -0.503357506287     1.007825032230
         H            1.014877220065    -0.837908275512    -0.055054960811     1.007825032230

  Running in c1 symmetry.

  Rotational constants: A =      4.41659  B =      0.85479  C =      0.82579 [cm^-1]
  Rotational constants: A = 132406.17181  B =  25625.88803  C =  24756.52261 [MHz]
  Nuclear repulsion =   40.967012122641947

  Charge       = 0
  Multiplicity = 1
  Electrons    = 18
  Nalpha       = 9
  Nbeta        = 9

  ==> Algorithm <==

  SCF Algorithm Type is DF.
  DIIS enabled.
  MOM disabled.
  Fractional occupation disabled.
  Guess Type is READ.
  Energy threshold   = 1.00e-08
  Density threshold  = 1.00e-08
  Integral threshold = 0.00e+00

  ==> Primary Basis <==

  Basis Set: 6-311G*
    Blend: 6-311G*
    Number of shells: 28
    Number of basis function: 48
    Number of Cartesian functions: 50
    Spherical Harmonics?: true
    Max angular momentum: 2

   => Loading Basis Set <=

    Name: (6-311G* AUX)
    Role: JKFIT
    Keyword: DF_BASIS_SCF
    atoms 1   entry O          line   229 file /home/bdw2292/miniconda3/envs/p4env/share/psi4/basis/cc-pvtz-jkfit.gbs 
    atoms 2   entry C          line   125 file /home/bdw2292/miniconda3/envs/p4env/share/psi4/basis/cc-pvtz-jkfit.gbs 
    atoms 3-6 entry H          line    51 file /home/bdw2292/miniconda3/envs/p4env/share/psi4/basis/cc-pvtz-jkfit.gbs 

   => Loading Basis Set <=

    Name: 6-311G*
    Role: ORBITAL
    Keyword: BASIS
    atoms 1   entry O          line   152 file /home/bdw2292/miniconda3/envs/p4env/share/psi4/basis/6-311gs.gbs 
    atoms 2   entry C          line   114 file /home/bdw2292/miniconda3/envs/p4env/share/psi4/basis/6-311gs.gbs 
    atoms 3-6 entry H          line    37 file /home/bdw2292/miniconda3/envs/p4env/share/psi4/basis/6-311gs.gbs 

  Reading orbitals from file 180, no projection.

  ==> Pre-Iterations <==

   -------------------------------------------------------
    Irrep   Nso     Nmo     Nalpha   Nbeta   Ndocc  Nsocc
   -------------------------------------------------------
     A         48      48       0       0       0       0
   -------------------------------------------------------
    Total      48      48       9       9       9       0
   -------------------------------------------------------

  ==> Integral Setup <==

  DFHelper Memory: AOs need 0.006 GiB; user supplied 0.489 GiB. Using in-core AOs.

  ==> MemDFJK: Density-Fitted J/K Matrices <==

    J tasked:                   Yes
    K tasked:                   Yes
    wK tasked:                   No
    OpenMP threads:               1
    Memory [MiB]:               500
    Algorithm:                 Core
    Schwarz Cutoff:           1E-12
    Mask sparsity (%):       0.0000
    Fitting Condition:        1E-10

   => Auxiliary Basis Set <=

  Basis Set: (6-311G* AUX)
    Blend: CC-PVTZ-JKFIT
    Number of shells: 90
    Number of basis function: 278
    Number of Cartesian functions: 332
    Spherical Harmonics?: true
    Max angular momentum: 4

  Minimum eigenvalue in the overlap matrix is 1.0531853508E-02.
  Using Symmetric Orthogonalization.

  SCF Guess: Orbitals guess was supplied from a previous computation.

  ==> Iterations <==

                           Total Energy        Delta E     RMS |[F,P]|

   @DF-RHF iter   0:  -115.07653506111376   -1.15077e+02   1.08699e-03 
   @DF-RHF iter   1:  -115.06225090894645    1.42842e-02   1.90343e-04 DIIS
   @DF-RHF iter   2:  -115.06231380836304   -6.28994e-05   6.71428e-05 DIIS
   @DF-RHF iter   3:  -115.06232474199741   -1.09336e-05   2.92931e-05 DIIS
   @DF-RHF iter   4:  -115.06232677940136   -2.03740e-06   1.06371e-05 DIIS
   @DF-RHF iter   5:  -115.06232706170142   -2.82300e-07   2.73702e-06 DIIS
   @DF-RHF iter   6:  -115.06232709078483   -2.90834e-08   6.82959e-07 DIIS
   @DF-RHF iter   7:  -115.06232709219614   -1.41131e-09   1.95592e-07 DIIS
   @DF-RHF iter   8:  -115.06232709230832   -1.12180e-10   4.19637e-08 DIIS
   @DF-RHF iter   9:  -115.06232709231332   -5.00222e-12   7.73734e-09 DIIS
  Energy and wave function converged.


  ==> Post-Iterations <==

    Orbital Energies [Eh]
    ---------------------

    Doubly Occupied:                                                      

       1A    -20.540656     2A    -11.263760     3A     -1.366799  
       4A     -0.928601     5A     -0.699605     6A     -0.622589  
       7A     -0.599498     8A     -0.497395     9A     -0.442920  

    Virtual:                                                              

      10A      0.153055    11A      0.188271    12A      0.230631  
      13A      0.234732    14A      0.349112    15A      0.466003  
      16A      0.475417    17A      0.609709    18A      0.706103  
      19A      0.738606    20A      0.790976    21A      0.800638  
      22A      0.944689    23A      1.067604    24A      1.078764  
      25A      1.193240    26A      1.547166    27A      1.588854  
      28A      1.678232    29A      1.768214    30A      1.775194  
      31A      2.009160    32A      2.369469    33A      2.616689  
      34A      2.719470    35A      2.725448    36A      3.157801  
      37A      3.269713    38A      3.353705    39A      3.408608  
      40A      3.560765    41A      3.585168    42A      3.831613  
      43A      4.276910    44A      5.385322    45A      5.551479  
      46A      5.945610    47A     24.574160    48A     51.531063  

    Final Occupation by Irrep:
              A 
    DOCC [     9 ]

  @DF-RHF Final Energy:  -115.06232709231332

   => Energetics <=

    Nuclear Repulsion Energy =             40.9670121226419468
    One-Electron Energy =                -238.1350353974391965
    Two-Electron Energy =                  82.1056961824839107
    Total Energy =                       -115.0623270923133248

Computation Completed


Properties will be evaluated at   0.000000,   0.000000,   0.000000 [a0]

Properties computed using the SCF density matrix

  Nuclear Dipole Moment: [e a0]
     X:    -2.1210      Y:    -0.7212      Z:     0.1378

  Electronic Dipole Moment: [e a0]
     X:     1.7311      Y:     0.0547      Z:    -0.1196

  Dipole Moment: [e a0]
     X:    -0.3898      Y:    -0.6664      Z:     0.0181     Total:     0.7723

  Dipole Moment: [D]
     X:    -0.9909      Y:    -1.6939      Z:     0.0461     Total:     1.9630


*** tstop() called on node37.bme.utexas.edu at Sun Dec 29 12:31:06 2019
Module time:
	user time   =       0.45 seconds =       0.01 minutes
	system time =       0.02 seconds =       0.00 minutes
	total time  =          1 seconds =       0.02 minutes
Total time:
	user time   =       3.71 seconds =       0.06 minutes
	system time =       0.09 seconds =       0.00 minutes
	total time  =          5 seconds =       0.08 minutes

*** tstart() called on node37.bme.utexas.edu
*** at Sun Dec 29 12:31:06 2019


         ------------------------------------------------------------
                                   SCF GRAD                          
                          Rob Parrish, Justin Turney,                
                       Andy Simmonett, and Alex Sokolov              
         ------------------------------------------------------------

  ==> Geometry <==

    Molecular point group: c1
    Full point group: C1

    Geometry (in Angstrom), charge = 0, multiplicity = 1:

       Center              X                  Y                   Z               Mass       
    ------------   -----------------  -----------------  -----------------  -----------------
         O            0.676620391722     0.036182796275    -0.045994466018    15.994914619570
         C           -0.711568952460     0.016394608891     0.048942560733    12.000000000000
         H           -1.042791856139     0.094638858638     1.080219893223     1.007825032230
         H           -1.139002604147    -0.886953936390    -0.374592559067     1.007825032230
         H           -1.099009773791     0.860768319904    -0.503357506287     1.007825032230
         H            1.014877220065    -0.837908275512    -0.055054960811     1.007825032230

  Nuclear repulsion =   40.967012122641947

  ==> Basis Set <==

  Basis Set: 6-311G*
    Blend: 6-311G*
    Number of shells: 28
    Number of basis function: 48
    Number of Cartesian functions: 50
    Spherical Harmonics?: true
    Max angular momentum: 2

  ==> DFJKGrad: Density-Fitted SCF Gradients <==

    Gradient:                    1
    J tasked:                  Yes
    K tasked:                  Yes
    wK tasked:                  No
    OpenMP threads:              1
    Integrals threads:           1
    Memory [MiB]:              500
    Schwarz Cutoff:          0E+00
    Fitting Condition:       1E-10

   => Auxiliary Basis Set <=

  Basis Set: (6-311G* AUX)
    Blend: CC-PVTZ-JKFIT
    Number of shells: 90
    Number of basis function: 278
    Number of Cartesian functions: 332
    Spherical Harmonics?: true
    Max angular momentum: 4


  -Total Gradient:
     Atom            X                  Y                   Z
    ------   -----------------  -----------------  -----------------
       1       -0.005718154933     0.000479822700     0.002566584214
       2        0.006011859416    -0.000236919108    -0.000726321618
       3       -0.000252906331     0.000007274903    -0.000593688792
       4        0.000372979718     0.000537116794     0.001257867663
       5        0.000687171244    -0.000934775249    -0.000454584220
       6       -0.001100949114     0.000147479959    -0.002049857247


*** tstop() called on node37.bme.utexas.edu at Sun Dec 29 12:31:06 2019
Module time:
	user time   =       0.48 seconds =       0.01 minutes
	system time =       0.00 seconds =       0.00 minutes
	total time  =          0 seconds =       0.00 minutes
Total time:
	user time   =       4.19 seconds =       0.07 minutes
	system time =       0.09 seconds =       0.00 minutes
	total time  =          5 seconds =       0.08 minutes

			-----------------------------------------
			 OPTKING 2.0: for geometry optimizations 
			  - R.A. King,  Bethel University        
			-----------------------------------------

	Previous internal coordinate definitions found.
	---Fragment 1 Geometry and Gradient---
	 O           1.2786272313        0.0683755754       -0.0869169441
	 C          -1.3446704395        0.0309813207        0.0924880357
	 H          -1.9705910140        0.1788415237        2.0413197535
	 H          -2.1524029780       -1.6761000257       -0.7078773453
	 H          -2.0768274817        1.6266163821       -0.9512078301
	 H           1.9178399969       -1.5834171590       -0.1040387978
	            -0.0057181549        0.0004798227        0.0025665842
	             0.0060118594       -0.0002369191       -0.0007263216
	            -0.0002529063        0.0000072749       -0.0005936888
	             0.0003729797        0.0005371168        0.0012578677
	             0.0006871712       -0.0009347752       -0.0004545842
	            -0.0011009491        0.0001474800       -0.0020498572

	---Fragment 1 Intrafragment Coordinates---
	 - Coordinate -           - BOHR/RAD -       - ANG/DEG -
	 R(1,2)           =         2.629691	       1.391573
	 R(1,6)           =         1.771244	       0.937302
	 R(2,3)           =         2.052214	       1.085985
	 R(2,4)           =         2.051132	       1.085412
	 R(2,5)           =         2.042402	       1.080793
	 B(1,2,3)         =         1.947672	     111.593410
	 B(1,2,4)         =         1.958491	     112.213242
	 B(1,2,5)         =         1.887709	     108.157766
	 B(2,1,6)         =         1.925598	     110.328649
	 B(3,2,4)         =         1.886416	     108.083683
	 B(3,2,5)         =         1.896154	     108.641593
	 B(4,2,5)         =         1.885610	     108.037515
	 D(3,2,1,6)       =         1.638042	      93.852874
	 D(4,2,1,6)       =        -0.482212	     -27.628719
	 D(5,2,1,6)       =        -2.560424	    -146.701481

	Current energy   :      -115.0623270923

	Energy change for the previous step:
		Projected    :         0.0004818224
		Actual       :        -0.0006158401

	Performing BFGS update.
	Previous computed or guess Hessian on step 1.
	Steps to be used in Hessian update: 3 2
	Taking RFO optimization step.
	Going to follow RFO solution 1.
	Using RFO vector 1.

	Determining step-restricting scale parameter for RS-RFO.
	Maximum step size allowed    0.12500

	 Iter      |step|        alpha        rfo_root  
	------------------------------------------------
	    0     1.60104       1.00000           1
	    1     0.90550       2.26018           1
	    2     0.53103       5.17246           1
	    3     0.32630      11.51689           1
	    4     0.21474      23.43966           1
	    5     0.15686      40.23185           1
	    6     0.13179      54.31644           1
	    7     0.12544      59.13283           1
	    8     0.12500      59.48970           1
	------------------------------------------------
	Norm of target step-size    0.12500
	Projected energy change by RFO approximation:        -0.0004535407

	Back-transformation to cartesian coordinates...
	Could not converge backtransformation.
	Using first guess instead.

	--- Internal Coordinate Step in ANG or DEG, aJ/ANG or AJ/DEG ---
	 ---------------------------------------------------------------------------
	   Coordinate                Previous        Force       Change         New 
	   ----------                --------       ------       ------       ------
	    1 R(1,2)          =      1.391573     0.056261    -0.003513     1.388059
	    2 R(1,6)          =      0.937302     0.004243     0.001368     0.938670
	    3 R(2,3)          =      1.085985     0.004005     0.001273     1.087258
	    4 R(2,4)          =      1.085412     0.008937     0.000605     1.086018
	    5 R(2,5)          =      1.080793     0.006132     0.000664     1.081457
	    6 B(1,2,3)        =    111.593410    -0.000057     0.081920   111.675329
	    7 B(1,2,4)        =    112.213242     0.000000    -0.037121   112.176121
	    8 B(1,2,5)        =    108.157766     0.000054     0.078454   108.236221
	    9 B(2,1,6)        =    110.328649     0.000112     0.096488   110.425137
	   10 B(3,2,4)        =    108.083683     0.000045    -0.024876   108.058807
	   11 B(3,2,5)        =    108.641593    -0.000033    -0.097569   108.544025
	   12 B(4,2,5)        =    108.037515    -0.000011    -0.006634   108.030881
	   13 D(3,2,1,6)      =     93.852874    -0.000016    -4.119903    89.732971
	   14 D(4,2,1,6)      =    -27.628719    -0.000020    -4.120233   -31.748952
	   15 D(5,2,1,6)      =   -146.701481    -0.000025    -4.140611  -150.842091
	 ---------------------------------------------------------------------------
	Successfully symmetrized geometry.

  ==> Convergence Check <==

  Measures of convergence in internal coordinates in au.
  Criteria marked as inactive (o), active & met (*), and active & unmet ( ).
  ---------------------------------------------------------------------------------------------
   Step     Total Energy     Delta E     MAX Force     RMS Force      MAX Disp      RMS Disp   
  ---------------------------------------------------------------------------------------------
    Convergence Criteria    1.00e-06 *    3.00e-04 *             o    1.20e-03 *             o
  ---------------------------------------------------------------------------------------------
      4    -115.06232709   -6.16e-04      6.83e-03      1.95e-03 o    7.23e-02      3.23e-02 o  ~
  ---------------------------------------------------------------------------------------------

	Writing optimization data to binary file.
	Structure for next step:
	Cartesian Geometry (in Angstrom)
	    O     0.6728501555   0.0350466345  -0.0686673338
	    C    -0.7105396771   0.0163640936   0.0435495749
	    H    -1.0303190087   0.0867086810   1.0803341938
	    H    -1.1442261138  -0.8836877027  -0.3821936949
	    H    -1.1053955327   0.8660171633  -0.4965681932
	    H     1.0167546111  -0.8373264951  -0.0262915856
			--------------------------
			 OPTKING Finished Execution 
			--------------------------

    Structure for next step:
    Molecular point group: c1
    Full point group: C1

    Geometry (in Angstrom), charge = 0, multiplicity = 1:

    O            0.674261217342     0.035588790035    -0.056206262755
    C           -0.709128620742     0.016906249034     0.056010646434
    H           -1.028907953595     0.087250836756     1.092795269444
    H           -1.142815059114    -0.883145550728    -0.369732625064
    H           -1.103984477836     0.866559322123    -0.484107123776
    H            1.018165674247    -0.836784342963    -0.013830514395

gradient() will perform analytic gradient computation.

*** tstart() called on node37.bme.utexas.edu
*** at Sun Dec 29 12:31:06 2019

   => Loading Basis Set <=

    Name: 6-311G*
    Role: ORBITAL
    Keyword: BASIS
    atoms 1   entry O          line   152 file /home/bdw2292/miniconda3/envs/p4env/share/psi4/basis/6-311gs.gbs 
    atoms 2   entry C          line   114 file /home/bdw2292/miniconda3/envs/p4env/share/psi4/basis/6-311gs.gbs 
    atoms 3-6 entry H          line    37 file /home/bdw2292/miniconda3/envs/p4env/share/psi4/basis/6-311gs.gbs 


         ---------------------------------------------------------
                                   SCF
               by Justin Turney, Rob Parrish, Andy Simmonett
                          and Daniel G. A. Smith
                              RHF Reference
                        1 Threads,    667 MiB Core
         ---------------------------------------------------------

  ==> Geometry <==

    Molecular point group: c1
    Full point group: C1

    Geometry (in Angstrom), charge = 0, multiplicity = 1:

       Center              X                  Y                   Z               Mass       
    ------------   -----------------  -----------------  -----------------  -----------------
         O            0.674261217342     0.035588790035    -0.056206262755    15.994914619570
         C           -0.709128620742     0.016906249034     0.056010646434    12.000000000000
         H           -1.028907953595     0.087250836756     1.092795269444     1.007825032230
         H           -1.142815059114    -0.883145550728    -0.369732625064     1.007825032230
         H           -1.103984477836     0.866559322123    -0.484107123776     1.007825032230
         H            1.018165674247    -0.836784342963    -0.013830514395     1.007825032230

  Running in c1 symmetry.

  Rotational constants: A =      4.41181  B =      0.85787  C =      0.82860 [cm^-1]
  Rotational constants: A = 132262.59413  B =  25718.28476  C =  24840.81239 [MHz]
  Nuclear repulsion =   41.005702848401825

  Charge       = 0
  Multiplicity = 1
  Electrons    = 18
  Nalpha       = 9
  Nbeta        = 9

  ==> Algorithm <==

  SCF Algorithm Type is DF.
  DIIS enabled.
  MOM disabled.
  Fractional occupation disabled.
  Guess Type is READ.
  Energy threshold   = 1.00e-08
  Density threshold  = 1.00e-08
  Integral threshold = 0.00e+00

  ==> Primary Basis <==

  Basis Set: 6-311G*
    Blend: 6-311G*
    Number of shells: 28
    Number of basis function: 48
    Number of Cartesian functions: 50
    Spherical Harmonics?: true
    Max angular momentum: 2

   => Loading Basis Set <=

    Name: (6-311G* AUX)
    Role: JKFIT
    Keyword: DF_BASIS_SCF
    atoms 1   entry O          line   229 file /home/bdw2292/miniconda3/envs/p4env/share/psi4/basis/cc-pvtz-jkfit.gbs 
    atoms 2   entry C          line   125 file /home/bdw2292/miniconda3/envs/p4env/share/psi4/basis/cc-pvtz-jkfit.gbs 
    atoms 3-6 entry H          line    51 file /home/bdw2292/miniconda3/envs/p4env/share/psi4/basis/cc-pvtz-jkfit.gbs 

   => Loading Basis Set <=

    Name: 6-311G*
    Role: ORBITAL
    Keyword: BASIS
    atoms 1   entry O          line   152 file /home/bdw2292/miniconda3/envs/p4env/share/psi4/basis/6-311gs.gbs 
    atoms 2   entry C          line   114 file /home/bdw2292/miniconda3/envs/p4env/share/psi4/basis/6-311gs.gbs 
    atoms 3-6 entry H          line    37 file /home/bdw2292/miniconda3/envs/p4env/share/psi4/basis/6-311gs.gbs 

  Reading orbitals from file 180, no projection.

  ==> Pre-Iterations <==

   -------------------------------------------------------
    Irrep   Nso     Nmo     Nalpha   Nbeta   Ndocc  Nsocc
   -------------------------------------------------------
     A         48      48       0       0       0       0
   -------------------------------------------------------
    Total      48      48       9       9       9       0
   -------------------------------------------------------

  ==> Integral Setup <==

  DFHelper Memory: AOs need 0.006 GiB; user supplied 0.489 GiB. Using in-core AOs.

  ==> MemDFJK: Density-Fitted J/K Matrices <==

    J tasked:                   Yes
    K tasked:                   Yes
    wK tasked:                   No
    OpenMP threads:               1
    Memory [MiB]:               500
    Algorithm:                 Core
    Schwarz Cutoff:           1E-12
    Mask sparsity (%):       0.0000
    Fitting Condition:        1E-10

   => Auxiliary Basis Set <=

  Basis Set: (6-311G* AUX)
    Blend: CC-PVTZ-JKFIT
    Number of shells: 90
    Number of basis function: 278
    Number of Cartesian functions: 332
    Spherical Harmonics?: true
    Max angular momentum: 4

  Minimum eigenvalue in the overlap matrix is 1.0499130190E-02.
  Using Symmetric Orthogonalization.

  SCF Guess: Orbitals guess was supplied from a previous computation.

  ==> Iterations <==

                           Total Energy        Delta E     RMS |[F,P]|

   @DF-RHF iter   0:  -115.06194275880262   -1.15062e+02   7.51121e-04 
   @DF-RHF iter   1:  -115.06245986641999   -5.17108e-04   1.63452e-04 DIIS
   @DF-RHF iter   2:  -115.06251742684687   -5.75604e-05   6.48113e-05 DIIS
   @DF-RHF iter   3:  -115.06253126401276   -1.38372e-05   1.54729e-05 DIIS
   @DF-RHF iter   4:  -115.06253197230443   -7.08292e-07   6.75860e-06 DIIS
   @DF-RHF iter   5:  -115.06253208993711   -1.17633e-07   1.54410e-06 DIIS
   @DF-RHF iter   6:  -115.06253209814612   -8.20901e-09   3.18549e-07 DIIS
   @DF-RHF iter   7:  -115.06253209850956   -3.63443e-10   7.89086e-08 DIIS
[...]

gradient() will perform analytic gradient computation.

*** tstart() called on node37.bme.utexas.edu
*** at Sun Dec 29 12:31:15 2019

   => Loading Basis Set <=

    Name: 6-311G*
    Role: ORBITAL
    Keyword: BASIS
    atoms 1   entry O          line   152 file /home/bdw2292/miniconda3/envs/p4env/share/psi4/basis/6-311gs.gbs 
    atoms 2   entry C          line   114 file /home/bdw2292/miniconda3/envs/p4env/share/psi4/basis/6-311gs.gbs 
    atoms 3-6 entry H          line    37 file /home/bdw2292/miniconda3/envs/p4env/share/psi4/basis/6-311gs.gbs 


         ---------------------------------------------------------
                                   SCF
               by Justin Turney, Rob Parrish, Andy Simmonett
                          and Daniel G. A. Smith
                              RHF Reference
                        1 Threads,    667 MiB Core
         ---------------------------------------------------------

  ==> Geometry <==

    Molecular point group: c1
    Full point group: C1

    Geometry (in Angstrom), charge = 0, multiplicity = 1:

       Center              X                  Y                   Z               Mass       
    ------------   -----------------  -----------------  -----------------  -----------------
         O            0.672144364769     0.022515264037    -0.112307683353    15.994914619570
         C           -0.710956238017     0.021793757733     0.091076320434    12.000000000000
         H           -0.966842874591     0.060625204270     1.147126550068     1.007825032230
         H           -1.186622703033    -0.850021281931    -0.351444536966     1.007825032230
         H           -1.105480684465     0.905875782690    -0.388261990170     1.007825032230
         H            1.056761558071    -0.733307823824     0.290554266898     1.007825032230

  Running in c1 symmetry.

  Rotational constants: A =      4.39265  B =      0.84926  C =      0.82073 [cm^-1]
  Rotational constants: A = 131688.41189  B =  25460.13964  C =  24604.90667 [MHz]
  Nuclear repulsion =   40.852459483023630

  Charge       = 0
  Multiplicity = 1
  Electrons    = 18
  Nalpha       = 9
  Nbeta        = 9

  ==> Algorithm <==

  SCF Algorithm Type is DF.
  DIIS enabled.
  MOM disabled.
  Fractional occupation disabled.
  Guess Type is READ.
  Energy threshold   = 1.00e-08
  Density threshold  = 1.00e-08
  Integral threshold = 0.00e+00

  ==> Primary Basis <==

  Basis Set: 6-311G*
    Blend: 6-311G*
    Number of shells: 28
    Number of basis function: 48
    Number of Cartesian functions: 50
    Spherical Harmonics?: true
    Max angular momentum: 2

   => Loading Basis Set <=

    Name: (6-311G* AUX)
    Role: JKFIT
    Keyword: DF_BASIS_SCF
    atoms 1   entry O          line   229 file /home/bdw2292/miniconda3/envs/p4env/share/psi4/basis/cc-pvtz-jkfit.gbs 
    atoms 2   entry C          line   125 file /home/bdw2292/miniconda3/envs/p4env/share/psi4/basis/cc-pvtz-jkfit.gbs 
    atoms 3-6 entry H          line    51 file /home/bdw2292/miniconda3/envs/p4env/share/psi4/basis/cc-pvtz-jkfit.gbs 

   => Loading Basis Set <=

    Name: 6-311G*
    Role: ORBITAL
    Keyword: BASIS
    atoms 1   entry O          line   152 file /home/bdw2292/miniconda3/envs/p4env/share/psi4/basis/6-311gs.gbs 
    atoms 2   entry C          line   114 file /home/bdw2292/miniconda3/envs/p4env/share/psi4/basis/6-311gs.gbs 
    atoms 3-6 entry H          line    37 file /home/bdw2292/miniconda3/envs/p4env/share/psi4/basis/6-311gs.gbs 

  Reading orbitals from file 180, no projection.

  ==> Pre-Iterations <==

   -------------------------------------------------------
    Irrep   Nso     Nmo     Nalpha   Nbeta   Ndocc  Nsocc
   -------------------------------------------------------
     A         48      48       0       0       0       0
   -------------------------------------------------------
    Total      48      48       9       9       9       0
   -------------------------------------------------------

  ==> Integral Setup <==

  DFHelper Memory: AOs need 0.006 GiB; user supplied 0.489 GiB. Using in-core AOs.

  ==> MemDFJK: Density-Fitted J/K Matrices <==

    J tasked:                   Yes
    K tasked:                   Yes
    wK tasked:                   No
    OpenMP threads:               1
    Memory [MiB]:               500
    Algorithm:                 Core
    Schwarz Cutoff:           1E-12
    Mask sparsity (%):       0.0000
    Fitting Condition:        1E-10

   => Auxiliary Basis Set <=

  Basis Set: (6-311G* AUX)
    Blend: CC-PVTZ-JKFIT
    Number of shells: 90
    Number of basis function: 278
    Number of Cartesian functions: 332
    Spherical Harmonics?: true
    Max angular momentum: 4

  Minimum eigenvalue in the overlap matrix is 1.0677235270E-02.
  Using Symmetric Orthogonalization.

  SCF Guess: Orbitals guess was supplied from a previous computation.

  ==> Iterations <==

                           Total Energy        Delta E     RMS |[F,P]|

   @DF-RHF iter   0:  -115.06354414075133   -1.15064e+02   2.88823e-05 
   @DF-RHF iter   1:  -115.06371468679434   -1.70546e-04   4.65313e-06 DIIS
   @DF-RHF iter   2:  -115.06371471370484   -2.69105e-08   1.96807e-06 DIIS
   @DF-RHF iter   3:  -115.06371471793992   -4.23508e-09   7.69262e-07 DIIS
   @DF-RHF iter   4:  -115.06371471908255   -1.14264e-09   2.19515e-07 DIIS
   @DF-RHF iter   5:  -115.06371471923970   -1.57144e-10   5.60134e-08 DIIS
   @DF-RHF iter   6:  -115.06371471925374   -1.40403e-11   1.13457e-08 DIIS
   @DF-RHF iter   7:  -115.06371471925411   -3.69482e-13   3.81668e-09 DIIS
  Energy and wave function converged.


  ==> Post-Iterations <==

    Orbital Energies [Eh]
    ---------------------

    Doubly Occupied:                                                      

       1A    -20.541664     2A    -11.264801     3A     -1.364460  
       4A     -0.928365     5A     -0.697007     6A     -0.622290  
       7A     -0.597331     8A     -0.498092     9A     -0.444932  

    Virtual:                                                              

      10A      0.154644    11A      0.189142    12A      0.227345  
      13A      0.234007    14A      0.346239    15A      0.461374  
      16A      0.484076    17A      0.596252    18A      0.700398  
      19A      0.737287    20A      0.791098    21A      0.805899  
      22A      0.946315    23A      1.064723    24A      1.080040  
      25A      1.175337    26A      1.547047    27A      1.602394  
      28A      1.695661    29A      1.764275    30A      1.770921  
      31A      2.002502    32A      2.368203    33A      2.619143  
      34A      2.706060    35A      2.725030    36A      3.165150  
      37A      3.258037    38A      3.378714    39A      3.421454  
      40A      3.516486    41A      3.577444    42A      3.830280  
      43A      4.273875    44A      5.386415    45A      5.542658  
      46A      5.932800    47A     24.568170    48A     51.527639  

    Final Occupation by Irrep:
              A 
    DOCC [     9 ]

  @DF-RHF Final Energy:  -115.06371471925411

   => Energetics <=

    Nuclear Repulsion Energy =             40.8524594830236296
    One-Electron Energy =                -237.9144656089149805
    Two-Electron Energy =                  81.9982914066372359
    Total Energy =                       -115.0637147192541079

Computation Completed


Properties will be evaluated at   0.000000,   0.000000,   0.000000 [a0]

Properties computed using the SCF density matrix

  Nuclear Dipole Moment: [e a0]
     X:    -2.0613      Y:    -0.5781      Z:     0.6538

  Electronic Dipole Moment: [e a0]
     X:     1.7001      Y:     0.0349      Z:    -0.2707

  Dipole Moment: [e a0]
     X:    -0.3612      Y:    -0.5432      Z:     0.3831     Total:     0.7565

  Dipole Moment: [D]
     X:    -0.9180      Y:    -1.3808      Z:     0.9737     Total:     1.9229


*** tstop() called on node37.bme.utexas.edu at Sun Dec 29 12:31:15 2019
Module time:
	user time   =       0.46 seconds =       0.01 minutes
	system time =       0.01 seconds =       0.00 minutes
	total time  =          0 seconds =       0.00 minutes
Total time:
	user time   =      12.30 seconds =       0.21 minutes
	system time =       0.20 seconds =       0.00 minutes
	total time  =         14 seconds =       0.23 minutes

*** tstart() called on node37.bme.utexas.edu
*** at Sun Dec 29 12:31:15 2019


         ------------------------------------------------------------
                                   SCF GRAD                          
                          Rob Parrish, Justin Turney,                
                       Andy Simmonett, and Alex Sokolov              
         ------------------------------------------------------------

  ==> Geometry <==

    Molecular point group: c1
    Full point group: C1

    Geometry (in Angstrom), charge = 0, multiplicity = 1:

       Center              X                  Y                   Z               Mass       
    ------------   -----------------  -----------------  -----------------  -----------------
         O            0.672144364769     0.022515264037    -0.112307683353    15.994914619570
         C           -0.710956238017     0.021793757733     0.091076320434    12.000000000000
         H           -0.966842874591     0.060625204270     1.147126550068     1.007825032230
         H           -1.186622703033    -0.850021281931    -0.351444536966     1.007825032230
         H           -1.105480684465     0.905875782690    -0.388261990170     1.007825032230
         H            1.056761558071    -0.733307823824     0.290554266898     1.007825032230

  Nuclear repulsion =   40.852459483023630

  ==> Basis Set <==

  Basis Set: 6-311G*
    Blend: 6-311G*
    Number of shells: 28
    Number of basis function: 48
    Number of Cartesian functions: 50
    Spherical Harmonics?: true
    Max angular momentum: 2

  ==> DFJKGrad: Density-Fitted SCF Gradients <==

    Gradient:                    1
    J tasked:                  Yes
    K tasked:                  Yes
    wK tasked:                  No
    OpenMP threads:              1
    Integrals threads:           1
    Memory [MiB]:              500
    Schwarz Cutoff:          0E+00
    Fitting Condition:       1E-10

   => Auxiliary Basis Set <=

  Basis Set: (6-311G* AUX)
    Blend: CC-PVTZ-JKFIT
    Number of shells: 90
    Number of basis function: 278
    Number of Cartesian functions: 332
    Spherical Harmonics?: true
    Max angular momentum: 4


  -Total Gradient:
     Atom            X                  Y                   Z
    ------   -----------------  -----------------  -----------------
       1        0.000004964893    -0.000004526437    -0.000006184522
       2        0.000004928125    -0.000026183062    -0.000001244009
       3       -0.000019226607     0.000007677154     0.000006301781
       4        0.000001224331     0.000015213791     0.000003663999
       5        0.000002404679     0.000001089510     0.000002537465
       6        0.000005704578     0.000006729042    -0.000005074715


*** tstop() called on node37.bme.utexas.edu at Sun Dec 29 12:31:16 2019
Module time:
	user time   =       0.48 seconds =       0.01 minutes
	system time =       0.00 seconds =       0.00 minutes
	total time  =          1 seconds =       0.02 minutes
Total time:
	user time   =      12.78 seconds =       0.21 minutes
	system time =       0.20 seconds =       0.00 minutes
	total time  =         15 seconds =       0.25 minutes

			-----------------------------------------
			 OPTKING 2.0: for geometry optimizations 
			  - R.A. King,  Bethel University        
			-----------------------------------------

	Previous internal coordinate definitions found.
	---Fragment 1 Geometry and Gradient---
	 O           1.2701687662        0.0425476827       -0.2122307633
	 C          -1.3435125770        0.0411842334        0.1721093021
	 H          -1.8270682393        0.1145650324        2.1677550109
	 H          -2.2423919230       -1.6063074237       -0.6641339232
	 H          -2.0890557306        1.7118571330       -0.7337088263
	 H           1.9969899247       -1.3857509527        0.5490679890
	             0.0000049649       -0.0000045264       -0.0000061845
	             0.0000049281       -0.0000261831       -0.0000012440
	            -0.0000192266        0.0000076772        0.0000063018
	             0.0000012243        0.0000152138        0.0000036640
	             0.0000024047        0.0000010895        0.0000025375
	             0.0000057046        0.0000067290       -0.0000050747

	---Fragment 1 Intrafragment Coordinates---
	 - Coordinate -           - BOHR/RAD -       - ANG/DEG -
	 R(1,2)           =         2.641789	       1.397975
	 R(1,6)           =         1.774227	       0.938881
	 R(2,3)           =         2.054705	       1.087303
	 R(2,4)           =         2.054633	       1.087265
	 R(2,5)           =         2.041443	       1.080285
	 B(1,2,3)         =         1.954245	     111.970017
	 B(1,2,4)         =         1.954153	     111.964703
	 B(1,2,5)         =         1.871657	     107.238044
	 B(2,1,6)         =         1.920325	     110.026536
	 B(3,2,4)         =         1.897563	     108.722367
	 B(3,2,5)         =         1.892081	     108.408283
	 B(4,2,5)         =         1.892143	     108.411789
	 D(3,2,1,6)       =         1.068193	      61.202945
	 D(4,2,1,6)       =        -1.068188	     -61.202677
	 D(5,2,1,6)       =         3.141593	     180.000000

	Current energy   :      -115.0637147193

	Energy change for the previous step:
		Projected    :        -0.0000005360
		Actual       :        -0.0000002604

	Performing BFGS update.
	Previous computed or guess Hessian on step 1.
	Steps to be used in Hessian update: 12 11
	Taking RFO optimization step.
	Going to follow RFO solution 1.
	Using RFO vector 1.
	Norm of target step-size    0.00027
	Projected energy change by RFO approximation:        -0.0000000078

	Back-transformation to cartesian coordinates...
	Could not converge backtransformation.
	Using first guess instead.

	--- Internal Coordinate Step in ANG or DEG, aJ/ANG or AJ/DEG ---
	 ---------------------------------------------------------------------------
	   Coordinate                Previous        Force       Change         New 
	   ----------                --------       ------       ------       ------
	    1 R(1,2)          =      1.397975    -0.000100     0.000000     1.397975
	    2 R(1,6)          =      0.938881     0.000043    -0.000001     0.938879
	    3 R(2,3)          =      1.087303    -0.000090    -0.000020     1.087283
	    4 R(2,4)          =      1.087265     0.000117     0.000022     1.087287
	    5 R(2,5)          =      1.080285     0.000009    -0.000002     1.080283
	    6 B(1,2,3)        =    111.970017    -0.000002    -0.010034   111.959982
	    7 B(1,2,4)        =    111.964703    -0.000000    -0.001396   111.963307
	    8 B(1,2,5)        =    107.238044     0.000001     0.003858   107.241902
	    9 B(2,1,6)        =    110.026536    -0.000001    -0.006065   110.020471
	   10 B(3,2,4)        =    108.722367     0.000000     0.000500   108.722866
	   11 B(3,2,5)        =    108.408283     0.000001     0.005186   108.413470
	   12 B(4,2,5)        =    108.411789     0.000000     0.002543   108.414332
	   13 D(3,2,1,6)      =     61.202945    -0.000000    -0.001852    61.201092
	   14 D(4,2,1,6)      =    -61.202677     0.000000     0.005881   -61.196795
	   15 D(5,2,1,6)      =    180.000000    -0.000000     0.000000   180.000000
	 ---------------------------------------------------------------------------
	Successfully symmetrized geometry.

  ==> Convergence Check <==

  Measures of convergence in internal coordinates in au.
  Criteria marked as inactive (o), active & met (*), and active & unmet ( ).
  ---------------------------------------------------------------------------------------------
   Step     Total Energy     Delta E     MAX Force     RMS Force      MAX Disp      RMS Disp   
  ---------------------------------------------------------------------------------------------
    Convergence Criteria    1.00e-06 *    3.00e-04 *             o    1.20e-03 *             o
  ---------------------------------------------------------------------------------------------
     13    -115.06371472   -2.60e-07 *    2.65e-05 *    1.14e-05 o    1.75e-04 *    6.93e-05 o  ~
  ---------------------------------------------------------------------------------------------


  **** Optimization is complete! (in 13 steps) ****

  ==> Optimization Summary <==

  Measures of convergence in internal coordinates in au.
  --------------------------------------------------------------------------------------------------------------- ~
   Step         Total Energy             Delta E       MAX Force       RMS Force        MAX Disp        RMS Disp  ~
  --------------------------------------------------------------------------------------------------------------- ~
      1    -115.057992263092   -115.057992263092      0.03927847      0.01254631      0.08934865      0.04585450  ~
      2    -115.061306753477     -0.003314490385      0.01189009      0.00331661      0.28589751      0.12705058  ~
      3    -115.061711252176     -0.000404498699      0.02091412      0.00562395      0.07337500      0.03221698  ~
      4    -115.062327092313     -0.000615840138      0.00682886      0.00194767      0.07226729      0.03228415  ~
      5    -115.062532098525     -0.000205006212      0.00899484      0.00242803      0.06865134      0.03223279  ~
      6    -115.060543793348      0.001988305177      0.02277851      0.01014123      0.05440620      0.03206208  ~
      7    -115.062765813390     -0.002222020041      0.00206724      0.00126356      0.21955029      0.09711645  ~
      8    -115.063359586064     -0.000593772675      0.00385462      0.00145068      0.22022124      0.09684241  ~
      9    -115.063596490957     -0.000236904893      0.00619654      0.00185023      0.02612732      0.00711514  ~
     10    -115.063699514141     -0.000103023184      0.00203717      0.00068266      0.02595319      0.01104345  ~
     11    -115.063711618418     -0.000012104277      0.00109563      0.00037739      0.00536669      0.00230160  ~
     12    -115.063714458831     -0.000002840413      0.00032057      0.00011931      0.00107379      0.00056443  ~
     13    -115.063714719254     -0.000000260423      0.00002651      0.00001142      0.00017513      0.00006931  ~
  --------------------------------------------------------------------------------------------------------------- ~

	Writing optimization data to binary file.
	Final energy is   -115.0637147192541
	Final (previous) structure:
	Cartesian Geometry (in Angstrom)
	    O     0.6721443621   0.0225152639  -0.1123076829
	    C    -0.7109562352   0.0217937576   0.0910763201
	    H    -0.9668428708   0.0606252040   1.1471265456
	    H    -1.1866226984  -0.8500212786  -0.3514445356
	    H    -1.1054806801   0.9058757791  -0.3882619886
	    H     1.0567615539  -0.7333078209   0.2905542658
	Saving final (previous) structure.
			--------------------------
			 OPTKING Finished Execution 
			--------------------------

    Final optimized geometry and variables:
    Molecular point group: c1
    Full point group: C1

    Geometry (in Angstrom), charge = 0, multiplicity = 1:

    O            0.672144364769     0.022515264037    -0.112307683353
    C           -0.710956238017     0.021793757733     0.091076320434
    H           -0.966842874591     0.060625204270     1.147126550068
    H           -1.186622703033    -0.850021281931    -0.351444536966
    H           -1.105480684465     0.905875782690    -0.388261990170
    H            1.056761558071    -0.733307823824     0.290554266898

	Removing binary optimization data file.
	Cleaning optimization helper files.

    Psi4 stopped on: Sunday, 29 December 2019 12:31PM
    Psi4 wall time for execution: 0:00:14.36

*** Psi4 exiting successfully. Buy a developer a beer!
