
    -----------------------------------------------------------------------
          Psi4: An Open-Source Ab Initio Electronic Structure Package
                               Psi4 1.3.2 release

                         Git: Rev {HEAD} ecbda83 


    R. M. Parrish, L. A. Burns, D. G. A. Smith, A. C. Simmonett,
    A. E. DePrince III, E. G. Hohenstein, U. Bozkaya, A. Yu. Sokolov,
    R. Di Remigio, R. M. Richard, J. F. Gonthier, A. M. James,
    H. R. McAlexander, A. Kumar, M. Saitow, X. Wang, B. P. Pritchard,
    P. Verma, H. F. Schaefer III, K. Patkowski, R. A. King, E. F. Valeev,
    F. A. Evangelista, J. M. Turney, T. D. Crawford, and C. D. Sherrill,
    J. Chem. Theory Comput. 13(7) pp 3185--3197 (2017).
    (doi: 10.1021/acs.jctc.7b00174)


                         Additional Contributions by
    P. Kraus, H. Kruse, M. H. Lechner, M. C. Schieber, R. A. Shaw,
    A. Alenaizan, R. Galvelis, Z. L. Glick, S. Lehtola, and J. P. Misiewicz

    -----------------------------------------------------------------------


    Psi4 started on: Sunday, 29 December 2019 12:35PM

    Process ID: 44765
    Host:       node37.bme.utexas.edu
    PSIDATADIR: /home/bdw2292/miniconda3/envs/p4env/share/psi4
    Memory:     500.0 MiB
    Threads:    1
    
  ==> Input File <==

--------------------------------------------------------------------------
molecule { 
0 1
 O    0.702144    0.019164    0.080728
 C   -0.732980    0.061160    0.066744
 H   -1.048705    1.100145   -0.061840
 H   -1.101784   -0.364446    1.003898
 H   -1.083799   -0.540110   -0.777065
 H    0.942910   -0.899020   -0.143241
}
set {
 basis 6-311++G(2d,2p)
 e_convergence 10 
 d_convergence 10 
 scf_type pk
 pcm true
  pcm_scf_type total 
}
pcm = {
 Units = Angstrom
 Medium {
 SolverType = IEFPCM
 Solvent = Water
 }
 Cavity {
 RadiiSet = UFF
 Type = GePol
 Scaling = False
 Area = 0.3
 Mode = Implicit
 }
}
memory 700MB
set_num_threads(1)
psi4_io.set_default_path("/scratch/bdw2292")
set freeze_core True
E, wfn = energy('mp2/6-311++G(2d,2p)',return_wfn=True)
clean()
--------------------------------------------------------------------------

  Memory set to 667.572 MiB by Python driver.
  Threads set to 1 by Python driver.

*** tstart() called on node37.bme.utexas.edu
*** at Sun Dec 29 12:35:08 2019

   => Loading Basis Set <=

    Name: 6-311++G(2D,2P)
    Role: ORBITAL
    Keyword: BASIS
    atoms 1   entry O          line   176 file /home/bdw2292/miniconda3/envs/p4env/share/psi4/basis/6-311ppg_2d_2p_.gbs 
    atoms 2   entry C          line   130 file /home/bdw2292/miniconda3/envs/p4env/share/psi4/basis/6-311ppg_2d_2p_.gbs 
    atoms 3-6 entry H          line    45 file /home/bdw2292/miniconda3/envs/p4env/share/psi4/basis/6-311ppg_2d_2p_.gbs 


         ---------------------------------------------------------
                                   SCF
               by Justin Turney, Rob Parrish, Andy Simmonett
                          and Daniel G. A. Smith
                              RHF Reference
                        1 Threads,    667 MiB Core
         ---------------------------------------------------------

  ==> Geometry <==

    Molecular point group: c1
    Full point group: C1

    Geometry (in Angstrom), charge = 0, multiplicity = 1:

       Center              X                  Y                   Z               Mass       
    ------------   -----------------  -----------------  -----------------  -----------------
         O            0.698220176191     0.008812755679     0.014716837141    15.994914619570
         C           -0.736903823809     0.050808755679     0.000732837141    12.000000000000
         H           -1.052628823809     1.089793755679    -0.127851162859     1.007825032230
         H           -1.105707823809    -0.374797244321     0.937886837141     1.007825032230
         H           -1.087722823809    -0.550461244321    -0.843076162859     1.007825032230
         H            0.938986176191    -0.909371244321    -0.209252162859     1.007825032230

  Running in c1 symmetry.

  Rotational constants: A =      4.14655  B =      0.82287  C =      0.79185 [cm^-1]
  Rotational constants: A = 124310.33234  B =  24669.02628  C =  23739.13494 [MHz]
  Nuclear repulsion =   40.073873279781893

  Charge       = 0
  Multiplicity = 1
  Electrons    = 18
  Nalpha       = 9
  Nbeta        = 9

  ==> Algorithm <==

  SCF Algorithm Type is PK.
  DIIS enabled.
  MOM disabled.
  Fractional occupation disabled.
  Guess Type is SAD.
  Energy threshold   = 1.00e-10
  Density threshold  = 1.00e-10
  Integral threshold = 0.00e+00

  ==> Primary Basis <==

  Basis Set: 6-311++G(2D,2P)
    Blend: 6-311++G(2D,2P)
    Number of shells: 46
    Number of basis function: 94
    Number of Cartesian functions: 98
    Spherical Harmonics?: true
    Max angular momentum: 2

  **PSI4:PCMSOLVER Interface Active**

-----------------------------------------------------------------------
   PCMSolver: An Open Source API for the Polarizable Continuum Model
                   PCMSolver 1.2.1+fa7c826

           Git: Branch {HEAD}, Revision {fa7c826}

 R. Di Remigio, A. H. Steindal, K. Mozgawa, V. Weijo, H. Cao, and
 L. Frediani, Int. J. Quantum Chem., to be submitted

 Source repository: https://github.com/PCMSolver/pcmsolver
 Documentation: https://pcmsolver.readthedocs.io/
 PCMSolver initialized on: Sunday, 29 December 2019 12:35 PM
-----------------------------------------------------------------------

~~~~~~~~~~ PCMSolver ~~~~~~~~~~
Using CODATA 2010 set of constants.
Input parsing done API-side
========== Cavity 
Atomic radii set: 
Cavity type: GePol
Average tesserae area = 0.3 Ang^2
Solvent probe radius = 1.385 Ang
Number of spheres = 6 [initial = 6; added = 0]
Number of finite elements = 310
Number of irreducible finite elements = 310
============ Spheres list (in Angstrom)
 Sphere   on   Radius   Alpha       X            Y            Z     
-------- ---- -------- ------- -----------  -----------  -----------
   1      O    1.7500   1.00     0.698220     0.008813     0.014717
   2      C    1.9255   1.00     -0.736904     0.050809     0.000733
   3      H    1.4430   1.00     -1.052629     1.089794     -0.127851
   4      H    1.4430   1.00     -1.105708     -0.374797     0.937887
   5      H    1.4430   1.00     -1.087723     -0.550461     -0.843076
   6      H    1.4430   1.00     0.938986     -0.909371     -0.209252
========== Static solver 
Solver Type: IEFPCM, isotropic
PCM matrix hermitivitized
============ Medium 
Medium initialized from solvent built-in data.
Solvent name:          Water
Static  permittivity = 78.39
Optical permittivity = 1.78
Solvent radius =       1.39 Ang
.... Inside 
Green's function type: vacuum
.... Outside 
Green's function type: uniform dielectric
Permittivity = 78.39

  PCM does not make use of molecular symmetry: further calculations in C1 point group.
  ==> Pre-Iterations <==

   -------------------------------------------------------
    Irrep   Nso     Nmo     Nalpha   Nbeta   Ndocc  Nsocc
   -------------------------------------------------------
     A         94      94       0       0       0       0
   -------------------------------------------------------
    Total      94      94       9       9       9       0
   -------------------------------------------------------

  ==> Integral Setup <==

  Using in-core PK algorithm.
   Calculation information:
      Number of atoms:                   6
      Number of AO shells:              46
      Number of primitives:             72
      Number of atomic orbitals:        98
      Number of basis functions:        94

      Integral cutoff                 1.00e-12
      Number of threads:                 1

  Performing in-core PK
  Using 19940690 doubles for integral storage.
  We computed 584414 shell quartets total.
  Whereas there are 584821 unique shell quartets.

  ==> DiskJK: Disk-Based J/K Matrices <==

    J tasked:                  Yes
    K tasked:                  Yes
    wK tasked:                  No
    Memory [MiB]:              500
    Schwarz Cutoff:          1E-12

    OpenMP threads:              1

  Minimum eigenvalue in the overlap matrix is 8.3345838633E-04.
  Using Symmetric Orthogonalization.

  SCF Guess: Superposition of Atomic Densities via on-the-fly atomic UHF.

  ==> Iterations <==

                        Total Energy        Delta E     RMS |[F,P]|

   @RHF iter SAD:  -114.34827695997659   -1.14348e+02   0.00000e+00 
   @RHF iter   1:  -115.00951302504485   -6.61236e-01   4.36611e-03 DIIS
   @RHF iter   2:  -115.07031790030250   -6.08049e-02   2.49639e-03 DIIS
   @RHF iter   3:  -115.08892283861064   -1.86049e-02   3.85360e-04 DIIS
   @RHF iter   4:  -115.08985570592729   -9.32867e-04   1.13942e-04 DIIS
   @RHF iter   5:  -115.08993935167423   -8.36457e-05   2.55862e-05 DIIS
   @RHF iter   6:  -115.08994451945136   -5.16778e-06   5.91536e-06 DIIS
   @RHF iter   7:  -115.08994493157378   -4.12122e-07   1.45349e-06 DIIS
   @RHF iter   8:  -115.08994495900147   -2.74277e-08   2.90173e-07 DIIS
   @RHF iter   9:  -115.08994496003385   -1.03238e-09   3.91053e-08 DIIS
   @RHF iter  10:  -115.08994496005359   -1.97389e-11   9.92078e-09 DIIS
   @RHF iter  11:  -115.08994496005461   -1.02318e-12   2.33014e-09 DIIS
   @RHF iter  12:  -115.08994496005479   -1.84741e-13   5.62421e-10 DIIS
   @RHF iter  13:  -115.08994496005478    1.42109e-14   1.15612e-10 DIIS
   @RHF iter  14:  -115.08994496005494   -1.56319e-13   4.01592e-11 DIIS
  Energy and wave function converged.


  ==> Post-Iterations <==

    Orbital Energies [Eh]
    ---------------------

    Doubly Occupied:                                                      

       1A    -20.563023     2A    -11.268830     3A     -1.355541  
       4A     -0.919643     5A     -0.687152     6A     -0.621262  
       7A     -0.592666     8A     -0.507499     9A     -0.453933  

    Virtual:                                                              

      10A      0.045265    11A      0.068791    12A      0.077647  
      13A      0.081426    14A      0.126809    15A      0.155611  
      16A      0.159564    17A      0.187506    18A      0.264632  
      19A      0.272892    20A      0.283210    21A      0.302716  
      22A      0.307293    23A      0.325263    24A      0.345061  
      25A      0.387750    26A      0.461927    27A      0.566034  
      28A      0.569530    29A      0.676090    30A      0.726471  
      31A      0.739216    32A      0.756957    33A      0.763625  
      34A      0.792452    35A      0.797593    36A      0.875479  
      37A      0.968996    38A      1.047611    39A      1.067755  
      40A      1.148804    41A      1.210022    42A      1.218303  
      43A      1.288898    44A      1.302425    45A      1.312528  
      46A      1.357515    47A      1.403545    48A      1.506056  
      49A      1.532385    50A      1.556942    51A      1.646918  
      52A      1.671422    53A      1.693412    54A      1.774276  
      55A      1.811651    56A      2.110595    57A      2.240849  
      58A      2.261179    59A      2.536814    60A      2.542442  
      61A      2.893620    62A      2.938513    63A      3.101809  
      64A      3.232429    65A      3.498004    66A      3.525226  
      67A      3.657711    68A      3.690505    69A      3.719604  
      70A      3.943919    71A      3.978332    72A      4.005786  
      73A      4.137722    74A      4.159505    75A      4.234065  
      76A      4.314449    77A      4.412951    78A      4.455230  
      79A      4.468789    80A      4.491059    81A      4.566014  
      82A      4.772695    83A      5.438831    84A      5.449859  
      85A      5.592912    86A      5.974862    87A      6.448221  
      88A      7.469007    89A      7.552548    90A      7.620094  
      91A      7.719571    92A      8.007691    93A     25.115074  
      94A     51.633968  

    Final Occupation by Irrep:
              A 
    DOCC [     9 ]

  @RHF Final Energy:  -115.08994496005494

   => Energetics <=

    Nuclear Repulsion Energy =             40.0738732797818926
    One-Electron Energy =                -236.4583940720586952
    Two-Electron Energy =                  81.3041908754050269
    PCM Polarization Energy =              -0.0096150431831514
    Total Energy =                       -115.0899449600549360

Computation Completed


Properties will be evaluated at   0.000000,   0.000000,   0.000000 [a0]

Properties computed using the SCF density matrix

  Nuclear Dipole Moment: [e a0]
     X:    -2.1595      Y:    -0.6982      Z:    -0.2271

  Electronic Dipole Moment: [e a0]
     X:     1.5367      Y:     0.0046      Z:     0.0311

  Dipole Moment: [e a0]
     X:    -0.6227      Y:    -0.6936      Z:    -0.1960     Total:     0.9525

  Dipole Moment: [D]
     X:    -1.5828      Y:    -1.7630      Z:    -0.4981     Total:     2.4210


*** tstop() called on node37.bme.utexas.edu at Sun Dec 29 12:35:28 2019
Module time:
	user time   =      19.16 seconds =       0.32 minutes
	system time =       0.12 seconds =       0.00 minutes
	total time  =         20 seconds =       0.33 minutes
Total time:
	user time   =      19.16 seconds =       0.32 minutes
	system time =       0.12 seconds =       0.00 minutes
	total time  =         20 seconds =       0.33 minutes

*** tstart() called on node37.bme.utexas.edu
*** at Sun Dec 29 12:35:28 2019


  //>>>>>>>>>>>>>>>>>>>>>>>>>>>>>>>>>>>//
  //               DFMP2               //
  //<<<<<<<<<<<<<<<<<<<<<<<<<<<<<<<<<<<//

   => Loading Basis Set <=

    Name: (6-311++G(2D,2P) AUX)
    Role: RIFIT
    Keyword: DF_BASIS_MP2
    atoms 1   entry O          line   264 file /home/bdw2292/miniconda3/envs/p4env/share/psi4/basis/aug-cc-pvtz-ri.gbs 
    atoms 2   entry C          line   148 file /home/bdw2292/miniconda3/envs/p4env/share/psi4/basis/aug-cc-pvtz-ri.gbs 
    atoms 3-6 entry H          line    30 file /home/bdw2292/miniconda3/envs/p4env/share/psi4/basis/aug-cc-pvtz-ri.gbs 

	 --------------------------------------------------------
	                          DF-MP2                         
	      2nd-Order Density-Fitted Moller-Plesset Theory     
	              RMP2 Wavefunction,   1 Threads             
	                                                         
	        Rob Parrish, Justin Turney, Andy Simmonett,      
	           Ed Hohenstein, and C. David Sherrill          
	 --------------------------------------------------------

   => Auxiliary Basis Set <=

  Basis Set: (6-311++G(2D,2P) AUX)
    Blend: AUG-CC-PVTZ-RI
    Number of shells: 112
    Number of basis function: 396
    Number of Cartesian functions: 492
    Spherical Harmonics?: true
    Max angular momentum: 4

	 --------------------------------------------------------
	                 NBF =    94, NAUX =   396
	 --------------------------------------------------------
	   CLASS    FOCC     OCC    AOCC    AVIR     VIR    FVIR
	   PAIRS       2       9       7      85      85       0
	 --------------------------------------------------------

	-----------------------------------------------------------
	 ==================> DF-MP2 Energies <==================== 
	-----------------------------------------------------------
	 Reference Energy          =    -115.0899449600549360 [Eh]
	 Singles Energy            =      -0.0000000000000000 [Eh]
	 Same-Spin Energy          =      -0.0930252103091070 [Eh]
	 Opposite-Spin Energy      =      -0.2990937626233370 [Eh]
	 Correlation Energy        =      -0.3921189729324440 [Eh]
	 Total Energy              =    -115.4820639329873870 [Eh]
	-----------------------------------------------------------
	 ================> DF-SCS-MP2 Energies <================== 
	-----------------------------------------------------------
	 SCS Same-Spin Scale       =       0.3333333333333333 [-]
	 SCS Opposite-Spin Scale   =       1.2000000000000000 [-]
	 SCS Same-Spin Energy      =      -0.0310084034363690 [Eh]
	 SCS Opposite-Spin Energy  =      -0.3589125151480044 [Eh]
	 SCS Correlation Energy    =      -0.3899209185843734 [Eh]
	 SCS Total Energy          =    -115.4798658786393162 [Eh]
	-----------------------------------------------------------


*** tstop() called on node37.bme.utexas.edu at Sun Dec 29 12:35:29 2019
Module time:
	user time   =       0.39 seconds =       0.01 minutes
	system time =       0.02 seconds =       0.00 minutes
	total time  =          1 seconds =       0.02 minutes
Total time:
	user time   =      19.55 seconds =       0.33 minutes
	system time =       0.14 seconds =       0.00 minutes
	total time  =         21 seconds =       0.35 minutes

    Psi4 stopped on: Sunday, 29 December 2019 12:35PM
    Psi4 wall time for execution: 0:00:20.37

*** Psi4 exiting successfully. Buy a developer a beer!
