
    -----------------------------------------------------------------------
          Psi4: An Open-Source Ab Initio Electronic Structure Package
                               Psi4 1.3.2 release

                         Git: Rev {HEAD} ecbda83 


    R. M. Parrish, L. A. Burns, D. G. A. Smith, A. C. Simmonett,
    A. E. DePrince III, E. G. Hohenstein, U. Bozkaya, A. Yu. Sokolov,
    R. Di Remigio, R. M. Richard, J. F. Gonthier, A. M. James,
    H. R. McAlexander, A. Kumar, M. Saitow, X. Wang, B. P. Pritchard,
    P. Verma, H. F. Schaefer III, K. Patkowski, R. A. King, E. F. Valeev,
    F. A. Evangelista, J. M. Turney, T. D. Crawford, and C. D. Sherrill,
    J. Chem. Theory Comput. 13(7) pp 3185--3197 (2017).
    (doi: 10.1021/acs.jctc.7b00174)


                         Additional Contributions by
    P. Kraus, H. Kruse, M. H. Lechner, M. C. Schieber, R. A. Shaw,
    A. Alenaizan, R. Galvelis, Z. L. Glick, S. Lehtola, and J. P. Misiewicz

    -----------------------------------------------------------------------


    Psi4 started on: Sunday, 29 December 2019 12:32PM

    Process ID: 43344
    Host:       node37.bme.utexas.edu
    PSIDATADIR: /home/bdw2292/miniconda3/envs/p4env/share/psi4
    Memory:     500.0 MiB
    Threads:    1
    
  ==> Input File <==

--------------------------------------------------------------------------
molecule { 
0 1
 O    0.689656    0.039448    0.006363
 C   -0.746420    0.016095    0.010808
 H   -1.091775   -0.807043   -0.620406
 H   -1.110158    0.981947   -0.350415
 H   -1.075392   -0.145488    1.041519
 H    0.971202   -0.844553   -0.293997
}
set optking { 
  frozen_dihedral = ("
  ")
}
memory 700MB
set_num_threads(1)
psi4_io.set_default_path("/scratch/bdw2292")
optimize('hf/6-311G*')
clean()
--------------------------------------------------------------------------

  Memory set to 667.572 MiB by Python driver.
  Threads set to 1 by Python driver.
gradient() will perform analytic gradient computation.

*** tstart() called on node37.bme.utexas.edu
*** at Sun Dec 29 12:32:07 2019

   => Loading Basis Set <=

    Name: 6-311G*
    Role: ORBITAL
    Keyword: BASIS
    atoms 1   entry O          line   152 file /home/bdw2292/miniconda3/envs/p4env/share/psi4/basis/6-311gs.gbs 
    atoms 2   entry C          line   114 file /home/bdw2292/miniconda3/envs/p4env/share/psi4/basis/6-311gs.gbs 
    atoms 3-6 entry H          line    37 file /home/bdw2292/miniconda3/envs/p4env/share/psi4/basis/6-311gs.gbs 


         ---------------------------------------------------------
                                   SCF
               by Justin Turney, Rob Parrish, Andy Simmonett
                          and Daniel G. A. Smith
                              RHF Reference
                        1 Threads,    667 MiB Core
         ---------------------------------------------------------

  ==> Geometry <==

    Molecular point group: c1
    Full point group: C1

    Geometry (in Angstrom), charge = 0, multiplicity = 1:

       Center              X                  Y                   Z               Mass       
    ------------   -----------------  -----------------  -----------------  -----------------
         O            0.697468963595     0.039367068843     0.006162373110    15.994914619570
         C           -0.738607036405     0.016014068843     0.010607373110    12.000000000000
         H           -1.083962036405    -0.807123931157    -0.620606626890     1.007825032230
         H           -1.102345036405     0.981866068843    -0.350615626890     1.007825032230
         H           -1.067579036405    -0.145568931157     1.041318373110     1.007825032230
         H            0.979014963595    -0.844633931157    -0.294197626890     1.007825032230

  Running in c1 symmetry.

  Rotational constants: A =      4.15099  B =      0.82289  C =      0.79012 [cm^-1]
  Rotational constants: A = 124443.43178  B =  24669.47656  C =  23687.23268 [MHz]
  Nuclear repulsion =   40.063446651397150

  Charge       = 0
  Multiplicity = 1
  Electrons    = 18
  Nalpha       = 9
  Nbeta        = 9

  ==> Algorithm <==

  SCF Algorithm Type is DF.
  DIIS enabled.
  MOM disabled.
  Fractional occupation disabled.
  Guess Type is SAD.
  Energy threshold   = 1.00e-08
  Density threshold  = 1.00e-08
  Integral threshold = 0.00e+00

  ==> Primary Basis <==

  Basis Set: 6-311G*
    Blend: 6-311G*
    Number of shells: 28
    Number of basis function: 48
    Number of Cartesian functions: 50
    Spherical Harmonics?: true
    Max angular momentum: 2

   => Loading Basis Set <=

    Name: (6-311G* AUX)
    Role: JKFIT
    Keyword: DF_BASIS_SCF
    atoms 1   entry O          line   229 file /home/bdw2292/miniconda3/envs/p4env/share/psi4/basis/cc-pvtz-jkfit.gbs 
    atoms 2   entry C          line   125 file /home/bdw2292/miniconda3/envs/p4env/share/psi4/basis/cc-pvtz-jkfit.gbs 
    atoms 3-6 entry H          line    51 file /home/bdw2292/miniconda3/envs/p4env/share/psi4/basis/cc-pvtz-jkfit.gbs 

  ==> Pre-Iterations <==

   -------------------------------------------------------
    Irrep   Nso     Nmo     Nalpha   Nbeta   Ndocc  Nsocc
   -------------------------------------------------------
     A         48      48       0       0       0       0
   -------------------------------------------------------
    Total      48      48       9       9       9       0
   -------------------------------------------------------

  ==> Integral Setup <==

  DFHelper Memory: AOs need 0.006 GiB; user supplied 0.489 GiB. Using in-core AOs.

  ==> MemDFJK: Density-Fitted J/K Matrices <==

    J tasked:                   Yes
    K tasked:                   Yes
    wK tasked:                   No
    OpenMP threads:               1
    Memory [MiB]:               500
    Algorithm:                 Core
    Schwarz Cutoff:           1E-12
    Mask sparsity (%):       0.0000
    Fitting Condition:        1E-10

   => Auxiliary Basis Set <=

  Basis Set: (6-311G* AUX)
    Blend: CC-PVTZ-JKFIT
    Number of shells: 90
    Number of basis function: 278
    Number of Cartesian functions: 332
    Spherical Harmonics?: true
    Max angular momentum: 4

  Minimum eigenvalue in the overlap matrix is 1.1405524212E-02.
  Using Symmetric Orthogonalization.

  SCF Guess: Superposition of Atomic Densities via on-the-fly atomic UHF.

  ==> Iterations <==

                           Total Energy        Delta E     RMS |[F,P]|

   @DF-RHF iter SAD:  -114.38072315953139   -1.14381e+02   0.00000e+00 
   @DF-RHF iter   1:  -114.98381789624750   -6.03095e-01   8.11323e-03 DIIS
   @DF-RHF iter   2:  -115.04210994265205   -5.82920e-02   4.49982e-03 DIIS
   @DF-RHF iter   3:  -115.05750209495260   -1.53922e-02   7.14739e-04 DIIS
   @DF-RHF iter   4:  -115.05834100579050   -8.38911e-04   1.94860e-04 DIIS
   @DF-RHF iter   5:  -115.05840192272794   -6.09169e-05   4.79476e-05 DIIS
   @DF-RHF iter   6:  -115.05840570249845   -3.77977e-06   1.04111e-05 DIIS
   @DF-RHF iter   7:  -115.05840601839333   -3.15895e-07   2.37020e-06 DIIS
   @DF-RHF iter   8:  -115.05840603705177   -1.86584e-08   4.42478e-07 DIIS
   @DF-RHF iter   9:  -115.05840603770811   -6.56343e-10   8.31044e-08 DIIS
   @DF-RHF iter  10:  -115.05840603773044   -2.23253e-11   2.30507e-08 DIIS
   @DF-RHF iter  11:  -115.05840603773227   -1.83320e-12   4.53856e-09 DIIS
  Energy and wave function converged.


  ==> Post-Iterations <==

    Orbital Energies [Eh]
    ---------------------

    Doubly Occupied:                                                      

       1A    -20.543265     2A    -11.271499     3A     -1.344109  
       4A     -0.920167     5A     -0.681144     6A     -0.616247  
       7A     -0.586877     8A     -0.501947     9A     -0.443914  

    Virtual:                                                              

      10A      0.148161    11A      0.186197    12A      0.228636  
      13A      0.232028    14A      0.335891    15A      0.461647  
      16A      0.467855    17A      0.588530    18A      0.678217  
      19A      0.724954    20A      0.787259    21A      0.791966  
      22A      0.946341    23A      1.073771    24A      1.075967  
      25A      1.200338    26A      1.550658    27A      1.568909  
      28A      1.685984    29A      1.768031    30A      1.778082  
      31A      1.965923    32A      2.378281    33A      2.630106  
      34A      2.698555    35A      2.714468    36A      3.165024  
      37A      3.187935    38A      3.311187    39A      3.368597  
      40A      3.561035    41A      3.575065    42A      3.733622  
      43A      4.257958    44A      5.377474    45A      5.527642  
      46A      5.864577    47A     24.534379    48A     51.521956  

    Final Occupation by Irrep:
              A 
    DOCC [     9 ]

  @DF-RHF Final Energy:  -115.05840603773227

   => Energetics <=

    Nuclear Repulsion Energy =             40.0634466513971503
    One-Electron Energy =                -236.4253686751566761
    Two-Electron Energy =                  81.3035159860272501
    Total Energy =                       -115.0584060377322686

Computation Completed


Properties will be evaluated at   0.000000,   0.000000,   0.000000 [a0]

Properties computed using the SCF density matrix

  Nuclear Dipole Moment: [e a0]
     X:    -2.1293      Y:    -0.7643      Z:    -0.2101

  Electronic Dipole Moment: [e a0]
     X:     1.6394      Y:     0.1226      Z:    -0.0144

  Dipole Moment: [e a0]
     X:    -0.4899      Y:    -0.6417      Z:    -0.2244     Total:     0.8380

  Dipole Moment: [D]
     X:    -1.2452      Y:    -1.6311      Z:    -0.5705     Total:     2.1299


*** tstop() called on node37.bme.utexas.edu at Sun Dec 29 12:32:09 2019
Module time:
	user time   =       0.94 seconds =       0.02 minutes
	system time =       0.01 seconds =       0.00 minutes
	total time  =          2 seconds =       0.03 minutes
Total time:
	user time   =       0.94 seconds =       0.02 minutes
	system time =       0.01 seconds =       0.00 minutes
	total time  =          2 seconds =       0.03 minutes

*** tstart() called on node37.bme.utexas.edu
*** at Sun Dec 29 12:32:09 2019


         ------------------------------------------------------------
                                   SCF GRAD                          
                          Rob Parrish, Justin Turney,                
                       Andy Simmonett, and Alex Sokolov              
         ------------------------------------------------------------

  ==> Geometry <==

    Molecular point group: c1
    Full point group: C1

    Geometry (in Angstrom), charge = 0, multiplicity = 1:

       Center              X                  Y                   Z               Mass       
    ------------   -----------------  -----------------  -----------------  -----------------
         O            0.697468963595     0.039367068843     0.006162373110    15.994914619570
         C           -0.738607036405     0.016014068843     0.010607373110    12.000000000000
         H           -1.083962036405    -0.807123931157    -0.620606626890     1.007825032230
         H           -1.102345036405     0.981866068843    -0.350615626890     1.007825032230
         H           -1.067579036405    -0.145568931157     1.041318373110     1.007825032230
         H            0.979014963595    -0.844633931157    -0.294197626890     1.007825032230

  Nuclear repulsion =   40.063446651397150

  ==> Basis Set <==

  Basis Set: 6-311G*
    Blend: 6-311G*
    Number of shells: 28
    Number of basis function: 48
    Number of Cartesian functions: 50
    Spherical Harmonics?: true
    Max angular momentum: 2

  ==> DFJKGrad: Density-Fitted SCF Gradients <==

    Gradient:                    1
    J tasked:                  Yes
    K tasked:                  Yes
    wK tasked:                  No
    OpenMP threads:              1
    Integrals threads:           1
    Memory [MiB]:              500
    Schwarz Cutoff:          0E+00
    Fitting Condition:       1E-10

   => Auxiliary Basis Set <=

  Basis Set: (6-311G* AUX)
    Blend: CC-PVTZ-JKFIT
    Number of shells: 90
    Number of basis function: 278
    Number of Cartesian functions: 332
    Spherical Harmonics?: true
    Max angular momentum: 4


  -Total Gradient:
     Atom            X                  Y                   Z
    ------   -----------------  -----------------  -----------------
       1        0.010805364824     0.037236111716     0.017572396679
       2       -0.022241496156    -0.000038633454    -0.007473060238
       3        0.004934153041    -0.009080142812    -0.002780911175
       4       -0.001509510607     0.009864238102    -0.001645555975
       5        0.003716770799    -0.001295961788     0.008377722039
       6        0.004294718096    -0.036685611762    -0.014050591330


*** tstop() called on node37.bme.utexas.edu at Sun Dec 29 12:32:09 2019
Module time:
	user time   =       0.46 seconds =       0.01 minutes
	system time =       0.01 seconds =       0.00 minutes
	total time  =          0 seconds =       0.00 minutes
Total time:
	user time   =       1.40 seconds =       0.02 minutes
	system time =       0.02 seconds =       0.00 minutes
	total time  =          2 seconds =       0.03 minutes

			-----------------------------------------
			 OPTKING 2.0: for geometry optimizations 
			  - R.A. King,  Bethel University        
			-----------------------------------------

	Internal coordinates to be generated automatically.
	Detected frag 1 with atoms:  1 2 3 4 5 6
	---Fragment 1 Bond Connectivity---
	 1 : 2 6
	 2 : 1 3 4 5
	 3 : 2
	 4 : 2
	 5 : 2
	 6 : 1

	Assuming in current code that numbering for constraints corresponds to unified fragment.
	---Fragment 1 Geometry and Gradient---
	 O           1.3180253222        0.0743929785        0.0116451975
	 C          -1.3957650131        0.0302622043        0.0200450301
	 H          -2.0483913792       -1.5252431792       -1.1727765565
	 H          -2.0831302146        1.8554579620       -0.6625675101
	 H          -2.0174319961       -0.2750854123        1.9678065346
	 H           1.8500701539       -1.5961268062       -0.5559529416
	             0.0108053648        0.0372361117        0.0175723967
	            -0.0222414962       -0.0000386335       -0.0074730602
	             0.0049341530       -0.0090801428       -0.0027809112
	            -0.0015095106        0.0098642381       -0.0016455560
	             0.0037167708       -0.0012959618        0.0083777220
	             0.0042947181       -0.0366856118       -0.0140505913

	Previous optimization step data not found.  Starting new optimization.

	---Fragment 1 Intrafragment Coordinates---
	 - Coordinate -           - BOHR/RAD -       - ANG/DEG -
	 R(1,2)           =         2.714162	       1.436273
	 R(1,6)           =         1.842790	       0.975163
	 R(2,3)           =         2.065996	       1.093278
	 R(2,4)           =         2.066342	       1.093461
	 R(2,5)           =         2.067240	       1.093936
	 B(1,2,3)         =         1.903184	     109.044424
	 B(1,2,4)         =         1.893591	     108.494789
	 B(1,2,5)         =         1.881784	     107.818310
	 B(2,1,6)         =         1.849273	     105.955531
	 B(3,2,4)         =         1.948979	     111.668292
	 B(3,2,5)         =         1.915358	     109.741927
	 B(4,2,5)         =         1.919511	     109.979894
	 D(3,2,1,6)       =        -0.333243	     -19.093433
	 D(4,2,1,6)       =        -2.459519	    -140.920075
	 D(5,2,1,6)       =         1.745403	     100.004215

	Current energy   :      -115.0584060377

	Generating empirical Hessian (Schlegel '84) for each fragment.
	Taking RFO optimization step.
	Going to follow RFO solution 1.
	Using RFO vector 1.
	Norm of target step-size    0.27329
	Projected energy change by RFO approximation:        -0.0018898046

	Back-transformation to cartesian coordinates...
	Successfully converged to displaced geometry.

	--- Internal Coordinate Step in ANG or DEG, aJ/ANG or AJ/DEG ---
	 ---------------------------------------------------------------------------
	   Coordinate                Previous        Force       Change         New 
	   ----------                --------       ------       ------       ------
	    1 R(1,2)          =      1.436273    -0.124372    -0.019572     1.416700
	    2 R(1,6)          =      0.975163    -0.319858    -0.038727     0.936436
	    3 R(2,3)          =      1.093278    -0.056711    -0.010363     1.082916
	    4 R(2,4)          =      1.093461    -0.080400    -0.014700     1.078761
	    5 R(2,5)          =      1.093936    -0.057401    -0.010511     1.083425
	    6 B(1,2,3)        =    109.044424     0.000722     3.316303   112.360727
	    7 B(1,2,4)        =    108.494789    -0.000131    -0.929734   107.565055
	    8 B(1,2,5)        =    107.818310     0.000666     3.287676   111.105986
	    9 B(2,1,6)        =    105.955531     0.001011     3.824910   109.780441
	   10 B(3,2,4)        =    111.668292    -0.000583    -3.178709   108.489582
	   11 B(3,2,5)        =    109.741927    -0.000340    -1.255222   108.486706
	   12 B(4,2,5)        =    109.979894    -0.000275    -1.238438   108.741456
	   13 D(3,2,1,6)      =    -19.093433    -0.000072    -8.970182   -28.063615
	   14 D(4,2,1,6)      =   -140.920075     0.000009    -6.477903  -147.397978
	   15 D(5,2,1,6)      =    100.004215     0.000015    -6.311775    93.692440
	 ---------------------------------------------------------------------------
	Successfully symmetrized geometry.

  ==> Convergence Check <==

  Measures of convergence in internal coordinates in au.
  Criteria marked as inactive (o), active & met (*), and active & unmet ( ).
  --------------------------------------------------------------------------------------------- ~
   Step     Total Energy     Delta E     MAX Force     RMS Force      MAX Disp      RMS Disp    ~
  --------------------------------------------------------------------------------------------- ~
    Convergence Criteria    1.00e-06 *    3.00e-04 *             o    1.20e-03 *             o  ~
  --------------------------------------------------------------------------------------------- ~
      1    -115.05840604   -1.15e+02      3.88e-02      1.26e-02 o    1.57e-01      6.98e-02 o  ~
  ---------------------------------------------------------------------------------------------

	Writing optimization data to binary file.
	Structure for next step:
	Cartesian Geometry (in Angstrom)
	    O     0.6917234158   0.0257412143  -0.0243676937
	    C    -0.7246826411   0.0049386315  -0.0043321995
	    H    -1.1335233551  -0.7959149072  -0.6078129872
	    H    -1.0697822245   0.9453600581  -0.4046314208
	    H    -1.0990352472  -0.1013500134   1.0067924376
	    H     1.0192908427  -0.8388545673  -0.1729798969
			--------------------------
			 OPTKING Finished Execution 
			--------------------------

    Structure for next step:
    Molecular point group: c1
    Full point group: C1

    Geometry (in Angstrom), charge = 0, multiplicity = 1:

    O            0.689632932355     0.035918971873    -0.004953122073
    C           -0.726773130154     0.015116388971     0.015082372270
    H           -1.135613845719    -0.785737152857    -0.588398417882
    H           -1.071872714881     0.955537819250    -0.385216850622
    H           -1.101125737696    -0.091172256296     1.026207013276
    H            1.017200360541    -0.828676813154    -0.153565325827

gradient() will perform analytic gradient computation.

*** tstart() called on node37.bme.utexas.edu
*** at Sun Dec 29 12:32:09 2019

   => Loading Basis Set <=

    Name: 6-311G*
    Role: ORBITAL
    Keyword: BASIS
    atoms 1   entry O          line   152 file /home/bdw2292/miniconda3/envs/p4env/share/psi4/basis/6-311gs.gbs 
    atoms 2   entry C          line   114 file /home/bdw2292/miniconda3/envs/p4env/share/psi4/basis/6-311gs.gbs 
    atoms 3-6 entry H          line    37 file /home/bdw2292/miniconda3/envs/p4env/share/psi4/basis/6-311gs.gbs 


         ---------------------------------------------------------
                                   SCF
               by Justin Turney, Rob Parrish, Andy Simmonett
                          and Daniel G. A. Smith
                              RHF Reference
                        1 Threads,    667 MiB Core
         ---------------------------------------------------------

  ==> Geometry <==

    Molecular point group: c1
    Full point group: C1

    Geometry (in Angstrom), charge = 0, multiplicity = 1:

       Center              X                  Y                   Z               Mass       
    ------------   -----------------  -----------------  -----------------  -----------------
         O            0.689632932355     0.035918971873    -0.004953122073    15.994914619570
         C           -0.726773130154     0.015116388971     0.015082372270    12.000000000000
         H           -1.135613845719    -0.785737152857    -0.588398417882     1.007825032230
         H           -1.071872714881     0.955537819250    -0.385216850622     1.007825032230
         H           -1.101125737696    -0.091172256296     1.026207013276     1.007825032230
         H            1.017200360541    -0.828676813154    -0.153565325827     1.007825032230

  Running in c1 symmetry.

  Rotational constants: A =      4.41236  B =      0.83212  C =      0.80419 [cm^-1]
  Rotational constants: A = 132279.17126  B =  24946.21155  C =  24108.96728 [MHz]
  Nuclear repulsion =   40.601714739027130

  Charge       = 0
  Multiplicity = 1
  Electrons    = 18
  Nalpha       = 9
  Nbeta        = 9

  ==> Algorithm <==

  SCF Algorithm Type is DF.
  DIIS enabled.
  MOM disabled.
  Fractional occupation disabled.
  Guess Type is READ.
  Energy threshold   = 1.00e-08
  Density threshold  = 1.00e-08
  Integral threshold = 0.00e+00

  ==> Primary Basis <==

  Basis Set: 6-311G*
    Blend: 6-311G*
    Number of shells: 28
    Number of basis function: 48
    Number of Cartesian functions: 50
    Spherical Harmonics?: true
    Max angular momentum: 2

   => Loading Basis Set <=

    Name: (6-311G* AUX)
    Role: JKFIT
    Keyword: DF_BASIS_SCF
    atoms 1   entry O          line   229 file /home/bdw2292/miniconda3/envs/p4env/share/psi4/basis/cc-pvtz-jkfit.gbs 
    atoms 2   entry C          line   125 file /home/bdw2292/miniconda3/envs/p4env/share/psi4/basis/cc-pvtz-jkfit.gbs 
    atoms 3-6 entry H          line    51 file /home/bdw2292/miniconda3/envs/p4env/share/psi4/basis/cc-pvtz-jkfit.gbs 

   => Loading Basis Set <=

    Name: 6-311G*
    Role: ORBITAL
    Keyword: BASIS
    atoms 1   entry O          line   152 file /home/bdw2292/miniconda3/envs/p4env/share/psi4/basis/6-311gs.gbs 
    atoms 2   entry C          line   114 file /home/bdw2292/miniconda3/envs/p4env/share/psi4/basis/6-311gs.gbs 
    atoms 3-6 entry H          line    37 file /home/bdw2292/miniconda3/envs/p4env/share/psi4/basis/6-311gs.gbs 

  Reading orbitals from file 180, no projection.

  ==> Pre-Iterations <==

   -------------------------------------------------------
    Irrep   Nso     Nmo     Nalpha   Nbeta   Ndocc  Nsocc
   -------------------------------------------------------
     A         48      48       0       0       0       0
   -------------------------------------------------------
    Total      48      48       9       9       9       0
   -------------------------------------------------------

  ==> Integral Setup <==

  DFHelper Memory: AOs need 0.006 GiB; user supplied 0.489 GiB. Using in-core AOs.

  ==> MemDFJK: Density-Fitted J/K Matrices <==

    J tasked:                   Yes
    K tasked:                   Yes
    wK tasked:                   No
    OpenMP threads:               1
    Memory [MiB]:               500
    Algorithm:                 Core
    Schwarz Cutoff:           1E-12
    Mask sparsity (%):       0.0000
    Fitting Condition:        1E-10

   => Auxiliary Basis Set <=

  Basis Set: (6-311G* AUX)
    Blend: CC-PVTZ-JKFIT
    Number of shells: 90
    Number of basis function: 278
    Number of Cartesian functions: 332
    Spherical Harmonics?: true
    Max angular momentum: 4

  Minimum eigenvalue in the overlap matrix is 1.0924723787E-02.
  Using Symmetric Orthogonalization.

  SCF Guess: Orbitals guess was supplied from a previous computation.

  ==> Iterations <==

                           Total Energy        Delta E     RMS |[F,P]|

   @DF-RHF iter   0:  -115.09654237119723   -1.15097e+02   2.44781e-03 
   @DF-RHF iter   1:  -115.06152433847342    3.50180e-02   5.36410e-04 DIIS
   @DF-RHF iter   2:  -115.06207412927428   -5.49791e-04   1.98233e-04 DIIS
   @DF-RHF iter   3:  -115.06218836989234   -1.14241e-04   6.99609e-05 DIIS
   @DF-RHF iter   4:  -115.06220493163538   -1.65617e-05   1.95640e-05 DIIS
   @DF-RHF iter   5:  -115.06220623999511   -1.30836e-06   6.35650e-06 DIIS
   @DF-RHF iter   6:  -115.06220637095700   -1.30962e-07   1.73300e-06 DIIS
   @DF-RHF iter   7:  -115.06220637739976   -6.44276e-09   5.67283e-07 DIIS
   @DF-RHF iter   8:  -115.06220637806371   -6.63945e-10   1.10462e-07 DIIS
   @DF-RHF iter   9:  -115.06220637809706   -3.33529e-11   1.81908e-08 DIIS
   @DF-RHF iter  10:  -115.06220637809793   -8.66862e-13   4.03674e-09 DIIS
  Energy and wave function converged.


  ==> Post-Iterations <==

    Orbital Energies [Eh]
    ---------------------

    Doubly Occupied:                                                      

       1A    -20.540333     2A    -11.265270     3A     -1.357867  
       4A     -0.929948     5A     -0.694068     6A     -0.619450  
       7A     -0.593543     8A     -0.500973     9A     -0.445415  

    Virtual:                                                              

      10A      0.153402    11A      0.188175    12A      0.229460  
      13A      0.233815    14A      0.343758    15A      0.464405  
      16A      0.474725    17A      0.610945    18A      0.689887  
      19A      0.739110    20A      0.792331    21A      0.800662  
      22A      0.946778    23A      1.069683    24A      1.079587  
      25A      1.191834    26A      1.544874    27A      1.587881  
      28A      1.680575    29A      1.768765    30A      1.775001  
      31A      1.986476    32A      2.369685    33A      2.620671  
      34A      2.720356    35A      2.725193    36A      3.160371  
      37A      3.227103    38A      3.348848    39A      3.396756  
      40A      3.554305    41A      3.573682    42A      3.824709  
      43A      4.271848    44A      5.382709    45A      5.549966  
      46A      5.915767    47A     24.554363    48A     51.525885  

    Final Occupation by Irrep:
              A 
    DOCC [     9 ]

  @DF-RHF Final Energy:  -115.06220637809793

   => Energetics <=

    Nuclear Repulsion Energy =             40.6017147390271305
    One-Electron Energy =                -237.4341093389429318
    Two-Electron Energy =                  81.7701882218178753
    Total Energy =                       -115.0622063780979261

Computation Completed


Properties will be evaluated at   0.000000,   0.000000,   0.000000 [a0]

Properties computed using the SCF density matrix

  Nuclear Dipole Moment: [e a0]
     X:    -2.1448      Y:    -0.7030      Z:    -0.0947

  Electronic Dipole Moment: [e a0]
     X:     1.7087      Y:     0.0494      Z:    -0.0238

  Dipole Moment: [e a0]
     X:    -0.4361      Y:    -0.6536      Z:    -0.1185     Total:     0.7946

  Dipole Moment: [D]
     X:    -1.1085      Y:    -1.6612      Z:    -0.3013     Total:     2.0197


*** tstop() called on node37.bme.utexas.edu at Sun Dec 29 12:32:10 2019
Module time:
	user time   =       0.47 seconds =       0.01 minutes
	system time =       0.02 seconds =       0.00 minutes
	total time  =          1 seconds =       0.02 minutes
Total time:
	user time   =       1.89 seconds =       0.03 minutes
	system time =       0.04 seconds =       0.00 minutes
	total time  =          3 seconds =       0.05 minutes

*** tstart() called on node37.bme.utexas.edu
*** at Sun Dec 29 12:32:10 2019


         ------------------------------------------------------------
                                   SCF GRAD                          
                          Rob Parrish, Justin Turney,                
                       Andy Simmonett, and Alex Sokolov              
         ------------------------------------------------------------

  ==> Geometry <==

    Molecular point group: c1
    Full point group: C1

    Geometry (in Angstrom), charge = 0, multiplicity = 1:

       Center              X                  Y                   Z               Mass       
    ------------   -----------------  -----------------  -----------------  -----------------
         O            0.689632932355     0.035918971873    -0.004953122073    15.994914619570
         C           -0.726773130154     0.015116388971     0.015082372270    12.000000000000
         H           -1.135613845719    -0.785737152857    -0.588398417882     1.007825032230
         H           -1.071872714881     0.955537819250    -0.385216850622     1.007825032230
         H           -1.101125737696    -0.091172256296     1.026207013276     1.007825032230
         H            1.017200360541    -0.828676813154    -0.153565325827     1.007825032230

  Nuclear repulsion =   40.601714739027130

  ==> Basis Set <==

  Basis Set: 6-311G*
    Blend: 6-311G*
    Number of shells: 28
    Number of basis function: 48
    Number of Cartesian functions: 50
    Spherical Harmonics?: true
    Max angular momentum: 2

  ==> DFJKGrad: Density-Fitted SCF Gradients <==

    Gradient:                    1
    J tasked:                  Yes
    K tasked:                  Yes
    wK tasked:                  No
    OpenMP threads:              1
    Integrals threads:           1
    Memory [MiB]:              500
    Schwarz Cutoff:          0E+00
    Fitting Condition:       1E-10

   => Auxiliary Basis Set <=

  Basis Set: (6-311G* AUX)
    Blend: CC-PVTZ-JKFIT
    Number of shells: 90
    Number of basis function: 278
    Number of Cartesian functions: 332
    Spherical Harmonics?: true
    Max angular momentum: 4


  -Total Gradient:
     Atom            X                  Y                   Z
    ------   -----------------  -----------------  -----------------
       1        0.012668556552    -0.000094128643     0.002166007490
       2       -0.011458661935    -0.002223872881    -0.001305524608
       3       -0.000470329289     0.001234700002     0.002114844942
       4        0.000943988817    -0.001363636052     0.000176389928
       5       -0.000169923105     0.000602677706    -0.001458536491
       6       -0.001513631041     0.001844259868    -0.001693181262


*** tstop() called on node37.bme.utexas.edu at Sun Dec 29 12:32:10 2019
Module time:
	user time   =       0.47 seconds =       0.01 minutes
	system time =       0.00 seconds =       0.00 minutes
	total time  =          0 seconds =       0.00 minutes
Total time:
	user time   =       2.37 seconds =       0.04 minutes
	system time =       0.04 seconds =       0.00 minutes
	total time  =          3 seconds =       0.05 minutes

			-----------------------------------------
			 OPTKING 2.0: for geometry optimizations 
			  - R.A. King,  Bethel University        
			-----------------------------------------

	Previous internal coordinate definitions found.
	---Fragment 1 Geometry and Gradient---
	 O           1.3032173692        0.0678770195       -0.0093600442
	 C          -1.3734021713        0.0285658352        0.0285015529
	 H          -2.1459991527       -1.4848280255       -1.1119118624
	 H          -2.0255458725        1.8057047809       -0.7279543466
	 H          -2.0808260739       -0.1722905946        1.9392502031
	 H           1.9222300961       -1.5659722234       -0.2901964082
	             0.0126685566       -0.0000941286        0.0021660075
	            -0.0114586619       -0.0022238729       -0.0013055246
	            -0.0004703293        0.0012347000        0.0021148449
	             0.0009439888       -0.0013636361        0.0001763899
	            -0.0001699231        0.0006026777       -0.0014585365
	            -0.0015136310        0.0018442599       -0.0016931813

	---Fragment 1 Intrafragment Coordinates---
	 - Coordinate -           - BOHR/RAD -       - ANG/DEG -
	 R(1,2)           =         2.677176	       1.416700
	 R(1,6)           =         1.769607	       0.936436
	 R(2,3)           =         2.046414	       1.082916
	 R(2,4)           =         2.038563	       1.078761
	 R(2,5)           =         2.047377	       1.083425
	 B(1,2,3)         =         1.961065	     112.360727
	 B(1,2,4)         =         1.877364	     107.565055
	 B(1,2,5)         =         1.939165	     111.105986
	 B(2,1,6)         =         1.916030	     109.780441
	 B(3,2,4)         =         1.893500	     108.489582
	 B(3,2,5)         =         1.893450	     108.486706
	 B(4,2,5)         =         1.897896	     108.741456
	 D(3,2,1,6)       =        -0.489802	     -28.063615
	 D(4,2,1,6)       =        -2.572580	    -147.397978
	 D(5,2,1,6)       =         1.635242	      93.692440

	Current energy   :      -115.0622063781

	Energy change for the previous step:
		Projected    :        -0.0018898046
		Actual       :        -0.0038003404
	Energy ratio indicates good step: Trust radius increased to 1.000e+00.


	Performing BFGS update.
	Previous computed or guess Hessian on step 1.
	Steps to be used in Hessian update: 1
	Taking RFO optimization step.
	Going to follow RFO solution 1.
	Using RFO vector 1.
	Norm of target step-size    0.86794
	Projected energy change by RFO approximation:         0.0034043252

	Back-transformation to cartesian coordinates...
	Could not converge backtransformation.
	Using first guess instead.

	--- Internal Coordinate Step in ANG or DEG, aJ/ANG or AJ/DEG ---
	 ---------------------------------------------------------------------------
	   Coordinate                Previous        Force       Change         New 
	   ----------                --------       ------       ------       ------
	    1 R(1,2)          =      1.416700    -0.092040    -0.011340     1.405361
	    2 R(1,6)          =      0.936436     0.016177     0.065201     1.001636
	    3 R(2,3)          =      1.082916     0.015770     0.003103     1.086019
	    4 R(2,4)          =      1.078761     0.012821     0.005330     1.084091
	    5 R(2,5)          =      1.083425     0.011218     0.006806     1.090231
	    6 B(1,2,3)        =    112.360727    -0.000152    -0.669273   111.691454
	    7 B(1,2,4)        =    107.565055     0.000090     0.558664   108.123720
	    8 B(1,2,5)        =    111.105986    -0.000049     0.148269   111.254255
	    9 B(2,1,6)        =    109.780441     0.000114    -2.516359   107.264083
	   10 B(3,2,4)        =    108.489582     0.000012    -0.459206   108.030377
	   11 B(3,2,5)        =    108.486706     0.000083     0.371891   108.858596
	   12 B(4,2,5)        =    108.741456     0.000021     0.045823   108.787279
	   13 D(3,2,1,6)      =    -28.063615    -0.000018   -27.577322   -55.640937
	   14 D(4,2,1,6)      =   -147.397978    -0.000014   -26.973703  -174.371681
	   15 D(5,2,1,6)      =     93.692440    -0.000026   -27.464584    66.227856
	 ---------------------------------------------------------------------------
	Successfully symmetrized geometry.

  ==> Convergence Check <==

  Measures of convergence in internal coordinates in au.
  Criteria marked as inactive (o), active & met (*), and active & unmet ( ).
  ---------------------------------------------------------------------------------------------
   Step     Total Energy     Delta E     MAX Force     RMS Force      MAX Disp      RMS Disp   
  ---------------------------------------------------------------------------------------------
    Convergence Criteria    1.00e-06 *    3.00e-04 *             o    1.20e-03 *             o
  ---------------------------------------------------------------------------------------------
      2    -115.06220638   -3.80e-03      1.12e-02      3.16e-03 o    4.81e-01      2.16e-01 o  ~
  ---------------------------------------------------------------------------------------------

	Writing optimization data to binary file.
	Structure for next step:
	Cartesian Geometry (in Angstrom)
	    O     0.6748235557   0.0573372819  -0.1618054522
	    C    -0.7227929297   0.0221900561  -0.0187265388
	    H    -1.1704654088  -0.7491434068  -0.6384609292
	    H    -1.1185515549   0.9799885750  -0.3369259294
	    H    -1.0096523451  -0.1489754302   1.0190681548
	    H     1.0180865563  -0.8604101155   0.0460063643
			--------------------------
			 OPTKING Finished Execution 
			--------------------------

    Structure for next step:
    Molecular point group: c1
    Full point group: C1

    Geometry (in Angstrom), charge = 0, multiplicity = 1:

    O            0.680387699740     0.044886446932    -0.076800296254
    C           -0.717228791187     0.009739220953     0.066278617742
    H           -1.164901272013    -0.761594244955    -0.553455775081
    H           -1.112987417973     0.967537743670    -0.251920774148
    H           -1.004088207725    -0.161426266020     1.104073315375
    H            1.023650701673    -0.872860954065     0.131011521087

gradient() will perform analytic gradient computation.

*** tstart() called on node37.bme.utexas.edu
*** at Sun Dec 29 12:32:10 2019

   => Loading Basis Set <=

    Name: 6-311G*
    Role: ORBITAL
    Keyword: BASIS
    atoms 1   entry O          line   152 file /home/bdw2292/miniconda3/envs/p4env/share/psi4/basis/6-311gs.gbs 
    atoms 2   entry C          line   114 file /home/bdw2292/miniconda3/envs/p4env/share/psi4/basis/6-311gs.gbs 
    atoms 3-6 entry H          line    37 file /home/bdw2292/miniconda3/envs/p4env/share/psi4/basis/6-311gs.gbs 


         ---------------------------------------------------------
                                   SCF
               by Justin Turney, Rob Parrish, Andy Simmonett
                          and Daniel G. A. Smith
                              RHF Reference
                        1 Threads,    667 MiB Core
         ---------------------------------------------------------

  ==> Geometry <==

    Molecular point group: c1
    Full point group: C1

    Geometry (in Angstrom), charge = 0, multiplicity = 1:

       Center              X                  Y                   Z               Mass       
    ------------   -----------------  -----------------  -----------------  -----------------
         O            0.680387699740     0.044886446932    -0.076800296254    15.994914619570
         C           -0.717228791187     0.009739220953     0.066278617742    12.000000000000
         H           -1.164901272013    -0.761594244955    -0.553455775081     1.007825032230
         H           -1.112987417973     0.967537743670    -0.251920774148     1.007825032230
         H           -1.004088207725    -0.161426266020     1.104073315375     1.007825032230
         H            1.023650701673    -0.872860954065     0.131011521087     1.007825032230

  Running in c1 symmetry.

  Rotational constants: A =      4.23825  B =      0.84330  C =      0.81024 [cm^-1]
  Rotational constants: A = 127059.40928  B =  25281.35285  C =  24290.35980 [MHz]
  Nuclear repulsion =   40.415865365656707

  Charge       = 0
  Multiplicity = 1
  Electrons    = 18
  Nalpha       = 9
  Nbeta        = 9

  ==> Algorithm <==

  SCF Algorithm Type is DF.
  DIIS enabled.
  MOM disabled.
  Fractional occupation disabled.
  Guess Type is READ.
  Energy threshold   = 1.00e-08
  Density threshold  = 1.00e-08
  Integral threshold = 0.00e+00

  ==> Primary Basis <==

  Basis Set: 6-311G*
    Blend: 6-311G*
    Number of shells: 28
    Number of basis function: 48
    Number of Cartesian functions: 50
    Spherical Harmonics?: true
    Max angular momentum: 2

   => Loading Basis Set <=

    Name: (6-311G* AUX)
    Role: JKFIT
    Keyword: DF_BASIS_SCF
    atoms 1   entry O          line   229 file /home/bdw2292/miniconda3/envs/p4env/share/psi4/basis/cc-pvtz-jkfit.gbs 
    atoms 2   entry C          line   125 file /home/bdw2292/miniconda3/envs/p4env/share/psi4/basis/cc-pvtz-jkfit.gbs 
    atoms 3-6 entry H          line    51 file /home/bdw2292/miniconda3/envs/p4env/share/psi4/basis/cc-pvtz-jkfit.gbs 

   => Loading Basis Set <=

    Name: 6-311G*
    Role: ORBITAL
    Keyword: BASIS
    atoms 1   entry O          line   152 file /home/bdw2292/miniconda3/envs/p4env/share/psi4/basis/6-311gs.gbs 
    atoms 2   entry C          line   114 file /home/bdw2292/miniconda3/envs/p4env/share/psi4/basis/6-311gs.gbs 
    atoms 3-6 entry H          line    37 file /home/bdw2292/miniconda3/envs/p4env/share/psi4/basis/6-311gs.gbs 

  Reading orbitals from file 180, no projection.

  ==> Pre-Iterations <==

   -------------------------------------------------------
    Irrep   Nso     Nmo     Nalpha   Nbeta   Ndocc  Nsocc
   -------------------------------------------------------
     A         48      48       0       0       0       0
   -------------------------------------------------------
    Total      48      48       9       9       9       0
   -------------------------------------------------------

  ==> Integral Setup <==

  DFHelper Memory: AOs need 0.006 GiB; user supplied 0.489 GiB. Using in-core AOs.

  ==> MemDFJK: Density-Fitted J/K Matrices <==

    J tasked:                   Yes
    K tasked:                   Yes
    wK tasked:                   No
    OpenMP threads:               1
    Memory [MiB]:               500
    Algorithm:                 Core
    Schwarz Cutoff:           1E-12
    Mask sparsity (%):       0.0000
    Fitting Condition:        1E-10

   => Auxiliary Basis Set <=

  Basis Set: (6-311G* AUX)
    Blend: CC-PVTZ-JKFIT
    Number of shells: 90
    Number of basis function: 278
    Number of Cartesian functions: 332
    Spherical Harmonics?: true
    Max angular momentum: 4

  Minimum eigenvalue in the overlap matrix is 1.0956543584E-02.
  Using Symmetric Orthogonalization.

  SCF Guess: Orbitals guess was supplied from a previous computation.

  ==> Iterations <==

                           Total Energy        Delta E     RMS |[F,P]|

   @DF-RHF iter   0:  -114.99253837189642   -1.14993e+02   5.23337e-03 
   @DF-RHF iter   1:  -115.05582282285351   -6.32845e-02   1.21088e-03 DIIS
   @DF-RHF iter   2:  -115.05879514650141   -2.97232e-03   5.44096e-04 DIIS
   @DF-RHF iter   3:  -115.05942924412685   -6.34098e-04   2.87245e-04 DIIS
   @DF-RHF iter   4:  -115.05962088670550   -1.91643e-04   7.05520e-05 DIIS
   @DF-RHF iter   5:  -115.05964042794079   -1.95412e-05   2.24905e-05 DIIS
   @DF-RHF iter   6:  -115.05964246658320   -2.03864e-06   6.12513e-06 DIIS
   @DF-RHF iter   7:  -115.05964257665232   -1.10069e-07   1.52291e-06 DIIS
   @DF-RHF iter   8:  -115.05964258444546   -7.79313e-09   3.41030e-07 DIIS
   @DF-RHF iter   9:  -115.05964258481045   -3.64992e-10   5.86416e-08 DIIS
   @DF-RHF iter  10:  -115.05964258482241   -1.19655e-11   1.37873e-08 DIIS
   @DF-RHF iter  11:  -115.05964258482311   -6.96332e-13   2.44465e-09 DIIS
  Energy and wave function converged.


  ==> Post-Iterations <==

    Orbital Energies [Eh]
    ---------------------

    Doubly Occupied:                                                      

       1A    -20.549228     2A    -11.265835     3A     -1.350123  
       4A     -0.920769     5A     -0.682745     6A     -0.621431  
       7A     -0.593294     8A     -0.496952     9A     -0.444830  

    Virtual:                                                              

      10A      0.149764    11A      0.185263    12A      0.226753  
      13A      0.233982    14A      0.343153    15A      0.463437  
      16A      0.481991    17A      0.560278    18A      0.694698  
      19A      0.736692    20A      0.790723    21A      0.800995  
      22A      0.945940    23A      1.065688    24A      1.079154  
      25A      1.179689    26A      1.547074    27A      1.593934  
      28A      1.687983    29A      1.765364    30A      1.770741  
      31A      1.996459    32A      2.381509    33A      2.618934  
      34A      2.706416    35A      2.720244    36A      3.170532  
      37A      3.245177    38A      3.383093    39A      3.412364  
      40A      3.515991    41A      3.577168    42A      3.710069  
      43A      4.269394    44A      5.382974    45A      5.500445  
      46A      5.897321    47A     24.561587    48A     51.518491  

    Final Occupation by Irrep:
              A 
    DOCC [     9 ]

  @DF-RHF Final Energy:  -115.05964258482311

   => Energetics <=

    Nuclear Repulsion Energy =             40.4158653656567068
    One-Electron Energy =                -237.1006026685429333
    Two-Electron Energy =                  81.6250947180631101
    Total Energy =                       -115.0596425848231092

Computation Completed


Properties will be evaluated at   0.000000,   0.000000,   0.000000 [a0]

Properties computed using the SCF density matrix

  Nuclear Dipole Moment: [e a0]
     X:    -2.1138      Y:    -0.7763      Z:     0.4025

  Electronic Dipole Moment: [e a0]
     X:     1.7037      Y:     0.1346      Z:    -0.2028

  Dipole Moment: [e a0]
     X:    -0.4101      Y:    -0.6417      Z:     0.1997     Total:     0.7873

  Dipole Moment: [D]
     X:    -1.0424      Y:    -1.6311      Z:     0.5075     Total:     2.0012


*** tstop() called on node37.bme.utexas.edu at Sun Dec 29 12:32:11 2019
Module time:
	user time   =       0.48 seconds =       0.01 minutes
	system time =       0.01 seconds =       0.00 minutes
	total time  =          1 seconds =       0.02 minutes
Total time:
	user time   =       2.86 seconds =       0.05 minutes
	system time =       0.06 seconds =       0.00 minutes
	total time  =          4 seconds =       0.07 minutes

*** tstart() called on node37.bme.utexas.edu
*** at Sun Dec 29 12:32:11 2019


         ------------------------------------------------------------
                                   SCF GRAD                          
                          Rob Parrish, Justin Turney,                
                       Andy Simmonett, and Alex Sokolov              
         ------------------------------------------------------------

  ==> Geometry <==

    Molecular point group: c1
    Full point group: C1

    Geometry (in Angstrom), charge = 0, multiplicity = 1:

       Center              X                  Y                   Z               Mass       
    ------------   -----------------  -----------------  -----------------  -----------------
         O            0.680387699740     0.044886446932    -0.076800296254    15.994914619570
         C           -0.717228791187     0.009739220953     0.066278617742    12.000000000000
         H           -1.164901272013    -0.761594244955    -0.553455775081     1.007825032230
         H           -1.112987417973     0.967537743670    -0.251920774148     1.007825032230
         H           -1.004088207725    -0.161426266020     1.104073315375     1.007825032230
         H            1.023650701673    -0.872860954065     0.131011521087     1.007825032230

  Nuclear repulsion =   40.415865365656707

  ==> Basis Set <==

  Basis Set: 6-311G*
    Blend: 6-311G*
    Number of shells: 28
    Number of basis function: 48
    Number of Cartesian functions: 50
    Spherical Harmonics?: true
    Max angular momentum: 2

  ==> DFJKGrad: Density-Fitted SCF Gradients <==

    Gradient:                    1
    J tasked:                  Yes
    K tasked:                  Yes
    wK tasked:                  No
    OpenMP threads:              1
    Integrals threads:           1
    Memory [MiB]:              500
    Schwarz Cutoff:          0E+00
    Fitting Condition:       1E-10

   => Auxiliary Basis Set <=

  Basis Set: (6-311G* AUX)
    Blend: CC-PVTZ-JKFIT
    Number of shells: 90
    Number of basis function: 278
    Number of Cartesian functions: 332
    Spherical Harmonics?: true
    Max angular momentum: 4


  -Total Gradient:
     Atom            X                  Y                   Z
    ------   -----------------  -----------------  -----------------
       1       -0.013200313052     0.056277600611    -0.012189540989
       2       -0.002034374639    -0.001888328282    -0.001517354976
       3        0.000468735423     0.000401483376     0.000209080836
       4       -0.002590058597     0.001364582876    -0.001314297458
       5        0.000585956309    -0.000797511075     0.002495547378
       6        0.016770054555    -0.055357827507     0.012316565208


*** tstop() called on node37.bme.utexas.edu at Sun Dec 29 12:32:11 2019
Module time:
	user time   =       0.47 seconds =       0.01 minutes
	system time =       0.00 seconds =       0.00 minutes
	total time  =          0 seconds =       0.00 minutes
Total time:
	user time   =       3.33 seconds =       0.06 minutes
	system time =       0.06 seconds =       0.00 minutes
	total time  =          4 seconds =       0.07 minutes

			-----------------------------------------
			 OPTKING 2.0: for geometry optimizations 
			  - R.A. King,  Bethel University        
			-----------------------------------------

	Previous internal coordinate definitions found.
	---Fragment 1 Geometry and Gradient---
	 O           1.2857464116        0.0848230914       -0.1451315263
	 C          -1.3553659846        0.0184044603        0.1252484355
	 H          -2.2013443673       -1.4392045417       -1.0458798375
	 H          -2.1032414010        1.8283813516       -0.4760612685
	 H          -1.8974517184       -0.3050514322        2.0863961885
	 H           1.9344194743       -1.6494681488        0.2475758941
	            -0.0132003131        0.0562776006       -0.0121895410
	            -0.0020343746       -0.0018883283       -0.0015173550
	             0.0004687354        0.0004014834        0.0002090808
	            -0.0025900586        0.0013645829       -0.0013142975
	             0.0005859563       -0.0007975111        0.0024955474
	             0.0167700546       -0.0553578275        0.0123165652

	---Fragment 1 Intrafragment Coordinates---
	 - Coordinate -           - BOHR/RAD -       - ANG/DEG -
	 R(1,2)           =         2.655747	       1.405361
	 R(1,6)           =         1.892819	       1.001636
	 R(2,3)           =         2.052278	       1.086019
	 R(2,4)           =         2.048635	       1.084091
	 R(2,5)           =         2.060238	       1.090231
	 B(1,2,3)         =         1.949384	     111.691454
	 B(1,2,4)         =         1.887115	     108.123720
	 B(1,2,5)         =         1.941753	     111.254255
	 B(2,1,6)         =         1.872111	     107.264083
	 B(3,2,4)         =         1.885486	     108.030377
	 B(3,2,5)         =         1.899941	     108.858596
	 B(4,2,5)         =         1.898696	     108.787279
	 D(3,2,1,6)       =        -0.971118	     -55.640937
	 D(4,2,1,6)       =        -3.043360	    -174.371681
	 D(5,2,1,6)       =         1.155894	      66.227856

	Current energy   :      -115.0596425848

	Energy change for the previous step:
		Projected    :         0.0034043252
		Actual       :         0.0025637933

	Performing BFGS update.
	Previous computed or guess Hessian on step 1.
	Change in internal coordinate of 6.38e-01 exceeds limit of 5.00e-01.
	 Skipping Hessian update for step 1.
	Steps to be used in Hessian update: 2
	Taking RFO optimization step.
	Going to follow RFO solution 1.
	Using RFO vector 1.
	Norm of target step-size    0.24494
	Projected energy change by RFO approximation:        -0.0159323981

	Back-transformation to cartesian coordinates...
	Successfully converged to displaced geometry.

	--- Internal Coordinate Step in ANG or DEG, aJ/ANG or AJ/DEG ---
	 ---------------------------------------------------------------------------
	   Coordinate                Previous        Force       Change         New 
	   ----------                --------       ------       ------       ------
	    1 R(1,2)          =      1.405361    -0.029331    -0.005533     1.399827
	    2 R(1,6)          =      1.001636    -0.486282    -0.071168     0.930468
	    3 R(2,3)          =      1.086019     0.004924    -0.001197     1.084821
	    4 R(2,4)          =      1.084091    -0.020901    -0.004763     1.079328
	    5 R(2,5)          =      1.090231    -0.019333    -0.006004     1.084227
	    6 B(1,2,3)        =    111.691454     0.000062     0.309722   112.001176
	    7 B(1,2,4)        =    108.123720    -0.000244    -0.344922   107.778798
	    8 B(1,2,5)        =    111.254255     0.000163     0.046254   111.300509
	    9 B(2,1,6)        =    107.264083     0.000525     3.277850   110.541932
	   10 B(3,2,4)        =    108.030377     0.000078     0.168284   108.198660
	   11 B(3,2,5)        =    108.858596    -0.000027    -0.180583   108.678014
	   12 B(4,2,5)        =    108.787279    -0.000036    -0.000253   108.787026
	   13 D(3,2,1,6)      =    -55.640937    -0.000017    -6.394567   -62.035505
	   14 D(4,2,1,6)      =   -174.371681    -0.000012    -6.564838  -180.936519
	   15 D(5,2,1,6)      =     66.227856     0.000011    -6.375062    59.852794
	 ---------------------------------------------------------------------------
	Successfully symmetrized geometry.

  ==> Convergence Check <==

  Measures of convergence in internal coordinates in au.
  Criteria marked as inactive (o), active & met (*), and active & unmet ( ).
  ---------------------------------------------------------------------------------------------
   Step     Total Energy     Delta E     MAX Force     RMS Force      MAX Disp      RMS Disp   
  ---------------------------------------------------------------------------------------------
    Convergence Criteria    1.00e-06 *    3.00e-04 *             o    1.20e-03 *             o
  ---------------------------------------------------------------------------------------------
      3    -115.05964258    2.56e-03      5.90e-02      1.54e-02 o    1.34e-01      6.31e-02 o  ~
  ---------------------------------------------------------------------------------------------

	Writing optimization data to binary file.
	Structure for next step:
	Cartesian Geometry (in Angstrom)
	    O     0.6757695230   0.0109462392  -0.0641089891
	    C    -0.7191502938  -0.0029609105   0.0521735705
	    H    -1.1735306015  -0.7455859979  -0.5950387124
	    H    -1.0841000321   0.9692302784  -0.2421152774
	    H    -1.0273264022  -0.1971784538   1.0733764509
	    H     1.0331705281  -0.8081692058   0.1948995646
			--------------------------
			 OPTKING Finished Execution 
			--------------------------

    Structure for next step:
    Molecular point group: c1
    Full point group: C1

    Geometry (in Angstrom), charge = 0, multiplicity = 1:

    O            0.678590168501     0.031188000716    -0.065206859013
    C           -0.716329653824     0.017280850990     0.051075701116
    H           -1.170709963360    -0.725344239276    -0.596136584360
    H           -1.081279393542     0.989472043680    -0.243213147979
    H           -1.024505763459    -0.176936693023     1.072278585448
    H            1.035991174984    -0.787927447456     0.193801695728

gradient() will perform analytic gradient computation.

*** tstart() called on node37.bme.utexas.edu
*** at Sun Dec 29 12:32:11 2019

   => Loading Basis Set <=

    Name: 6-311G*
    Role: ORBITAL
    Keyword: BASIS
    atoms 1   entry O          line   152 file /home/bdw2292/miniconda3/envs/p4env/share/psi4/basis/6-311gs.gbs 
    atoms 2   entry C          line   114 file /home/bdw2292/miniconda3/envs/p4env/share/psi4/basis/6-311gs.gbs 
    atoms 3-6 entry H          line    37 file /home/bdw2292/miniconda3/envs/p4env/share/psi4/basis/6-311gs.gbs 


         ---------------------------------------------------------
                                   SCF
               by Justin Turney, Rob Parrish, Andy Simmonett
                          and Daniel G. A. Smith
                              RHF Reference
                        1 Threads,    667 MiB Core
         ---------------------------------------------------------

  ==> Geometry <==

    Molecular point group: c1
    Full point group: C1

    Geometry (in Angstrom), charge = 0, multiplicity = 1:

       Center              X                  Y                   Z               Mass       
    ------------   -----------------  -----------------  -----------------  -----------------
         O            0.678590168501     0.031188000716    -0.065206859013    15.994914619570
         C           -0.716329653824     0.017280850990     0.051075701116    12.000000000000
         H           -1.170709963360    -0.725344239276    -0.596136584360     1.007825032230
         H           -1.081279393542     0.989472043680    -0.243213147979     1.007825032230
         H           -1.024505763459    -0.176936693023     1.072278585448     1.007825032230
         H            1.035991174984    -0.787927447456     0.193801695728     1.007825032230

  Running in c1 symmetry.

  Rotational constants: A =      4.42539  B =      0.84778  C =      0.81974 [cm^-1]
  Rotational constants: A = 132669.94246  B =  25415.79812  C =  24575.33311 [MHz]
  Nuclear repulsion =   40.888266294586984

  Charge       = 0
  Multiplicity = 1
  Electrons    = 18
  Nalpha       = 9
  Nbeta        = 9

  ==> Algorithm <==

  SCF Algorithm Type is DF.
  DIIS enabled.
  MOM disabled.
  Fractional occupation disabled.
  Guess Type is READ.
  Energy threshold   = 1.00e-08
  Density threshold  = 1.00e-08
  Integral threshold = 0.00e+00

  ==> Primary Basis <==

  Basis Set: 6-311G*
    Blend: 6-311G*
    Number of shells: 28
    Number of basis function: 48
    Number of Cartesian functions: 50
    Spherical Harmonics?: true
    Max angular momentum: 2

   => Loading Basis Set <=

    Name: (6-311G* AUX)
    Role: JKFIT
    Keyword: DF_BASIS_SCF
    atoms 1   entry O          line   229 file /home/bdw2292/miniconda3/envs/p4env/share/psi4/basis/cc-pvtz-jkfit.gbs 
    atoms 2   entry C          line   125 file /home/bdw2292/miniconda3/envs/p4env/share/psi4/basis/cc-pvtz-jkfit.gbs 
    atoms 3-6 entry H          line    51 file /home/bdw2292/miniconda3/envs/p4env/share/psi4/basis/cc-pvtz-jkfit.gbs 

   => Loading Basis Set <=

    Name: 6-311G*
    Role: ORBITAL
    Keyword: BASIS
    atoms 1   entry O          line   152 file /home/bdw2292/miniconda3/envs/p4env/share/psi4/basis/6-311gs.gbs 
    atoms 2   entry C          line   114 file /home/bdw2292/miniconda3/envs/p4env/share/psi4/basis/6-311gs.gbs 
    atoms 3-6 entry H          line    37 file /home/bdw2292/miniconda3/envs/p4env/share/psi4/basis/6-311gs.gbs 

  Reading orbitals from file 180, no projection.

  ==> Pre-Iterations <==

   -------------------------------------------------------
    Irrep   Nso     Nmo     Nalpha   Nbeta   Ndocc  Nsocc
   -------------------------------------------------------
     A         48      48       0       0       0       0
   -------------------------------------------------------
    Total      48      48       9       9       9       0
   -------------------------------------------------------

  ==> Integral Setup <==

  DFHelper Memory: AOs need 0.006 GiB; user supplied 0.489 GiB. Using in-core AOs.

  ==> MemDFJK: Density-Fitted J/K Matrices <==

    J tasked:                   Yes
    K tasked:                   Yes
    wK tasked:                   No
    OpenMP threads:               1
    Memory [MiB]:               500
    Algorithm:                 Core
    Schwarz Cutoff:           1E-12
    Mask sparsity (%):       0.0000
    Fitting Condition:        1E-10

   => Auxiliary Basis Set <=

  Basis Set: (6-311G* AUX)
    Blend: CC-PVTZ-JKFIT
    Number of shells: 90
    Number of basis function: 278
    Number of Cartesian functions: 332
    Spherical Harmonics?: true
    Max angular momentum: 4

  Minimum eigenvalue in the overlap matrix is 1.0664395695E-02.
  Using Symmetric Orthogonalization.

  SCF Guess: Orbitals guess was supplied from a previous computation.

  ==> Iterations <==

                           Total Energy        Delta E     RMS |[F,P]|

   @DF-RHF iter   0:  -115.10498803042762   -1.15105e+02   2.91151e-03 
   @DF-RHF iter   1:  -115.06315115586737    4.18369e-02   5.14255e-04 DIIS
   @DF-RHF iter   2:  -115.06351802897483   -3.66873e-04   1.51614e-04 DIIS
   @DF-RHF iter   3:  -115.06356676376659   -4.87348e-05   6.60492e-05 DIIS
   @DF-RHF iter   4:  -115.06357828926487   -1.15255e-05   2.64005e-05 DIIS
   @DF-RHF iter   5:  -115.06357954550825   -1.25624e-06   6.43695e-06 DIIS
   @DF-RHF iter   6:  -115.06357970910587   -1.63598e-07   1.28282e-06 DIIS
   @DF-RHF iter   7:  -115.06357971591835   -6.81248e-09   2.44933e-07 DIIS
   @DF-RHF iter   8:  -115.06357971612466   -2.06313e-10   5.36320e-08 DIIS
   @DF-RHF iter   9:  -115.06357971613436   -9.69180e-12   1.02083e-08 DIIS
   @DF-RHF iter  10:  -115.06357971613446   -9.94760e-14   2.72539e-09 DIIS
  Energy and wave function converged.


  ==> Post-Iterations <==

    Orbital Energies [Eh]
    ---------------------

    Doubly Occupied:                                                      

       1A    -20.540041     2A    -11.264340     3A     -1.365151  
       4A     -0.930179     5A     -0.698030     6A     -0.622554  
       7A     -0.598121     8A     -0.498175     9A     -0.444995  

    Virtual:                                                              

      10A      0.155207    11A      0.189571    12A      0.227436  
      13A      0.234248    14A      0.345813    15A      0.462506  
      16A      0.483355    17A      0.601620    18A      0.699390  
      19A      0.738594    20A      0.792167    21A      0.806874  
      22A      0.946245    23A      1.065695    24A      1.079568  
      25A      1.175565    26A      1.547111    27A      1.601517  
      28A      1.698168    29A      1.764739    30A      1.770378  
      31A      2.000965    32A      2.368926    33A      2.620956  
      34A      2.709446    35A      2.725429    36A      3.164602  
      37A      3.254729    38A      3.380692    39A      3.419532  
      40A      3.515018    41A      3.580788    42A      3.846823  
      43A      4.274599    44A      5.386132    45A      5.548632  
      46A      5.937849    47A     24.567538    48A     51.528898  

    Final Occupation by Irrep:
              A 
    DOCC [     9 ]

  @DF-RHF Final Energy:  -115.06357971613446

   => Energetics <=

    Nuclear Repulsion Energy =             40.8882662945869839
    One-Electron Energy =                -237.9805209100288721
    Two-Electron Energy =                  82.0286748993074468
    Total Energy =                       -115.0635797161344556

Computation Completed


Properties will be evaluated at   0.000000,   0.000000,   0.000000 [a0]

Properties computed using the SCF density matrix

  Nuclear Dipole Moment: [e a0]
     X:    -2.0971      Y:    -0.6568      Z:     0.3997

  Electronic Dipole Moment: [e a0]
     X:     1.7066      Y:     0.0565      Z:    -0.1573

  Dipole Moment: [e a0]
     X:    -0.3906      Y:    -0.6003      Z:     0.2424     Total:     0.7561

  Dipole Moment: [D]
     X:    -0.9927      Y:    -1.5259      Z:     0.6161     Total:     1.9218


*** tstop() called on node37.bme.utexas.edu at Sun Dec 29 12:32:12 2019
Module time:
	user time   =       0.47 seconds =       0.01 minutes
	system time =       0.02 seconds =       0.00 minutes
	total time  =          1 seconds =       0.02 minutes
Total time:
	user time   =       3.81 seconds =       0.06 minutes
	system time =       0.08 seconds =       0.00 minutes
	total time  =          5 seconds =       0.08 minutes

*** tstart() called on node37.bme.utexas.edu
*** at Sun Dec 29 12:32:12 2019


         ------------------------------------------------------------
                                   SCF GRAD                          
                          Rob Parrish, Justin Turney,                
                       Andy Simmonett, and Alex Sokolov              
         ------------------------------------------------------------

  ==> Geometry <==

    Molecular point group: c1
    Full point group: C1

    Geometry (in Angstrom), charge = 0, multiplicity = 1:

       Center              X                  Y                   Z               Mass       
    ------------   -----------------  -----------------  -----------------  -----------------
         O            0.678590168501     0.031188000716    -0.065206859013    15.994914619570
         C           -0.716329653824     0.017280850990     0.051075701116    12.000000000000
         H           -1.170709963360    -0.725344239276    -0.596136584360     1.007825032230
         H           -1.081279393542     0.989472043680    -0.243213147979     1.007825032230
         H           -1.024505763459    -0.176936693023     1.072278585448     1.007825032230
         H            1.035991174984    -0.787927447456     0.193801695728     1.007825032230

  Nuclear repulsion =   40.888266294586984

  ==> Basis Set <==

  Basis Set: 6-311G*
    Blend: 6-311G*
    Number of shells: 28
    Number of basis function: 48
    Number of Cartesian functions: 50
    Spherical Harmonics?: true
    Max angular momentum: 2

  ==> DFJKGrad: Density-Fitted SCF Gradients <==

    Gradient:                    1
    J tasked:                  Yes
    K tasked:                  Yes
    wK tasked:                  No
    OpenMP threads:              1
    Integrals threads:           1
    Memory [MiB]:              500
    Schwarz Cutoff:          0E+00
    Fitting Condition:       1E-10

   => Auxiliary Basis Set <=

  Basis Set: (6-311G* AUX)
    Blend: CC-PVTZ-JKFIT
    Number of shells: 90
    Number of basis function: 278
    Number of Cartesian functions: 332
    Spherical Harmonics?: true
    Max angular momentum: 4


  -Total Gradient:
     Atom            X                  Y                   Z
    ------   -----------------  -----------------  -----------------
       1        0.004483622940    -0.011031764060     0.004307457567
       2       -0.003017583227     0.001754402175    -0.000617504120
       3        0.000407286365     0.001355921032     0.001128370053
       4       -0.000997998388    -0.000962616512    -0.000239092920
       5        0.001885806408    -0.000355341524    -0.001689694232
       6       -0.002761134097     0.009239398888    -0.002889536348


*** tstop() called on node37.bme.utexas.edu at Sun Dec 29 12:32:12 2019
Module time:
	user time   =       0.48 seconds =       0.01 minutes
	system time =       0.00 seconds =       0.00 minutes
	total time  =          0 seconds =       0.00 minutes
Total time:
	user time   =       4.29 seconds =       0.07 minutes
	system time =       0.08 seconds =       0.00 minutes
	total time  =          5 seconds =       0.08 minutes

			-----------------------------------------
			 OPTKING 2.0: for geometry optimizations 
			  - R.A. King,  Bethel University        
			-----------------------------------------

	Previous internal coordinate definitions found.
	---Fragment 1 Geometry and Gradient---
	 O           1.2823495699        0.0589367798       -0.1232231050
	 C          -1.3536668613        0.0326560756        0.0965190868
	 H          -2.2123212031       -1.3707019589       -1.1265348778
	 H          -2.0433219189        1.8698311714       -0.4596062398
	 H          -1.9360353069       -0.3343618914        2.0263128567
	 H           1.9577395891       -1.4889670824        0.3662321276
	             0.0044836229       -0.0110317641        0.0043074576
	            -0.0030175832        0.0017544022       -0.0006175041
	             0.0004072864        0.0013559210        0.0011283701
	            -0.0009979984       -0.0009626165       -0.0002390929
	             0.0018858064       -0.0003553415       -0.0016896942
	            -0.0027611341        0.0092393989       -0.0028895363

	---Fragment 1 Intrafragment Coordinates---
	 - Coordinate -           - BOHR/RAD -       - ANG/DEG -
	 R(1,2)           =         2.645290	       1.399827
	 R(1,6)           =         1.758330	       0.930468
	 R(2,3)           =         2.050015	       1.084821
	 R(2,4)           =         2.039635	       1.079328
	 R(2,5)           =         2.048892	       1.084227
	 B(1,2,3)         =         1.954789	     112.001176
	 B(1,2,4)         =         1.881095	     107.778798
	 B(1,2,5)         =         1.942560	     111.300509
	 B(2,1,6)         =         1.929321	     110.541932
	 B(3,2,4)         =         1.888423	     108.198660
	 B(3,2,5)         =         1.896789	     108.678014
	 B(4,2,5)         =         1.898692	     108.787026
	 D(3,2,1,6)       =        -1.082724	     -62.035505
	 D(4,2,1,6)       =         3.125247	     179.063481
	 D(5,2,1,6)       =         1.044628	      59.852794

	Current energy   :      -115.0635797161

	Energy change for the previous step:
		Projected    :        -0.0159323981
		Actual       :        -0.0039371313
	Energy ratio indicates iffy step: Trust radius decreased to 2.500e-01.


	Performing BFGS update.
	Previous computed or guess Hessian on step 1.
	Change in internal coordinate of 5.93e-01 exceeds limit of 5.00e-01.
	 Skipping Hessian update for step 2.
	Change in internal coordinate of 7.49e-01 exceeds limit of 5.00e-01.
	 Skipping Hessian update for step 1.
	Steps to be used in Hessian update: 3
	Taking RFO optimization step.
	Going to follow RFO solution 1.
	Using RFO vector 1.
	Norm of target step-size    0.04442
	Projected energy change by RFO approximation:        -0.0001241193

	Back-transformation to cartesian coordinates...
	Successfully converged to displaced geometry.

	--- Internal Coordinate Step in ANG or DEG, aJ/ANG or AJ/DEG ---
	 ---------------------------------------------------------------------------
	   Coordinate                Previous        Force       Change         New 
	   ----------                --------       ------       ------       ------
	    1 R(1,2)          =      1.399827    -0.013024    -0.002401     1.397426
	    2 R(1,6)          =      0.930468     0.082376     0.010191     0.940659
	    3 R(2,3)          =      1.084821     0.014599     0.002695     1.087516
	    4 R(2,4)          =      1.079328     0.003826     0.000736     1.080064
	    5 R(2,5)          =      1.084227     0.017003     0.003090     1.087317
	    6 B(1,2,3)        =    112.001176    -0.000029    -0.085621   111.915556
	    7 B(1,2,4)        =    107.778798    -0.000174    -0.899646   106.879153
	    8 B(1,2,5)        =    111.300509     0.000186     0.912002   112.212511
	    9 B(2,1,6)        =    110.541932    -0.000156    -0.755717   109.786216
	   10 B(3,2,4)        =    108.198660     0.000065     0.191651   108.390312
	   11 B(3,2,5)        =    108.678014    -0.000005     0.155201   108.833214
	   12 B(4,2,5)        =    108.787026    -0.000048    -0.313593   108.473432
	   13 D(3,2,1,6)      =    -62.035505    -0.000011     0.486218   -61.549287
	   14 D(4,2,1,6)      =    179.063481     0.000000     0.868563   179.932044
	   15 D(5,2,1,6)      =     59.852794     0.000014     1.290803    61.143597
	 ---------------------------------------------------------------------------
	Successfully symmetrized geometry.

  ==> Convergence Check <==

  Measures of convergence in internal coordinates in au.
  Criteria marked as inactive (o), active & met (*), and active & unmet ( ).
  ---------------------------------------------------------------------------------------------
   Step     Total Energy     Delta E     MAX Force     RMS Force      MAX Disp      RMS Disp   
  ---------------------------------------------------------------------------------------------
    Convergence Criteria    1.00e-06 *    3.00e-04 *             o    1.20e-03 *             o
  ---------------------------------------------------------------------------------------------
      4    -115.06357972   -3.94e-03      1.00e-02      2.92e-03 o    2.25e-02      1.15e-02 o  ~
  ---------------------------------------------------------------------------------------------

	Writing optimization data to binary file.
	Structure for next step:
	Cartesian Geometry (in Angstrom)
	    O     0.6791425711   0.0303792389  -0.0597325832
	    C    -0.7134084976   0.0188728468   0.0563198606
	    H    -1.1703116899  -0.7084628491  -0.6106984409
	    H    -1.0595919347   1.0028258870  -0.2239167482
	    H    -1.0394508057  -0.1843230765   1.0735053224
	    H     1.0253769351  -0.8115595289   0.1771219786
			--------------------------
			 OPTKING Finished Execution 
			--------------------------

    Structure for next step:
    Molecular point group: c1
    Full point group: C1

    Geometry (in Angstrom), charge = 0, multiplicity = 1:

    O            0.677881457608     0.030211298025    -0.064094265926
    C           -0.714669616566     0.018704905954     0.051958178371
    H           -1.171572810587    -0.708630792871    -0.615060125775
    H           -1.060853054944     1.002657950015    -0.228278431543
    H           -1.040711925923    -0.184491018139     1.069143644129
    H            1.024115822996    -0.811727473086     0.172760296848

gradient() will perform analytic gradient computation.

*** tstart() called on node37.bme.utexas.edu
*** at Sun Dec 29 12:32:12 2019

   => Loading Basis Set <=

    Name: 6-311G*
    Role: ORBITAL
    Keyword: BASIS
    atoms 1   entry O          line   152 file /home/bdw2292/miniconda3/envs/p4env/share/psi4/basis/6-311gs.gbs 
    atoms 2   entry C          line   114 file /home/bdw2292/miniconda3/envs/p4env/share/psi4/basis/6-311gs.gbs 
    atoms 3-6 entry H          line    37 file /home/bdw2292/miniconda3/envs/p4env/share/psi4/basis/6-311gs.gbs 


         ---------------------------------------------------------
                                   SCF
               by Justin Turney, Rob Parrish, Andy Simmonett
                          and Daniel G. A. Smith
                              RHF Reference
                        1 Threads,    667 MiB Core
         ---------------------------------------------------------

  ==> Geometry <==

    Molecular point group: c1
    Full point group: C1

    Geometry (in Angstrom), charge = 0, multiplicity = 1:

       Center              X                  Y                   Z               Mass       
    ------------   -----------------  -----------------  -----------------  -----------------
         O            0.677881457608     0.030211298025    -0.064094265926    15.994914619570
         C           -0.714669616566     0.018704905954     0.051958178371    12.000000000000
         H           -1.171572810587    -0.708630792871    -0.615060125775     1.007825032230
         H           -1.060853054944     1.002657950015    -0.228278431543     1.007825032230
         H           -1.040711925923    -0.184491018139     1.069143644129     1.007825032230
         H            1.024115822996    -0.811727473086     0.172760296848     1.007825032230

  Running in c1 symmetry.

  Rotational constants: A =      4.38469  B =      0.85022  C =      0.82156 [cm^-1]
  Rotational constants: A = 131449.68986  B =  25488.97414  C =  24629.60366 [MHz]
  Nuclear repulsion =   40.856539236718319

  Charge       = 0
  Multiplicity = 1
  Electrons    = 18
  Nalpha       = 9
  Nbeta        = 9

  ==> Algorithm <==

  SCF Algorithm Type is DF.
  DIIS enabled.
  MOM disabled.
  Fractional occupation disabled.
  Guess Type is READ.
  Energy threshold   = 1.00e-08
  Density threshold  = 1.00e-08
  Integral threshold = 0.00e+00

  ==> Primary Basis <==

  Basis Set: 6-311G*
    Blend: 6-311G*
    Number of shells: 28
    Number of basis function: 48
    Number of Cartesian functions: 50
    Spherical Harmonics?: true
    Max angular momentum: 2

   => Loading Basis Set <=

    Name: (6-311G* AUX)
    Role: JKFIT
    Keyword: DF_BASIS_SCF
    atoms 1   entry O          line   229 file /home/bdw2292/miniconda3/envs/p4env/share/psi4/basis/cc-pvtz-jkfit.gbs 
    atoms 2   entry C          line   125 file /home/bdw2292/miniconda3/envs/p4env/share/psi4/basis/cc-pvtz-jkfit.gbs 
    atoms 3-6 entry H          line    51 file /home/bdw2292/miniconda3/envs/p4env/share/psi4/basis/cc-pvtz-jkfit.gbs 

   => Loading Basis Set <=

    Name: 6-311G*
    Role: ORBITAL
    Keyword: BASIS
    atoms 1   entry O          line   152 file /home/bdw2292/miniconda3/envs/p4env/share/psi4/basis/6-311gs.gbs 
    atoms 2   entry C          line   114 file /home/bdw2292/miniconda3/envs/p4env/share/psi4/basis/6-311gs.gbs 
    atoms 3-6 entry H          line    37 file /home/bdw2292/miniconda3/envs/p4env/share/psi4/basis/6-311gs.gbs 

  Reading orbitals from file 180, no projection.

  ==> Pre-Iterations <==

   -------------------------------------------------------
    Irrep   Nso     Nmo     Nalpha   Nbeta   Ndocc  Nsocc
   -------------------------------------------------------
     A         48      48       0       0       0       0
   -------------------------------------------------------
    Total      48      48       9       9       9       0
   -------------------------------------------------------

  ==> Integral Setup <==

  DFHelper Memory: AOs need 0.006 GiB; user supplied 0.489 GiB. Using in-core AOs.

  ==> MemDFJK: Density-Fitted J/K Matrices <==

    J tasked:                   Yes
    K tasked:                   Yes
    wK tasked:                   No
    OpenMP threads:               1
    Memory [MiB]:               500
    Algorithm:                 Core
    Schwarz Cutoff:           1E-12
    Mask sparsity (%):       0.0000
    Fitting Condition:        1E-10

   => Auxiliary Basis Set <=

  Basis Set: (6-311G* AUX)
    Blend: CC-PVTZ-JKFIT
    Number of shells: 90
    Number of basis function: 278
    Number of Cartesian functions: 332
    Spherical Harmonics?: true
    Max angular momentum: 4

  Minimum eigenvalue in the overlap matrix is 1.0654330998E-02.
  Using Symmetric Orthogonalization.

  SCF Guess: Orbitals guess was supplied from a previous computation.

  ==> Iterations <==

                           Total Energy        Delta E     RMS |[F,P]|

   @DF-RHF iter   0:  -115.05641415779375   -1.15056e+02   6.26028e-04 
   @DF-RHF iter   1:  -115.06365978004139   -7.24562e-03   1.32980e-04 DIIS
   @DF-RHF iter   2:  -115.06369329285694   -3.35128e-05   4.96889e-05 DIIS
   @DF-RHF iter   3:  -115.06369938150264   -6.08865e-06   2.39092e-05 DIIS
   @DF-RHF iter   4:  -115.06370049768067   -1.11618e-06   6.44902e-06 DIIS
   @DF-RHF iter   5:  -115.06370061405984   -1.16379e-07   1.84553e-06 DIIS
   @DF-RHF iter   6:  -115.06370062768927   -1.36294e-08   4.28353e-07 DIIS
   @DF-RHF iter   7:  -115.06370062826979   -5.80513e-10   1.28541e-07 DIIS
   @DF-RHF iter   8:  -115.06370062831651   -4.67253e-11   2.80076e-08 DIIS
   @DF-RHF iter   9:  -115.06370062831915   -2.64322e-12   5.93121e-09 DIIS
  Energy and wave function converged.


  ==> Post-Iterations <==

    Orbital Energies [Eh]
    ---------------------

    Doubly Occupied:                                                      

       1A    -20.542019     2A    -11.264669     3A     -1.364471  
       4A     -0.928022     5A     -0.696903     6A     -0.622501  
       7A     -0.596882     8A     -0.498269     9A     -0.445039  

    Virtual:                                                              

      10A      0.154524    11A      0.189204    12A      0.227299  
      13A      0.233902    14A      0.346345    15A      0.460672  
      16A      0.484617    17A      0.595107    18A      0.701050  
      19A      0.737091    20A      0.791098    21A      0.805852  
      22A      0.946367    23A      1.064266    24A      1.080283  
      25A      1.175122    26A      1.546885    27A      1.602994  
      28A      1.694673    29A      1.764094    30A      1.771312  
      31A      2.002697    32A      2.368383    33A      2.619481  
[...]

    O            0.679025999809     0.030888310662    -0.053602224254
    C           -0.715768915700     0.017966343763     0.040007753701
    H           -1.160885305848    -0.721499030891    -0.621290891062
    H           -1.065600082602     0.995945533465    -0.256994297475
    H           -1.053512209854    -0.173740965085     1.055588229539
    H            1.025900081014    -0.804847619937     0.197037686686

gradient() will perform analytic gradient computation.

*** tstart() called on node37.bme.utexas.edu
*** at Sun Dec 29 12:32:17 2019

   => Loading Basis Set <=

    Name: 6-311G*
    Role: ORBITAL
    Keyword: BASIS
    atoms 1   entry O          line   152 file /home/bdw2292/miniconda3/envs/p4env/share/psi4/basis/6-311gs.gbs 
    atoms 2   entry C          line   114 file /home/bdw2292/miniconda3/envs/p4env/share/psi4/basis/6-311gs.gbs 
    atoms 3-6 entry H          line    37 file /home/bdw2292/miniconda3/envs/p4env/share/psi4/basis/6-311gs.gbs 


         ---------------------------------------------------------
                                   SCF
               by Justin Turney, Rob Parrish, Andy Simmonett
                          and Daniel G. A. Smith
                              RHF Reference
                        1 Threads,    667 MiB Core
         ---------------------------------------------------------

  ==> Geometry <==

    Molecular point group: c1
    Full point group: C1

    Geometry (in Angstrom), charge = 0, multiplicity = 1:

       Center              X                  Y                   Z               Mass       
    ------------   -----------------  -----------------  -----------------  -----------------
         O            0.679025999809     0.030888310662    -0.053602224254    15.994914619570
         C           -0.715768915700     0.017966343763     0.040007753701    12.000000000000
         H           -1.160885305848    -0.721499030891    -0.621290891062     1.007825032230
         H           -1.065600082602     0.995945533465    -0.256994297475     1.007825032230
         H           -1.053512209854    -0.173740965085     1.055588229539     1.007825032230
         H            1.025900081014    -0.804847619937     0.197037686686     1.007825032230

  Running in c1 symmetry.

  Rotational constants: A =      4.39236  B =      0.84924  C =      0.82071 [cm^-1]
  Rotational constants: A = 131679.58066  B =  25459.59325  C =  24604.32459 [MHz]
  Nuclear repulsion =   40.851693803278025

  Charge       = 0
  Multiplicity = 1
  Electrons    = 18
  Nalpha       = 9
  Nbeta        = 9

  ==> Algorithm <==

  SCF Algorithm Type is DF.
  DIIS enabled.
  MOM disabled.
  Fractional occupation disabled.
  Guess Type is READ.
  Energy threshold   = 1.00e-08
  Density threshold  = 1.00e-08
  Integral threshold = 0.00e+00

  ==> Primary Basis <==

  Basis Set: 6-311G*
    Blend: 6-311G*
    Number of shells: 28
    Number of basis function: 48
    Number of Cartesian functions: 50
    Spherical Harmonics?: true
    Max angular momentum: 2

   => Loading Basis Set <=

    Name: (6-311G* AUX)
    Role: JKFIT
    Keyword: DF_BASIS_SCF
    atoms 1   entry O          line   229 file /home/bdw2292/miniconda3/envs/p4env/share/psi4/basis/cc-pvtz-jkfit.gbs 
    atoms 2   entry C          line   125 file /home/bdw2292/miniconda3/envs/p4env/share/psi4/basis/cc-pvtz-jkfit.gbs 
    atoms 3-6 entry H          line    51 file /home/bdw2292/miniconda3/envs/p4env/share/psi4/basis/cc-pvtz-jkfit.gbs 

   => Loading Basis Set <=

    Name: 6-311G*
    Role: ORBITAL
    Keyword: BASIS
    atoms 1   entry O          line   152 file /home/bdw2292/miniconda3/envs/p4env/share/psi4/basis/6-311gs.gbs 
    atoms 2   entry C          line   114 file /home/bdw2292/miniconda3/envs/p4env/share/psi4/basis/6-311gs.gbs 
    atoms 3-6 entry H          line    37 file /home/bdw2292/miniconda3/envs/p4env/share/psi4/basis/6-311gs.gbs 

  Reading orbitals from file 180, no projection.

  ==> Pre-Iterations <==

   -------------------------------------------------------
    Irrep   Nso     Nmo     Nalpha   Nbeta   Ndocc  Nsocc
   -------------------------------------------------------
     A         48      48       0       0       0       0
   -------------------------------------------------------
    Total      48      48       9       9       9       0
   -------------------------------------------------------

  ==> Integral Setup <==

  DFHelper Memory: AOs need 0.006 GiB; user supplied 0.489 GiB. Using in-core AOs.

  ==> MemDFJK: Density-Fitted J/K Matrices <==

    J tasked:                   Yes
    K tasked:                   Yes
    wK tasked:                   No
    OpenMP threads:               1
    Memory [MiB]:               500
    Algorithm:                 Core
    Schwarz Cutoff:           1E-12
    Mask sparsity (%):       0.0000
    Fitting Condition:        1E-10

   => Auxiliary Basis Set <=

  Basis Set: (6-311G* AUX)
    Blend: CC-PVTZ-JKFIT
    Number of shells: 90
    Number of basis function: 278
    Number of Cartesian functions: 332
    Spherical Harmonics?: true
    Max angular momentum: 4

  Minimum eigenvalue in the overlap matrix is 1.0677958661E-02.
  Using Symmetric Orthogonalization.

  SCF Guess: Orbitals guess was supplied from a previous computation.

  ==> Iterations <==

                           Total Energy        Delta E     RMS |[F,P]|

   @DF-RHF iter   0:  -115.06334333728611   -1.15063e+02   4.94111e-05 
   @DF-RHF iter   1:  -115.06371448249953   -3.71145e-04   9.92287e-06 DIIS
   @DF-RHF iter   2:  -115.06371467499729   -1.92498e-07   3.90373e-06 DIIS
   @DF-RHF iter   3:  -115.06371470914347   -3.41462e-08   1.99921e-06 DIIS
   @DF-RHF iter   4:  -115.06371471529921   -6.15574e-09   3.79894e-07 DIIS
   @DF-RHF iter   5:  -115.06371471583947   -5.40254e-10   1.23433e-07 DIIS
   @DF-RHF iter   6:  -115.06371471589155   -5.20828e-11   3.54336e-08 DIIS
   @DF-RHF iter   7:  -115.06371471589561   -4.06430e-12   7.84255e-09 DIIS
  Energy and wave function converged.


  ==> Post-Iterations <==

    Orbital Energies [Eh]
    ---------------------

    Doubly Occupied:                                                      

       1A    -20.541666     2A    -11.264810     3A     -1.364439  
       4A     -0.928352     5A     -0.696989     6A     -0.622283  
       7A     -0.597324     8A     -0.498087     9A     -0.444928  

    Virtual:                                                              

      10A      0.154640    11A      0.189138    12A      0.227343  
      13A      0.234006    14A      0.346231    15A      0.461374  
      16A      0.484069    17A      0.596228    18A      0.700381  
      19A      0.737262    20A      0.791090    21A      0.805891  
      22A      0.946316    23A      1.064725    24A      1.080038  
      25A      1.175341    26A      1.547054    27A      1.602404  
      28A      1.695667    29A      1.764278    30A      1.770926  
      31A      2.002484    32A      2.368198    33A      2.619146  
      34A      2.706039    35A      2.725010    36A      3.165160  
      37A      3.257995    38A      3.378682    39A      3.421397  
      40A      3.516456    41A      3.577439    42A      3.830201  
      43A      4.273856    44A      5.386411    45A      5.542610  
      46A      5.932758    47A     24.568142    48A     51.527632  

    Final Occupation by Irrep:
              A 
    DOCC [     9 ]

  @DF-RHF Final Energy:  -115.06371471589561

   => Energetics <=

    Nuclear Repulsion Energy =             40.8516938032780246
    One-Electron Energy =                -237.9130605238665908
    Two-Electron Energy =                  81.9976520046929664
    Total Energy =                       -115.0637147158956139

Computation Completed


Properties will be evaluated at   0.000000,   0.000000,   0.000000 [a0]

Properties computed using the SCF density matrix

  Nuclear Dipole Moment: [e a0]
     X:    -2.1099      Y:    -0.6600      Z:     0.3507

  Electronic Dipole Moment: [e a0]
     X:     1.7162      Y:     0.0537      Z:    -0.1275

  Dipole Moment: [e a0]
     X:    -0.3937      Y:    -0.6062      Z:     0.2232     Total:     0.7565

  Dipole Moment: [D]
     X:    -1.0006      Y:    -1.5409      Z:     0.5672     Total:     1.9228


*** tstop() called on node37.bme.utexas.edu at Sun Dec 29 12:32:18 2019
Module time:
	user time   =       0.46 seconds =       0.01 minutes
	system time =       0.01 seconds =       0.00 minutes
	total time  =          1 seconds =       0.02 minutes
Total time:
	user time   =       8.56 seconds =       0.14 minutes
	system time =       0.20 seconds =       0.00 minutes
	total time  =         11 seconds =       0.18 minutes

*** tstart() called on node37.bme.utexas.edu
*** at Sun Dec 29 12:32:18 2019


         ------------------------------------------------------------
                                   SCF GRAD                          
                          Rob Parrish, Justin Turney,                
                       Andy Simmonett, and Alex Sokolov              
         ------------------------------------------------------------

  ==> Geometry <==

    Molecular point group: c1
    Full point group: C1

    Geometry (in Angstrom), charge = 0, multiplicity = 1:

       Center              X                  Y                   Z               Mass       
    ------------   -----------------  -----------------  -----------------  -----------------
         O            0.679025999809     0.030888310662    -0.053602224254    15.994914619570
         C           -0.715768915700     0.017966343763     0.040007753701    12.000000000000
         H           -1.160885305848    -0.721499030891    -0.621290891062     1.007825032230
         H           -1.065600082602     0.995945533465    -0.256994297475     1.007825032230
         H           -1.053512209854    -0.173740965085     1.055588229539     1.007825032230
         H            1.025900081014    -0.804847619937     0.197037686686     1.007825032230

  Nuclear repulsion =   40.851693803278025

  ==> Basis Set <==

  Basis Set: 6-311G*
    Blend: 6-311G*
    Number of shells: 28
    Number of basis function: 48
    Number of Cartesian functions: 50
    Spherical Harmonics?: true
    Max angular momentum: 2

  ==> DFJKGrad: Density-Fitted SCF Gradients <==

    Gradient:                    1
    J tasked:                  Yes
    K tasked:                  Yes
    wK tasked:                  No
    OpenMP threads:              1
    Integrals threads:           1
    Memory [MiB]:              500
    Schwarz Cutoff:          0E+00
    Fitting Condition:       1E-10

   => Auxiliary Basis Set <=

  Basis Set: (6-311G* AUX)
    Blend: CC-PVTZ-JKFIT
    Number of shells: 90
    Number of basis function: 278
    Number of Cartesian functions: 332
    Spherical Harmonics?: true
    Max angular momentum: 4


  -Total Gradient:
     Atom            X                  Y                   Z
    ------   -----------------  -----------------  -----------------
       1       -0.000012098211     0.000046855000    -0.000021029931
       2       -0.000005534235    -0.000001450233     0.000012435004
       3       -0.000006789990    -0.000014094150    -0.000014792766
       4        0.000004452905     0.000009977266     0.000001959092
       5       -0.000014515265     0.000006058840     0.000009104820
       6        0.000034484795    -0.000047346723     0.000012323781


*** tstop() called on node37.bme.utexas.edu at Sun Dec 29 12:32:18 2019
Module time:
	user time   =       0.49 seconds =       0.01 minutes
	system time =       0.00 seconds =       0.00 minutes
	total time  =          0 seconds =       0.00 minutes
Total time:
	user time   =       9.05 seconds =       0.15 minutes
	system time =       0.20 seconds =       0.00 minutes
	total time  =         11 seconds =       0.18 minutes

			-----------------------------------------
			 OPTKING 2.0: for geometry optimizations 
			  - R.A. King,  Bethel University        
			-----------------------------------------

	Previous internal coordinate definitions found.
	---Fragment 1 Geometry and Gradient---
	 O           1.2831731717        0.0583704476       -0.1012935236
	 C          -1.3526072198        0.0339514692        0.0756036974
	 H          -2.1937552911       -1.3634355682       -1.1740696283
	 H          -2.0136923154        1.8820642941       -0.4856488380
	 H          -1.9908495465       -0.3283228408        1.9947726551
	 H           1.9386701852       -1.5209415744        0.3723472642
	            -0.0000120982        0.0000468550       -0.0000210299
	            -0.0000055342       -0.0000014502        0.0000124350
	            -0.0000067900       -0.0000140941       -0.0000147928
	             0.0000044529        0.0000099773        0.0000019591
	            -0.0000145153        0.0000060588        0.0000091048
	             0.0000344848       -0.0000473467        0.0000123238

	---Fragment 1 Intrafragment Coordinates---
	 - Coordinate -           - BOHR/RAD -       - ANG/DEG -
	 R(1,2)           =         2.641823	       1.397992
	 R(1,6)           =         1.774328	       0.938934
	 R(2,3)           =         2.054727	       1.087315
	 R(2,4)           =         2.041460	       1.080294
	 R(2,5)           =         2.054703	       1.087302
	 B(1,2,3)         =         1.954112	     111.962343
	 B(1,2,4)         =         1.871625	     107.236222
	 B(1,2,5)         =         1.954209	     111.967940
	 B(2,1,6)         =         1.920359	     110.028488
	 B(3,2,4)         =         1.892198	     108.414985
	 B(3,2,5)         =         1.897588	     108.723772
	 B(4,2,5)         =         1.892115	     108.410222
	 D(3,2,1,6)       =        -1.068055	     -61.195069
	 D(4,2,1,6)       =        -3.141493	    -179.994271
	 D(5,2,1,6)       =         1.068301	      61.209129

	Current energy   :      -115.0637147159

	Energy change for the previous step:
		Projected    :        -0.0000002539
		Actual       :        -0.0000003160
	Energy ratio indicates good step: Trust radius increased to 1.000e+00.


	Performing BFGS update.
	Previous computed or guess Hessian on step 1.
	Steps to be used in Hessian update: 8 7
	Taking RFO optimization step.
	Going to follow RFO solution 1.
	Using RFO vector 1.
	Norm of target step-size    0.00031
	Projected energy change by RFO approximation:        -0.0000000170

	Back-transformation to cartesian coordinates...
	Successfully converged to displaced geometry.

	--- Internal Coordinate Step in ANG or DEG, aJ/ANG or AJ/DEG ---
	 ---------------------------------------------------------------------------
	   Coordinate                Previous        Force       Change         New 
	   ----------                --------       ------       ------       ------
	    1 R(1,2)          =      1.397992    -0.000189    -0.000030     1.397963
	    2 R(1,6)          =      0.938934    -0.000479    -0.000057     0.938877
	    3 R(2,3)          =      1.087315    -0.000176    -0.000032     1.087283
	    4 R(2,4)          =      1.080294    -0.000058    -0.000013     1.080281
	    5 R(2,5)          =      1.087302    -0.000098    -0.000019     1.087283
	    6 B(1,2,3)        =    111.962343     0.000000     0.000927   111.963270
	    7 B(1,2,4)        =    107.236222     0.000001     0.005249   107.241471
	    8 B(1,2,5)        =    111.967940    -0.000002    -0.006309   111.961630
	    9 B(2,1,6)        =    110.028488    -0.000002    -0.009349   110.019138
	   10 B(3,2,4)        =    108.414985    -0.000000    -0.001251   108.413735
	   11 B(3,2,5)        =    108.723772    -0.000000    -0.001827   108.721945
	   12 B(4,2,5)        =    108.410222     0.000001     0.003548   108.413769
	   13 D(3,2,1,6)      =    -61.195069     0.000000    -0.001211   -61.196280
	   14 D(4,2,1,6)      =   -179.994271     0.000000    -0.003526  -179.997797
	   15 D(5,2,1,6)      =     61.209129    -0.000000    -0.007541    61.201588
	 ---------------------------------------------------------------------------
	Successfully symmetrized geometry.

  ==> Convergence Check <==

  Measures of convergence in internal coordinates in au.
  Criteria marked as inactive (o), active & met (*), and active & unmet ( ).
  ---------------------------------------------------------------------------------------------
   Step     Total Energy     Delta E     MAX Force     RMS Force      MAX Disp      RMS Disp   
  ---------------------------------------------------------------------------------------------
    Convergence Criteria    1.00e-06 *    3.00e-04 *             o    1.20e-03 *             o
  ---------------------------------------------------------------------------------------------
      9    -115.06371472   -3.16e-07 *    5.82e-05 *    2.00e-05 o    1.63e-04 *    7.94e-05 o  ~
  ---------------------------------------------------------------------------------------------


  **** Optimization is complete! (in 9 steps) ****

  ==> Optimization Summary <==

  Measures of convergence in internal coordinates in au.
  --------------------------------------------------------------------------------------------------------------- ~
   Step         Total Energy             Delta E       MAX Force       RMS Force        MAX Disp        RMS Disp  ~
  --------------------------------------------------------------------------------------------------------------- ~
      1    -115.058406037732   -115.058406037732      0.03882380      0.01260145      0.15655922      0.06980453  ~
      2    -115.062206378098     -0.003800340366      0.01117162      0.00316130      0.48131507      0.21622326  ~
      3    -115.059642584823      0.002563793275      0.05902398      0.01543824      0.13448850      0.06310473  ~
      4    -115.063579716134     -0.003937131311      0.00999860      0.00291861      0.02252875      0.01151050  ~
      5    -115.063700628319     -0.000120912185      0.00195781      0.00078016      0.08963418      0.03831848  ~
      6    -115.063677613519      0.000023014800      0.00143374      0.00041634      0.08858438      0.03913040  ~
      7    -115.063710185328     -0.000032571809      0.00066617      0.00037491      0.00441742      0.00226793  ~
      8    -115.063714399929     -0.000004214602      0.00028996      0.00010863      0.00339869      0.00145577  ~
      9    -115.063714715896     -0.000000315966      0.00005817      0.00002001      0.00016318      0.00007941  ~
  --------------------------------------------------------------------------------------------------------------- ~

	Writing optimization data to binary file.
	Final energy is   -115.0637147158956
	Final (previous) structure:
	Cartesian Geometry (in Angstrom)
	    O     0.6790259971   0.0308883105  -0.0536022240
	    C    -0.7157689129   0.0179663437   0.0400077535
	    H    -1.1608853013  -0.7214990281  -0.6212908886
	    H    -1.0656000784   0.9959455296  -0.2569942965
	    H    -1.0535122057  -0.1737409644   1.0555882254
	    H     1.0259000770  -0.8048476168   0.1970376859
	Saving final (previous) structure.
			--------------------------
			 OPTKING Finished Execution 
			--------------------------

    Final optimized geometry and variables:
    Molecular point group: c1
    Full point group: C1

    Geometry (in Angstrom), charge = 0, multiplicity = 1:

    O            0.679025999809     0.030888310662    -0.053602224254
    C           -0.715768915700     0.017966343763     0.040007753701
    H           -1.160885305848    -0.721499030891    -0.621290891062
    H           -1.065600082602     0.995945533465    -0.256994297475
    H           -1.053512209854    -0.173740965085     1.055588229539
    H            1.025900081014    -0.804847619937     0.197037686686

	Removing binary optimization data file.
	Cleaning optimization helper files.

    Psi4 stopped on: Sunday, 29 December 2019 12:32PM
    Psi4 wall time for execution: 0:00:10.76

*** Psi4 exiting successfully. Buy a developer a beer!
