
    -----------------------------------------------------------------------
          Psi4: An Open-Source Ab Initio Electronic Structure Package
                               Psi4 1.3.2 release

                         Git: Rev {HEAD} ecbda83 


    R. M. Parrish, L. A. Burns, D. G. A. Smith, A. C. Simmonett,
    A. E. DePrince III, E. G. Hohenstein, U. Bozkaya, A. Yu. Sokolov,
    R. Di Remigio, R. M. Richard, J. F. Gonthier, A. M. James,
    H. R. McAlexander, A. Kumar, M. Saitow, X. Wang, B. P. Pritchard,
    P. Verma, H. F. Schaefer III, K. Patkowski, R. A. King, E. F. Valeev,
    F. A. Evangelista, J. M. Turney, T. D. Crawford, and C. D. Sherrill,
    J. Chem. Theory Comput. 13(7) pp 3185--3197 (2017).
    (doi: 10.1021/acs.jctc.7b00174)


                         Additional Contributions by
    P. Kraus, H. Kruse, M. H. Lechner, M. C. Schieber, R. A. Shaw,
    A. Alenaizan, R. Galvelis, Z. L. Glick, S. Lehtola, and J. P. Misiewicz

    -----------------------------------------------------------------------


    Psi4 started on: Sunday, 29 December 2019 12:31PM

    Process ID: 43269
    Host:       node37.bme.utexas.edu
    PSIDATADIR: /home/bdw2292/miniconda3/envs/p4env/share/psi4
    Memory:     500.0 MiB
    Threads:    1
    
  ==> Input File <==

--------------------------------------------------------------------------
molecule { 
0 1
 O    0.689809    0.036290    0.012987
 C   -0.746245    0.019029    0.005430
 H   -1.104932    0.627581    0.840104
 H   -1.090257   -1.015837    0.082873
 H   -1.081332    0.450144   -0.942478
 H    0.969557   -0.848722   -0.286159
}
set optking { 
  frozen_dihedral = ("
  ")
}
memory 700MB
set_num_threads(1)
psi4_io.set_default_path("/scratch/bdw2292")
optimize('hf/6-311G*')
clean()
--------------------------------------------------------------------------

  Memory set to 667.572 MiB by Python driver.
  Threads set to 1 by Python driver.
gradient() will perform analytic gradient computation.

*** tstart() called on node37.bme.utexas.edu
*** at Sun Dec 29 12:31:17 2019

   => Loading Basis Set <=

    Name: 6-311G*
    Role: ORBITAL
    Keyword: BASIS
    atoms 1   entry O          line   152 file /home/bdw2292/miniconda3/envs/p4env/share/psi4/basis/6-311gs.gbs 
    atoms 2   entry C          line   114 file /home/bdw2292/miniconda3/envs/p4env/share/psi4/basis/6-311gs.gbs 
    atoms 3-6 entry H          line    37 file /home/bdw2292/miniconda3/envs/p4env/share/psi4/basis/6-311gs.gbs 


         ---------------------------------------------------------
                                   SCF
               by Justin Turney, Rob Parrish, Andy Simmonett
                          and Daniel G. A. Smith
                              RHF Reference
                        1 Threads,    667 MiB Core
         ---------------------------------------------------------

  ==> Geometry <==

    Molecular point group: c1
    Full point group: C1

    Geometry (in Angstrom), charge = 0, multiplicity = 1:

       Center              X                  Y                   Z               Mass       
    ------------   -----------------  -----------------  -----------------  -----------------
         O            0.697506444446     0.035796265406     0.014085033079    15.994914619570
         C           -0.738547555554     0.018535265406     0.006528033079    12.000000000000
         H           -1.097234555554     0.627087265406     0.841202033079     1.007825032230
         H           -1.082559555554    -1.016330734594     0.083971033079     1.007825032230
         H           -1.073634555554     0.449650265406    -0.941379966921     1.007825032230
         H            0.977254444446    -0.849215734594    -0.285060966921     1.007825032230

  Running in c1 symmetry.

  Rotational constants: A =      4.15025  B =      0.82312  C =      0.79022 [cm^-1]
  Rotational constants: A = 124421.43573  B =  24676.57109  C =  23690.26827 [MHz]
  Nuclear repulsion =   40.065423684119480

  Charge       = 0
  Multiplicity = 1
  Electrons    = 18
  Nalpha       = 9
  Nbeta        = 9

  ==> Algorithm <==

  SCF Algorithm Type is DF.
  DIIS enabled.
  MOM disabled.
  Fractional occupation disabled.
  Guess Type is SAD.
  Energy threshold   = 1.00e-08
  Density threshold  = 1.00e-08
  Integral threshold = 0.00e+00

  ==> Primary Basis <==

  Basis Set: 6-311G*
    Blend: 6-311G*
    Number of shells: 28
    Number of basis function: 48
    Number of Cartesian functions: 50
    Spherical Harmonics?: true
    Max angular momentum: 2

   => Loading Basis Set <=

    Name: (6-311G* AUX)
    Role: JKFIT
    Keyword: DF_BASIS_SCF
    atoms 1   entry O          line   229 file /home/bdw2292/miniconda3/envs/p4env/share/psi4/basis/cc-pvtz-jkfit.gbs 
    atoms 2   entry C          line   125 file /home/bdw2292/miniconda3/envs/p4env/share/psi4/basis/cc-pvtz-jkfit.gbs 
    atoms 3-6 entry H          line    51 file /home/bdw2292/miniconda3/envs/p4env/share/psi4/basis/cc-pvtz-jkfit.gbs 

  ==> Pre-Iterations <==

   -------------------------------------------------------
    Irrep   Nso     Nmo     Nalpha   Nbeta   Ndocc  Nsocc
   -------------------------------------------------------
     A         48      48       0       0       0       0
   -------------------------------------------------------
    Total      48      48       9       9       9       0
   -------------------------------------------------------

  ==> Integral Setup <==

  DFHelper Memory: AOs need 0.006 GiB; user supplied 0.489 GiB. Using in-core AOs.

  ==> MemDFJK: Density-Fitted J/K Matrices <==

    J tasked:                   Yes
    K tasked:                   Yes
    wK tasked:                   No
    OpenMP threads:               1
    Memory [MiB]:               500
    Algorithm:                 Core
    Schwarz Cutoff:           1E-12
    Mask sparsity (%):       0.0000
    Fitting Condition:        1E-10

   => Auxiliary Basis Set <=

  Basis Set: (6-311G* AUX)
    Blend: CC-PVTZ-JKFIT
    Number of shells: 90
    Number of basis function: 278
    Number of Cartesian functions: 332
    Spherical Harmonics?: true
    Max angular momentum: 4

  Minimum eigenvalue in the overlap matrix is 1.1412931222E-02.
  Using Symmetric Orthogonalization.

  SCF Guess: Superposition of Atomic Densities via on-the-fly atomic UHF.

  ==> Iterations <==

                           Total Energy        Delta E     RMS |[F,P]|

   @DF-RHF iter SAD:  -114.38084232194811   -1.14381e+02   0.00000e+00 
   @DF-RHF iter   1:  -114.98401980613492   -6.03177e-01   8.11092e-03 DIIS
   @DF-RHF iter   2:  -115.04230420620071   -5.82844e-02   4.49888e-03 DIIS
   @DF-RHF iter   3:  -115.05768915747583   -1.53850e-02   7.14938e-04 DIIS
   @DF-RHF iter   4:  -115.05852959909242   -8.40442e-04   1.95143e-04 DIIS
   @DF-RHF iter   5:  -115.05859074997977   -6.11509e-05   4.80488e-05 DIIS
   @DF-RHF iter   6:  -115.05859455222253   -3.80224e-06   1.04431e-05 DIIS
   @DF-RHF iter   7:  -115.05859487032446   -3.18102e-07   2.37593e-06 DIIS
   @DF-RHF iter   8:  -115.05859488901487   -1.86904e-08   4.43238e-07 DIIS
   @DF-RHF iter   9:  -115.05859488967026   -6.55390e-10   8.36293e-08 DIIS
   @DF-RHF iter  10:  -115.05859488969287   -2.26095e-11   2.32842e-08 DIIS
   @DF-RHF iter  11:  -115.05859488969438   -1.50635e-12   4.60348e-09 DIIS
  Energy and wave function converged.


  ==> Post-Iterations <==

    Orbital Energies [Eh]
    ---------------------

    Doubly Occupied:                                                      

       1A    -20.543364     2A    -11.271541     3A     -1.344185  
       4A     -0.920170     5A     -0.680967     6A     -0.616438  
       7A     -0.587002     8A     -0.501977     9A     -0.443999  

    Virtual:                                                              

      10A      0.148457    11A      0.186331    12A      0.228007  
      13A      0.232066    14A      0.335555    15A      0.462060  
      16A      0.468344    17A      0.586792    18A      0.677812  
      19A      0.725235    20A      0.787354    21A      0.792795  
      22A      0.946478    23A      1.073334    24A      1.075979  
      25A      1.197537    26A      1.550186    27A      1.571830  
      28A      1.686874    29A      1.768486    30A      1.776995  
      31A      1.965858    32A      2.378410    33A      2.630384  
      34A      2.697778    35A      2.714095    36A      3.165642  
      37A      3.187804    38A      3.316455    39A      3.367271  
      40A      3.558981    41A      3.574491    42A      3.733476  
      43A      4.257745    44A      5.377414    45A      5.526709  
      46A      5.864233    47A     24.534504    48A     51.521597  

    Final Occupation by Irrep:
              A 
    DOCC [     9 ]

  @DF-RHF Final Energy:  -115.05859488969438

   => Energetics <=

    Nuclear Repulsion Energy =             40.0654236841194802
    One-Electron Energy =                -236.4287537917693953
    Two-Electron Energy =                  81.3047352179555389
    Total Energy =                       -115.0585948896943762

Computation Completed


Properties will be evaluated at   0.000000,   0.000000,   0.000000 [a0]

Properties computed using the SCF density matrix

  Nuclear Dipole Moment: [e a0]
     X:    -2.1305      Y:    -0.7393      Z:    -0.2824

  Electronic Dipole Moment: [e a0]
     X:     1.6388      Y:     0.0957      Z:     0.0776

  Dipole Moment: [e a0]
     X:    -0.4917      Y:    -0.6436      Z:    -0.2047     Total:     0.8354

  Dipole Moment: [D]
     X:    -1.2498      Y:    -1.6360      Z:    -0.5204     Total:     2.1235


*** tstop() called on node37.bme.utexas.edu at Sun Dec 29 12:31:18 2019
Module time:
	user time   =       0.93 seconds =       0.02 minutes
	system time =       0.02 seconds =       0.00 minutes
	total time  =          1 seconds =       0.02 minutes
Total time:
	user time   =       0.93 seconds =       0.02 minutes
	system time =       0.02 seconds =       0.00 minutes
	total time  =          1 seconds =       0.02 minutes

*** tstart() called on node37.bme.utexas.edu
*** at Sun Dec 29 12:31:18 2019


         ------------------------------------------------------------
                                   SCF GRAD                          
                          Rob Parrish, Justin Turney,                
                       Andy Simmonett, and Alex Sokolov              
         ------------------------------------------------------------

  ==> Geometry <==

    Molecular point group: c1
    Full point group: C1

    Geometry (in Angstrom), charge = 0, multiplicity = 1:

       Center              X                  Y                   Z               Mass       
    ------------   -----------------  -----------------  -----------------  -----------------
         O            0.697506444446     0.035796265406     0.014085033079    15.994914619570
         C           -0.738547555554     0.018535265406     0.006528033079    12.000000000000
         H           -1.097234555554     0.627087265406     0.841202033079     1.007825032230
         H           -1.082559555554    -1.016330734594     0.083971033079     1.007825032230
         H           -1.073634555554     0.449650265406    -0.941379966921     1.007825032230
         H            0.977254444446    -0.849215734594    -0.285060966921     1.007825032230

  Nuclear repulsion =   40.065423684119480

  ==> Basis Set <==

  Basis Set: 6-311G*
    Blend: 6-311G*
    Number of shells: 28
    Number of basis function: 48
    Number of Cartesian functions: 50
    Spherical Harmonics?: true
    Max angular momentum: 2

  ==> DFJKGrad: Density-Fitted SCF Gradients <==

    Gradient:                    1
    J tasked:                  Yes
    K tasked:                  Yes
    wK tasked:                  No
    OpenMP threads:              1
    Integrals threads:           1
    Memory [MiB]:              500
    Schwarz Cutoff:          0E+00
    Fitting Condition:       1E-10

   => Auxiliary Basis Set <=

  Basis Set: (6-311G* AUX)
    Blend: CC-PVTZ-JKFIT
    Number of shells: 90
    Number of basis function: 278
    Number of Cartesian functions: 332
    Spherical Harmonics?: true
    Max angular momentum: 4


  -Total Gradient:
     Atom            X                  Y                   Z
    ------   -----------------  -----------------  -----------------
       1        0.011023399745     0.039593168496     0.007895428113
       2       -0.022427262127    -0.003849175921     0.006600056854
       3       -0.001922927676     0.007367814063     0.006878361340
       4        0.004945625916    -0.009041652281    -0.002878471593
       5        0.003988596194     0.003441470726    -0.007641918783
       6        0.004392567949    -0.037511625084    -0.010853455930


*** tstop() called on node37.bme.utexas.edu at Sun Dec 29 12:31:18 2019
Module time:
	user time   =       0.46 seconds =       0.01 minutes
	system time =       0.02 seconds =       0.00 minutes
	total time  =          0 seconds =       0.00 minutes
Total time:
	user time   =       1.39 seconds =       0.02 minutes
	system time =       0.04 seconds =       0.00 minutes
	total time  =          1 seconds =       0.02 minutes

			-----------------------------------------
			 OPTKING 2.0: for geometry optimizations 
			  - R.A. King,  Bethel University        
			-----------------------------------------

	Internal coordinates to be generated automatically.
	Detected frag 1 with atoms:  1 2 3 4 5 6
	---Fragment 1 Bond Connectivity---
	 1 : 2 6
	 2 : 1 3 4 5
	 3 : 2
	 4 : 2
	 5 : 2
	 6 : 1

	Assuming in current code that numbering for constraints corresponds to unified fragment.
	---Fragment 1 Geometry and Gradient---
	 O           1.3180961507        0.0676451379        0.0266168550
	 C          -1.3956526106        0.0350265753        0.0123361947
	 H          -2.0734728054        1.1850231884        1.5896414587
	 H          -2.0457410745       -1.9205867413        0.1586822550
	 H          -2.0288752688        0.8497158539       -1.7789503175
	 H           1.8467432549       -1.6047851598       -0.5386871565
	             0.0110233997        0.0395931685        0.0078954281
	            -0.0224272621       -0.0038491759        0.0066000569
	            -0.0019229277        0.0073678141        0.0068783613
	             0.0049456259       -0.0090416523       -0.0028784716
	             0.0039885962        0.0034414707       -0.0076419188
	             0.0043925679       -0.0375116251       -0.0108534559

	Previous optimization step data not found.  Starting new optimization.

	---Fragment 1 Intrafragment Coordinates---
	 - Coordinate -           - BOHR/RAD -       - ANG/DEG -
	 R(1,2)           =         2.713982	       1.436178
	 R(1,6)           =         1.842840	       0.975189
	 R(2,3)           =         2.066355	       1.093468
	 R(2,4)           =         2.066024	       1.093293
	 R(2,5)           =         2.067220	       1.093926
	 B(1,2,3)         =         1.893670	     108.499316
	 B(1,2,4)         =         1.902478	     109.003952
	 B(1,2,5)         =         1.881903	     107.825119
	 B(2,1,6)         =         1.848678	     105.921453
	 B(3,2,4)         =         1.949274	     111.685160
	 B(3,2,5)         =         1.919446	     109.976134
	 B(4,2,5)         =         1.915623	     109.757085
	 D(3,2,1,6)       =         2.529318	     144.919234
	 D(4,2,1,6)       =         0.403063	      23.093833
	 D(5,2,1,6)       =        -1.675572	     -96.003203

	Current energy   :      -115.0585948897

	Generating empirical Hessian (Schlegel '84) for each fragment.
	Taking RFO optimization step.
	Going to follow RFO solution 1.
	Using RFO vector 1.
	Norm of target step-size    0.29064
	Projected energy change by RFO approximation:        -0.0138168093

	Back-transformation to cartesian coordinates...
	Successfully converged to displaced geometry.

	--- Internal Coordinate Step in ANG or DEG, aJ/ANG or AJ/DEG ---
	 ---------------------------------------------------------------------------
	   Coordinate                Previous        Force       Change         New 
	   ----------                --------       ------       ------       ------
	    1 R(1,2)          =      1.436178    -0.127075    -0.019985     1.416193
	    2 R(1,6)          =      0.975189    -0.318281    -0.038531     0.936658
	    3 R(2,3)          =      1.093468    -0.082236    -0.015031     1.078437
	    4 R(2,4)          =      1.093293    -0.056010    -0.010232     1.083061
	    5 R(2,5)          =      1.093926    -0.055664    -0.010189     1.083736
	    6 B(1,2,3)        =    108.499316    -0.000190    -1.256572   107.242744
	    7 B(1,2,4)        =    109.003952     0.000725     3.349282   112.353234
	    8 B(1,2,5)        =    107.825119     0.000711     3.511923   111.337042
	    9 B(2,1,6)        =    105.921453     0.000979     3.444447   109.365900
	   10 B(3,2,4)        =    111.685160    -0.000577    -3.177950   108.507209
	   11 B(3,2,5)        =    109.976134    -0.000273    -1.202811   108.773323
	   12 B(4,2,5)        =    109.757085    -0.000336    -1.226691   108.530394
	   13 D(3,2,1,6)      =    144.919234    -0.000009     7.093396   152.012630
	   14 D(4,2,1,6)      =     23.093833     0.000078     9.775617    32.869450
	   15 D(5,2,1,6)      =    -96.003203    -0.000016     6.897691   -89.105512
	 ---------------------------------------------------------------------------
	Successfully symmetrized geometry.

  ==> Convergence Check <==

  Measures of convergence in internal coordinates in au.
  Criteria marked as inactive (o), active & met (*), and active & unmet ( ).
  --------------------------------------------------------------------------------------------- ~
   Step     Total Energy     Delta E     MAX Force     RMS Force      MAX Disp      RMS Disp    ~
  --------------------------------------------------------------------------------------------- ~
    Convergence Criteria    1.00e-06 *    3.00e-04 *             o    1.20e-03 *             o  ~
  --------------------------------------------------------------------------------------------- ~
      1    -115.05859489   -1.15e+02      3.86e-02      1.26e-02 o    1.71e-01      7.41e-02 o  ~
  ---------------------------------------------------------------------------------------------

	Writing optimization data to binary file.
	Structure for next step:
	Cartesian Geometry (in Angstrom)
	    O     0.6929489757  -0.0026216545   0.0351337911
	    C    -0.7230607700   0.0009269158   0.0126579396
	    H    -1.0550081799   0.5616034033   0.8720063954
	    H    -1.1384662676  -0.9975296529   0.0721946476
	    H    -1.1020159858   0.4787765917  -0.8831863962
	    H     1.0083869034  -0.7756330081  -0.3894611779
			--------------------------
			 OPTKING Finished Execution 
			--------------------------

    Structure for next step:
    Molecular point group: c1
    Full point group: C1

    Geometry (in Angstrom), charge = 0, multiplicity = 1:

    O            0.689766264658     0.021400131208     0.023179814410
    C           -0.726243486557     0.024948701471     0.000703962765
    H           -1.058190897757     0.585625191157     0.860052421989
    H           -1.141648985761    -0.973507871143     0.060240671018
    H           -1.105198703839     0.502798379275    -0.895140376513
    H            1.005204193633    -0.751611225452    -0.401415156334

gradient() will perform analytic gradient computation.

*** tstart() called on node37.bme.utexas.edu
*** at Sun Dec 29 12:31:18 2019

   => Loading Basis Set <=

    Name: 6-311G*
    Role: ORBITAL
    Keyword: BASIS
    atoms 1   entry O          line   152 file /home/bdw2292/miniconda3/envs/p4env/share/psi4/basis/6-311gs.gbs 
    atoms 2   entry C          line   114 file /home/bdw2292/miniconda3/envs/p4env/share/psi4/basis/6-311gs.gbs 
    atoms 3-6 entry H          line    37 file /home/bdw2292/miniconda3/envs/p4env/share/psi4/basis/6-311gs.gbs 


         ---------------------------------------------------------
                                   SCF
               by Justin Turney, Rob Parrish, Andy Simmonett
                          and Daniel G. A. Smith
                              RHF Reference
                        1 Threads,    667 MiB Core
         ---------------------------------------------------------

  ==> Geometry <==

    Molecular point group: c1
    Full point group: C1

    Geometry (in Angstrom), charge = 0, multiplicity = 1:

       Center              X                  Y                   Z               Mass       
    ------------   -----------------  -----------------  -----------------  -----------------
         O            0.689766264658     0.021400131208     0.023179814410    15.994914619570
         C           -0.726243486557     0.024948701471     0.000703962765    12.000000000000
         H           -1.058190897757     0.585625191157     0.860052421989     1.007825032230
         H           -1.141648985761    -0.973507871143     0.060240671018     1.007825032230
         H           -1.105198703839     0.502798379275    -0.895140376513     1.007825032230
         H            1.005204193633    -0.751611225452    -0.401415156334     1.007825032230

  Running in c1 symmetry.

  Rotational constants: A =      4.40560  B =      0.83323  C =      0.80512 [cm^-1]
  Rotational constants: A = 132076.50170  B =  24979.69261  C =  24136.93209 [MHz]
  Nuclear repulsion =   40.614373442801813

  Charge       = 0
  Multiplicity = 1
  Electrons    = 18
  Nalpha       = 9
  Nbeta        = 9

  ==> Algorithm <==

  SCF Algorithm Type is DF.
  DIIS enabled.
  MOM disabled.
  Fractional occupation disabled.
  Guess Type is READ.
  Energy threshold   = 1.00e-08
  Density threshold  = 1.00e-08
  Integral threshold = 0.00e+00

  ==> Primary Basis <==

  Basis Set: 6-311G*
    Blend: 6-311G*
    Number of shells: 28
    Number of basis function: 48
    Number of Cartesian functions: 50
    Spherical Harmonics?: true
    Max angular momentum: 2

   => Loading Basis Set <=

    Name: (6-311G* AUX)
    Role: JKFIT
    Keyword: DF_BASIS_SCF
    atoms 1   entry O          line   229 file /home/bdw2292/miniconda3/envs/p4env/share/psi4/basis/cc-pvtz-jkfit.gbs 
    atoms 2   entry C          line   125 file /home/bdw2292/miniconda3/envs/p4env/share/psi4/basis/cc-pvtz-jkfit.gbs 
    atoms 3-6 entry H          line    51 file /home/bdw2292/miniconda3/envs/p4env/share/psi4/basis/cc-pvtz-jkfit.gbs 

   => Loading Basis Set <=

    Name: 6-311G*
    Role: ORBITAL
    Keyword: BASIS
    atoms 1   entry O          line   152 file /home/bdw2292/miniconda3/envs/p4env/share/psi4/basis/6-311gs.gbs 
    atoms 2   entry C          line   114 file /home/bdw2292/miniconda3/envs/p4env/share/psi4/basis/6-311gs.gbs 
    atoms 3-6 entry H          line    37 file /home/bdw2292/miniconda3/envs/p4env/share/psi4/basis/6-311gs.gbs 

  Reading orbitals from file 180, no projection.

  ==> Pre-Iterations <==

   -------------------------------------------------------
    Irrep   Nso     Nmo     Nalpha   Nbeta   Ndocc  Nsocc
   -------------------------------------------------------
     A         48      48       0       0       0       0
   -------------------------------------------------------
    Total      48      48       9       9       9       0
   -------------------------------------------------------

  ==> Integral Setup <==

  DFHelper Memory: AOs need 0.006 GiB; user supplied 0.489 GiB. Using in-core AOs.

  ==> MemDFJK: Density-Fitted J/K Matrices <==

    J tasked:                   Yes
    K tasked:                   Yes
    wK tasked:                   No
    OpenMP threads:               1
    Memory [MiB]:               500
    Algorithm:                 Core
    Schwarz Cutoff:           1E-12
    Mask sparsity (%):       0.0000
    Fitting Condition:        1E-10

   => Auxiliary Basis Set <=

  Basis Set: (6-311G* AUX)
    Blend: CC-PVTZ-JKFIT
    Number of shells: 90
    Number of basis function: 278
    Number of Cartesian functions: 332
    Spherical Harmonics?: true
    Max angular momentum: 4

  Minimum eigenvalue in the overlap matrix is 1.0907549194E-02.
  Using Symmetric Orthogonalization.

  SCF Guess: Orbitals guess was supplied from a previous computation.

  ==> Iterations <==

                           Total Energy        Delta E     RMS |[F,P]|

   @DF-RHF iter   0:  -115.09535207458076   -1.15095e+02   2.60929e-03 
   @DF-RHF iter   1:  -115.06164564318443    3.37064e-02   5.81126e-04 DIIS
   @DF-RHF iter   2:  -115.06230745733751   -6.61814e-04   2.16560e-04 DIIS
   @DF-RHF iter   3:  -115.06244827688529   -1.40820e-04   7.12613e-05 DIIS
   @DF-RHF iter   4:  -115.06246595430483   -1.76774e-05   2.01559e-05 DIIS
   @DF-RHF iter   5:  -115.06246734797340   -1.39367e-06   7.11682e-06 DIIS
   @DF-RHF iter   6:  -115.06246749169532   -1.43722e-07   1.84353e-06 DIIS
   @DF-RHF iter   7:  -115.06246749937087   -7.67555e-09   5.75393e-07 DIIS
   @DF-RHF iter   8:  -115.06246750006324   -6.92367e-10   1.10519e-07 DIIS
   @DF-RHF iter   9:  -115.06246750009649   -3.32534e-11   1.80828e-08 DIIS
   @DF-RHF iter  10:  -115.06246750009740   -9.09495e-13   4.12719e-09 DIIS
  Energy and wave function converged.


  ==> Post-Iterations <==

    Orbital Energies [Eh]
    ---------------------

    Doubly Occupied:                                                      

       1A    -20.540815     2A    -11.265226     3A     -1.358438  
       4A     -0.929777     5A     -0.694213     6A     -0.619758  
       7A     -0.593186     8A     -0.501470     9A     -0.445839  

    Virtual:                                                              

      10A      0.153602    11A      0.188506    12A      0.228885  
      13A      0.233633    14A      0.343660    15A      0.463455  
      16A      0.476472    17A      0.607432    18A      0.690418  
      19A      0.739113    20A      0.792251    21A      0.801815  
      22A      0.946948    23A      1.068536    24A      1.079966  
      25A      1.187844    26A      1.544282    27A      1.591104  
      28A      1.682637    29A      1.769381    30A      1.772960  
      31A      1.986520    32A      2.369828    33A      2.621050  
      34A      2.717797    35A      2.725029    36A      3.161191  
      37A      3.227993    38A      3.357266    39A      3.396598  
      40A      3.553175    41A      3.570338    42A      3.822944  
      43A      4.272028    44A      5.383134    45A      5.548931  
      46A      5.913741    47A     24.554957    48A     51.525488  

    Final Occupation by Irrep:
              A 
    DOCC [     9 ]

  @DF-RHF Final Energy:  -115.06246750009740

   => Energetics <=

    Nuclear Repulsion Energy =             40.6143734428018135
    One-Electron Energy =                -237.4562405289194089
    Two-Electron Energy =                  81.7793995860201903
    Total Energy =                       -115.0624675000973980

Computation Completed


Properties will be evaluated at   0.000000,   0.000000,   0.000000 [a0]

Properties computed using the SCF density matrix

  Nuclear Dipole Moment: [e a0]
     X:    -2.1527      Y:    -0.5968      Z:    -0.3526

  Electronic Dipole Moment: [e a0]
     X:     1.7092      Y:     0.0178      Z:     0.0428

  Dipole Moment: [e a0]
     X:    -0.4435      Y:    -0.5790      Z:    -0.3098     Total:     0.7924

  Dipole Moment: [D]
     X:    -1.1273      Y:    -1.4716      Z:    -0.7874     Total:     2.0140


*** tstop() called on node37.bme.utexas.edu at Sun Dec 29 12:31:19 2019
Module time:
	user time   =       0.44 seconds =       0.01 minutes
	system time =       0.03 seconds =       0.00 minutes
	total time  =          1 seconds =       0.02 minutes
Total time:
	user time   =       1.85 seconds =       0.03 minutes
	system time =       0.07 seconds =       0.00 minutes
	total time  =          2 seconds =       0.03 minutes

*** tstart() called on node37.bme.utexas.edu
*** at Sun Dec 29 12:31:19 2019


         ------------------------------------------------------------
                                   SCF GRAD                          
                          Rob Parrish, Justin Turney,                
                       Andy Simmonett, and Alex Sokolov              
         ------------------------------------------------------------

  ==> Geometry <==

    Molecular point group: c1
    Full point group: C1

    Geometry (in Angstrom), charge = 0, multiplicity = 1:

       Center              X                  Y                   Z               Mass       
    ------------   -----------------  -----------------  -----------------  -----------------
         O            0.689766264658     0.021400131208     0.023179814410    15.994914619570
         C           -0.726243486557     0.024948701471     0.000703962765    12.000000000000
         H           -1.058190897757     0.585625191157     0.860052421989     1.007825032230
         H           -1.141648985761    -0.973507871143     0.060240671018     1.007825032230
         H           -1.105198703839     0.502798379275    -0.895140376513     1.007825032230
         H            1.005204193633    -0.751611225452    -0.401415156334     1.007825032230

  Nuclear repulsion =   40.614373442801813

  ==> Basis Set <==

  Basis Set: 6-311G*
    Blend: 6-311G*
    Number of shells: 28
    Number of basis function: 48
    Number of Cartesian functions: 50
    Spherical Harmonics?: true
    Max angular momentum: 2

  ==> DFJKGrad: Density-Fitted SCF Gradients <==

    Gradient:                    1
    J tasked:                  Yes
    K tasked:                  Yes
    wK tasked:                  No
    OpenMP threads:              1
    Integrals threads:           1
    Memory [MiB]:              500
    Schwarz Cutoff:          0E+00
    Fitting Condition:       1E-10

   => Auxiliary Basis Set <=

  Basis Set: (6-311G* AUX)
    Blend: CC-PVTZ-JKFIT
    Number of shells: 90
    Number of basis function: 278
    Number of Cartesian functions: 332
    Spherical Harmonics?: true
    Max angular momentum: 4


  -Total Gradient:
     Atom            X                  Y                   Z
    ------   -----------------  -----------------  -----------------
       1        0.013022747204     0.001886470938    -0.001378423651
       2       -0.011364106890    -0.002933915356    -0.000680195982
       3        0.001241059217    -0.001096029993    -0.000843784382
       4       -0.000509421107     0.002226150523    -0.001068943808
       5       -0.000242708862    -0.000351971502     0.001534575898
       6       -0.002147569564     0.000269295390     0.002436771925


*** tstop() called on node37.bme.utexas.edu at Sun Dec 29 12:31:19 2019
Module time:
	user time   =       0.47 seconds =       0.01 minutes
	system time =       0.01 seconds =       0.00 minutes
	total time  =          0 seconds =       0.00 minutes
Total time:
	user time   =       2.32 seconds =       0.04 minutes
	system time =       0.08 seconds =       0.00 minutes
	total time  =          2 seconds =       0.03 minutes

			-----------------------------------------
			 OPTKING 2.0: for geometry optimizations 
			  - R.A. King,  Bethel University        
			-----------------------------------------

	Previous internal coordinate definitions found.
	---Fragment 1 Geometry and Gradient---
	 O           1.3034693308        0.0404403870        0.0438035009
	 C          -1.3724012900        0.0471462130        0.0013302968
	 H          -1.9996909852        1.1066712235        1.6252635311
	 H          -2.1574039145       -1.8396632574        0.1138383698
	 H          -2.0885228645        0.9501512332       -1.6915701554
	 H           1.8995606261       -1.4203393689       -0.7585647081
	             0.0130227472        0.0018864709       -0.0013784237
	            -0.0113641069       -0.0029339154       -0.0006801960
	             0.0012410592       -0.0010960300       -0.0008437844
	            -0.0005094211        0.0022261505       -0.0010689438
	            -0.0002427089       -0.0003519715        0.0015345759
	            -0.0021475696        0.0002692954        0.0024367719

	---Fragment 1 Intrafragment Coordinates---
	 - Coordinate -           - BOHR/RAD -       - ANG/DEG -
	 R(1,2)           =         2.676216	       1.416193
	 R(1,6)           =         1.770027	       0.936658
	 R(2,3)           =         2.037951	       1.078437
	 R(2,4)           =         2.046689	       1.083061
	 R(2,5)           =         2.047965	       1.083736
	 B(1,2,3)         =         1.871739	     107.242744
	 B(1,2,4)         =         1.960934	     112.353234
	 B(1,2,5)         =         1.943198	     111.337042
	 B(2,1,6)         =         1.908795	     109.365900
	 B(3,2,4)         =         1.893808	     108.507209
	 B(3,2,5)         =         1.898453	     108.773323
	 B(4,2,5)         =         1.894213	     108.530394
	 D(3,2,1,6)       =         2.653121	     152.012630
	 D(4,2,1,6)       =         0.573680	      32.869450
	 D(5,2,1,6)       =        -1.555185	     -89.105512

	Current energy   :      -115.0624675001

	Energy change for the previous step:
		Projected    :        -0.0138168093
		Actual       :        -0.0038726104

	Performing BFGS update.
	Previous computed or guess Hessian on step 1.
	Steps to be used in Hessian update: 1
	Taking RFO optimization step.
	Going to follow RFO solution 1.
	Using RFO vector 1.

	Determining step-restricting scale parameter for RS-RFO.
	Maximum step size allowed    0.50000

	 Iter      |step|        alpha        rfo_root  
	------------------------------------------------
	    0     0.86062       1.00000           1
	    1     0.62781       1.78508           1
	    2     0.52680       2.43948           1
	    3     0.50167       2.65799           1
	    4     0.50001       2.67348           1
	------------------------------------------------
	Norm of target step-size    0.50001
	Projected energy change by RFO approximation:         0.0021297422

	Back-transformation to cartesian coordinates...
	Successfully converged to displaced geometry.

	--- Internal Coordinate Step in ANG or DEG, aJ/ANG or AJ/DEG ---
	 ---------------------------------------------------------------------------
	   Coordinate                Previous        Force       Change         New 
	   ----------                --------       ------       ------       ------
	    1 R(1,2)          =      1.416193    -0.089680    -0.015833     1.400360
	    2 R(1,6)          =      0.936658     0.016890    -0.000739     0.935919
	    3 R(2,3)          =      1.078437     0.013381     0.001402     1.079839
	    4 R(2,4)          =      1.083061     0.015782     0.002197     1.085259
	    5 R(2,5)          =      1.083736     0.011030     0.001319     1.085055
	    6 B(1,2,3)        =    107.242744     0.000129     0.584894   107.827638
	    7 B(1,2,4)        =    112.353234    -0.000161    -0.579662   111.773572
	    8 B(1,2,5)        =    111.337042    -0.000065    -0.102633   111.234409
	    9 B(2,1,6)        =    109.365900     0.000204    -0.858899   108.507001
	   10 B(3,2,4)        =    108.507209     0.000007    -0.213608   108.293602
	   11 B(3,2,5)        =    108.773323     0.000008     0.036897   108.810220
	   12 B(4,2,5)        =    108.530394     0.000087     0.282992   108.813386
	   13 D(3,2,1,6)      =    152.012630     0.000016    16.294991   168.307622
	   14 D(4,2,1,6)      =     32.869450     0.000016    16.523482    49.392933
	   15 D(5,2,1,6)      =    -89.105512     0.000028    16.644018   -72.461494
	 ---------------------------------------------------------------------------
	Successfully symmetrized geometry.

  ==> Convergence Check <==

  Measures of convergence in internal coordinates in au.
  Criteria marked as inactive (o), active & met (*), and active & unmet ( ).
  ---------------------------------------------------------------------------------------------
   Step     Total Energy     Delta E     MAX Force     RMS Force      MAX Disp      RMS Disp   
  ---------------------------------------------------------------------------------------------
    Convergence Criteria    1.00e-06 *    3.00e-04 *             o    1.20e-03 *             o
  ---------------------------------------------------------------------------------------------
      2    -115.06246750   -3.87e-03      1.09e-02      3.18e-03 o    2.90e-01      1.29e-01 o  ~
  ---------------------------------------------------------------------------------------------

	Writing optimization data to binary file.
	Structure for next step:
	Cartesian Geometry (in Angstrom)
	    O     0.6815237669  -0.0376155900   0.0746497483
	    C    -0.7168371306   0.0178543025   0.0244727240
	    H    -1.0537037801   0.6218872237   0.8537598806
	    H    -1.1623967067  -0.9673400824   0.1175053301
	    H    -1.0592420935   0.4708539945  -0.9001324252
	    H     0.9743443375  -0.6959865395  -0.5226339191
			--------------------------
			 OPTKING Finished Execution 
			--------------------------

    Structure for next step:
    Molecular point group: c1
    Full point group: C1

    Geometry (in Angstrom), charge = 0, multiplicity = 1:

    O            0.682152464937    -0.007563434911     0.042405697689
    C           -0.716208438043     0.047906457783    -0.007771326768
    H           -1.053075088875     0.651939381409     0.821515833040
    H           -1.161768015917    -0.937287930917     0.085261279735
    H           -1.058613402288     0.500906151572    -0.932376479595
    H            0.974973036634    -0.665934386965    -0.554877971992

gradient() will perform analytic gradient computation.

*** tstart() called on node37.bme.utexas.edu
*** at Sun Dec 29 12:31:19 2019

   => Loading Basis Set <=

    Name: 6-311G*
    Role: ORBITAL
    Keyword: BASIS
    atoms 1   entry O          line   152 file /home/bdw2292/miniconda3/envs/p4env/share/psi4/basis/6-311gs.gbs 
    atoms 2   entry C          line   114 file /home/bdw2292/miniconda3/envs/p4env/share/psi4/basis/6-311gs.gbs 
    atoms 3-6 entry H          line    37 file /home/bdw2292/miniconda3/envs/p4env/share/psi4/basis/6-311gs.gbs 


         ---------------------------------------------------------
                                   SCF
               by Justin Turney, Rob Parrish, Andy Simmonett
                          and Daniel G. A. Smith
                              RHF Reference
                        1 Threads,    667 MiB Core
         ---------------------------------------------------------

  ==> Geometry <==

    Molecular point group: c1
    Full point group: C1

    Geometry (in Angstrom), charge = 0, multiplicity = 1:

       Center              X                  Y                   Z               Mass       
    ------------   -----------------  -----------------  -----------------  -----------------
         O            0.682152464937    -0.007563434911     0.042405697689    15.994914619570
         C           -0.716208438043     0.047906457783    -0.007771326768    12.000000000000
         H           -1.053075088875     0.651939381409     0.821515833040     1.007825032230
         H           -1.161768015917    -0.937287930917     0.085261279735     1.007825032230
         H           -1.058613402288     0.500906151572    -0.932376479595     1.007825032230
         H            0.974973036634    -0.665934386965    -0.554877971992     1.007825032230

  Running in c1 symmetry.

  Rotational constants: A =      4.38455  B =      0.84988  C =      0.82080 [cm^-1]
  Rotational constants: A = 131445.46867  B =  25478.61216  C =  24606.87612 [MHz]
  Nuclear repulsion =   40.870627131311629

  Charge       = 0
  Multiplicity = 1
  Electrons    = 18
  Nalpha       = 9
  Nbeta        = 9

  ==> Algorithm <==

  SCF Algorithm Type is DF.
  DIIS enabled.
  MOM disabled.
  Fractional occupation disabled.
  Guess Type is READ.
  Energy threshold   = 1.00e-08
  Density threshold  = 1.00e-08
  Integral threshold = 0.00e+00

  ==> Primary Basis <==

  Basis Set: 6-311G*
    Blend: 6-311G*
    Number of shells: 28
    Number of basis function: 48
    Number of Cartesian functions: 50
    Spherical Harmonics?: true
    Max angular momentum: 2

   => Loading Basis Set <=

    Name: (6-311G* AUX)
    Role: JKFIT
    Keyword: DF_BASIS_SCF
    atoms 1   entry O          line   229 file /home/bdw2292/miniconda3/envs/p4env/share/psi4/basis/cc-pvtz-jkfit.gbs 
    atoms 2   entry C          line   125 file /home/bdw2292/miniconda3/envs/p4env/share/psi4/basis/cc-pvtz-jkfit.gbs 
    atoms 3-6 entry H          line    51 file /home/bdw2292/miniconda3/envs/p4env/share/psi4/basis/cc-pvtz-jkfit.gbs 

   => Loading Basis Set <=

    Name: 6-311G*
    Role: ORBITAL
    Keyword: BASIS
    atoms 1   entry O          line   152 file /home/bdw2292/miniconda3/envs/p4env/share/psi4/basis/6-311gs.gbs 
    atoms 2   entry C          line   114 file /home/bdw2292/miniconda3/envs/p4env/share/psi4/basis/6-311gs.gbs 
    atoms 3-6 entry H          line    37 file /home/bdw2292/miniconda3/envs/p4env/share/psi4/basis/6-311gs.gbs 

  Reading orbitals from file 180, no projection.

  ==> Pre-Iterations <==

   -------------------------------------------------------
    Irrep   Nso     Nmo     Nalpha   Nbeta   Ndocc  Nsocc
   -------------------------------------------------------
     A         48      48       0       0       0       0
   -------------------------------------------------------
    Total      48      48       9       9       9       0
   -------------------------------------------------------

  ==> Integral Setup <==

  DFHelper Memory: AOs need 0.006 GiB; user supplied 0.489 GiB. Using in-core AOs.

  ==> MemDFJK: Density-Fitted J/K Matrices <==

    J tasked:                   Yes
    K tasked:                   Yes
    wK tasked:                   No
    OpenMP threads:               1
    Memory [MiB]:               500
    Algorithm:                 Core
    Schwarz Cutoff:           1E-12
    Mask sparsity (%):       0.0000
    Fitting Condition:        1E-10

   => Auxiliary Basis Set <=

  Basis Set: (6-311G* AUX)
    Blend: CC-PVTZ-JKFIT
    Number of shells: 90
    Number of basis function: 278
    Number of Cartesian functions: 332
    Spherical Harmonics?: true
    Max angular momentum: 4

  Minimum eigenvalue in the overlap matrix is 1.0643525059E-02.
  Using Symmetric Orthogonalization.

  SCF Guess: Orbitals guess was supplied from a previous computation.

  ==> Iterations <==

                           Total Energy        Delta E     RMS |[F,P]|

   @DF-RHF iter   0:  -115.05876505287010   -1.15059e+02   2.80159e-03 
   @DF-RHF iter   1:  -115.06229519619858   -3.53014e-03   6.47238e-04 DIIS
   @DF-RHF iter   2:  -115.06317900635476   -8.83810e-04   2.60686e-04 DIIS
   @DF-RHF iter   3:  -115.06338156990148   -2.02564e-04   9.98244e-05 DIIS
   @DF-RHF iter   4:  -115.06340012089278   -1.85510e-05   2.91225e-05 DIIS
   @DF-RHF iter   5:  -115.06340321612096   -3.09523e-06   7.16001e-06 DIIS
   @DF-RHF iter   6:  -115.06340336961561   -1.53495e-07   2.13388e-06 DIIS
   @DF-RHF iter   7:  -115.06340338260557   -1.29900e-08   4.16940e-07 DIIS
   @DF-RHF iter   8:  -115.06340338319737   -5.91797e-10   1.01598e-07 DIIS
   @DF-RHF iter   9:  -115.06340338323136   -3.39924e-11   1.47429e-08 DIIS
   @DF-RHF iter  10:  -115.06340338323213   -7.67386e-13   3.67133e-09 DIIS
  Energy and wave function converged.


  ==> Post-Iterations <==

    Orbital Energies [Eh]
    ---------------------

    Doubly Occupied:                                                      

       1A    -20.541598     2A    -11.264454     3A     -1.365351  
       4A     -0.928466     5A     -0.697056     6A     -0.623183  
       7A     -0.596907     8A     -0.500172     9A     -0.445285  

    Virtual:                                                              

      10A      0.154122    11A      0.189615    12A      0.227342  
      13A      0.234042    14A      0.345815    15A      0.462722  
      16A      0.481450    17A      0.597921    18A      0.700522  
      19A      0.738741    20A      0.791604    21A      0.805235  
      22A      0.946300    23A      1.065529    24A      1.079043  
      25A      1.177714    26A      1.546461    27A      1.595612  
      28A      1.690904    29A      1.766494    30A      1.770277  
      31A      1.999702    32A      2.371158    33A      2.621629  
      34A      2.710257    35A      2.723577    36A      3.162665  
      37A      3.253717    38A      3.380340    39A      3.409669  
      40A      3.537079    41A      3.580937    42A      3.823810  
      43A      4.275885    44A      5.384865    45A      5.549321  
      46A      5.927349    47A     24.567663    48A     51.528000  

    Final Occupation by Irrep:
              A 
    DOCC [     9 ]

  @DF-RHF Final Energy:  -115.06340338323213

   => Energetics <=

    Nuclear Repulsion Energy =             40.8706271313116289
    One-Electron Energy =                -237.9431182734421384
    Two-Electron Energy =                  82.0090877588983744
    Total Energy =                       -115.0634033832321279

Computation Completed


Properties will be evaluated at   0.000000,   0.000000,   0.000000 [a0]

Properties computed using the SCF density matrix

  Nuclear Dipole Moment: [e a0]
     X:    -2.1515      Y:    -0.4223      Z:    -0.5440

  Electronic Dipole Moment: [e a0]
     X:     1.7156      Y:    -0.0330      Z:     0.0990

  Dipole Moment: [e a0]
     X:    -0.4359      Y:    -0.4552      Z:    -0.4450     Total:     0.7715

  Dipole Moment: [D]
     X:    -1.1079      Y:    -1.1571      Z:    -1.1311     Total:     1.9611


*** tstop() called on node37.bme.utexas.edu at Sun Dec 29 12:31:20 2019
Module time:
	user time   =       0.47 seconds =       0.01 minutes
	system time =       0.01 seconds =       0.00 minutes
	total time  =          1 seconds =       0.02 minutes
Total time:
	user time   =       2.80 seconds =       0.05 minutes
	system time =       0.09 seconds =       0.00 minutes
	total time  =          3 seconds =       0.05 minutes

*** tstart() called on node37.bme.utexas.edu
*** at Sun Dec 29 12:31:20 2019


         ------------------------------------------------------------
                                   SCF GRAD                          
                          Rob Parrish, Justin Turney,                
                       Andy Simmonett, and Alex Sokolov              
         ------------------------------------------------------------

  ==> Geometry <==

    Molecular point group: c1
    Full point group: C1

    Geometry (in Angstrom), charge = 0, multiplicity = 1:

       Center              X                  Y                   Z               Mass       
    ------------   -----------------  -----------------  -----------------  -----------------
         O            0.682152464937    -0.007563434911     0.042405697689    15.994914619570
         C           -0.716208438043     0.047906457783    -0.007771326768    12.000000000000
         H           -1.053075088875     0.651939381409     0.821515833040     1.007825032230
         H           -1.161768015917    -0.937287930917     0.085261279735     1.007825032230
         H           -1.058613402288     0.500906151572    -0.932376479595     1.007825032230
         H            0.974973036634    -0.665934386965    -0.554877971992     1.007825032230

  Nuclear repulsion =   40.870627131311629

  ==> Basis Set <==

  Basis Set: 6-311G*
    Blend: 6-311G*
    Number of shells: 28
    Number of basis function: 48
    Number of Cartesian functions: 50
    Spherical Harmonics?: true
    Max angular momentum: 2

  ==> DFJKGrad: Density-Fitted SCF Gradients <==

    Gradient:                    1
    J tasked:                  Yes
    K tasked:                  Yes
    wK tasked:                  No
    OpenMP threads:              1
    Integrals threads:           1
    Memory [MiB]:              500
    Schwarz Cutoff:          0E+00
    Fitting Condition:       1E-10

   => Auxiliary Basis Set <=

  Basis Set: (6-311G* AUX)
    Blend: CC-PVTZ-JKFIT
    Number of shells: 90
    Number of basis function: 278
    Number of Cartesian functions: 332
    Spherical Harmonics?: true
    Max angular momentum: 4


  -Total Gradient:
     Atom            X                  Y                   Z
    ------   -----------------  -----------------  -----------------
       1        0.003925706413     0.000228765864    -0.002379054304
       2       -0.001951650920    -0.001120184904    -0.000357077839
       3       -0.000361624901    -0.000815192453    -0.000000536142
       4        0.000836736871     0.000982162897    -0.000463467323
       5        0.001607926841    -0.000482839648     0.000778923173
       6       -0.004057094304     0.001207288245     0.002421212434


*** tstop() called on node37.bme.utexas.edu at Sun Dec 29 12:31:20 2019
Module time:
	user time   =       0.48 seconds =       0.01 minutes
	system time =       0.00 seconds =       0.00 minutes
	total time  =          0 seconds =       0.00 minutes
Total time:
	user time   =       3.28 seconds =       0.05 minutes
	system time =       0.09 seconds =       0.00 minutes
	total time  =          3 seconds =       0.05 minutes

			-----------------------------------------
			 OPTKING 2.0: for geometry optimizations 
			  - R.A. King,  Bethel University        
			-----------------------------------------

	Previous internal coordinate definitions found.
	---Fragment 1 Geometry and Gradient---
	 O           1.2890813345       -0.0142928205        0.0801351548
	 C          -1.3534377966        0.0905300849       -0.0146856792
	 H          -1.9900235075        1.2319868813        1.5524399322
	 H          -2.1954233714       -1.7712174901        0.1611204678
	 H          -2.0004894031        0.9465754410       -1.7619361923
	 H           1.8424320189       -1.2584336089       -1.0485674001
	             0.0039257064        0.0002287659       -0.0023790543
	            -0.0019516509       -0.0011201849       -0.0003570778
	            -0.0003616249       -0.0008151925       -0.0000005361
	             0.0008367369        0.0009821629       -0.0004634673
	             0.0016079268       -0.0004828396        0.0007789232
	            -0.0040570943        0.0012072882        0.0024212124

	---Fragment 1 Intrafragment Coordinates---
	 - Coordinate -           - BOHR/RAD -       - ANG/DEG -
	 R(1,2)           =         2.646297	       1.400360
	 R(1,6)           =         1.768630	       0.935919
	 R(2,3)           =         2.040600	       1.079839
	 R(2,4)           =         2.050842	       1.085259
	 R(2,5)           =         2.050457	       1.085055
	 B(1,2,3)         =         1.881947	     107.827638
	 B(1,2,4)         =         1.950817	     111.773572
	 B(1,2,5)         =         1.941407	     111.234409
	 B(2,1,6)         =         1.893804	     108.507001
	 B(3,2,4)         =         1.890080	     108.293602
	 B(3,2,5)         =         1.899097	     108.810220
	 B(4,2,5)         =         1.899152	     108.813386
	 D(3,2,1,6)       =         2.937522	     168.307622
	 D(4,2,1,6)       =         0.862069	      49.392933
	 D(5,2,1,6)       =        -1.264692	     -72.461494

	Current energy   :      -115.0634033832

	Energy change for the previous step:
		Projected    :         0.0021297422
		Actual       :        -0.0009358831

	Performing BFGS update.
	Previous computed or guess Hessian on step 1.
	Steps to be used in Hessian update: 2 1
	Taking RFO optimization step.
	Going to follow RFO solution 1.
	Using RFO vector 1.

	Determining step-restricting scale parameter for RS-RFO.
	Maximum step size allowed    0.50000

	 Iter      |step|        alpha        rfo_root  
	------------------------------------------------
	    0     0.75276       1.00000           1
	    1     0.57967       1.74099           1
	    2     0.51257       2.23040           1
	    3     0.50041       2.33887           1
	    4     0.50000       2.34262           1
	------------------------------------------------
	Norm of target step-size    0.50000
	Projected energy change by RFO approximation:         0.0001154461

	Back-transformation to cartesian coordinates...
	Successfully converged to displaced geometry.

	--- Internal Coordinate Step in ANG or DEG, aJ/ANG or AJ/DEG ---
	 ---------------------------------------------------------------------------
	   Coordinate                Previous        Force       Change         New 
	   ----------                --------       ------       ------       ------
	    1 R(1,2)          =      1.400360     0.001537     0.011857     1.412217
	    2 R(1,6)          =      0.935919     0.030185     0.004451     0.940370
	    3 R(2,3)          =      1.079839     0.002831    -0.000335     1.079504
	    4 R(2,4)          =      1.085259     0.010503     0.000373     1.085632
	    5 R(2,5)          =      1.085055     0.011310     0.001149     1.086204
	    6 B(1,2,3)        =    107.827638    -0.000097    -0.891237   106.936401
	    7 B(1,2,4)        =    111.773572     0.000034     0.495259   112.268831
	    8 B(1,2,5)        =    111.234409     0.000146     0.679061   111.913470
	    9 B(2,1,6)        =    108.507001     0.000404     0.860573   109.367574
	   10 B(3,2,4)        =    108.293602     0.000005     0.192618   108.486219
	   11 B(3,2,5)        =    108.810220    -0.000056    -0.298449   108.511771
	   12 B(4,2,5)        =    108.813386    -0.000037    -0.214458   108.598928
	   13 D(3,2,1,6)      =    168.307622     0.000012    16.600403   184.908025
	   14 D(4,2,1,6)      =     49.392933     0.000020    16.642493    66.035425
	   15 D(5,2,1,6)      =    -72.461494     0.000002    16.070587   -56.390907
	 ---------------------------------------------------------------------------
	Successfully symmetrized geometry.

  ==> Convergence Check <==

  Measures of convergence in internal coordinates in au.
  Criteria marked as inactive (o), active & met (*), and active & unmet ( ).
  ---------------------------------------------------------------------------------------------
   Step     Total Energy     Delta E     MAX Force     RMS Force      MAX Disp      RMS Disp   
  ---------------------------------------------------------------------------------------------
    Convergence Criteria    1.00e-06 *    3.00e-04 *             o    1.20e-03 *             o
  ---------------------------------------------------------------------------------------------
      3    -115.06340338   -9.36e-04      5.31e-03      1.89e-03 o    2.90e-01      1.29e-01 o  ~
  ---------------------------------------------------------------------------------------------

	Writing optimization data to binary file.
	Structure for next step:
	Cartesian Geometry (in Angstrom)
	    O     0.6848218151  -0.0518951052   0.0769757671
	    C    -0.7237073879   0.0236473244   0.0084557988
	    H    -1.0425679299   0.6792614111   0.8045878496
	    H    -1.1949692161  -0.9440851823   0.1498852112
	    H    -1.0619053245   0.4388743871  -0.9365559717
	    H     1.0057886090  -0.5558365954  -0.6491916206
			--------------------------
			 OPTKING Finished Execution 
			--------------------------

    Structure for next step:
    Molecular point group: c1
    Full point group: C1

    Geometry (in Angstrom), charge = 0, multiplicity = 1:

    O            0.686146481677    -0.022823191604     0.055228703576
    C           -0.722382726892     0.052719238304    -0.013291264960
    H           -1.041243270097     0.708333327666     0.782840788929
    H           -1.193644556943    -0.915013272178     0.128138147981
    H           -1.060580664758     0.467946302654    -0.958303039178
    H            1.007113276872    -0.526764683772    -0.670938686993

gradient() will perform analytic gradient computation.

*** tstart() called on node37.bme.utexas.edu
*** at Sun Dec 29 12:31:20 2019

   => Loading Basis Set <=

    Name: 6-311G*
    Role: ORBITAL
    Keyword: BASIS
    atoms 1   entry O          line   152 file /home/bdw2292/miniconda3/envs/p4env/share/psi4/basis/6-311gs.gbs 
    atoms 2   entry C          line   114 file /home/bdw2292/miniconda3/envs/p4env/share/psi4/basis/6-311gs.gbs 
    atoms 3-6 entry H          line    37 file /home/bdw2292/miniconda3/envs/p4env/share/psi4/basis/6-311gs.gbs 


         ---------------------------------------------------------
                                   SCF
               by Justin Turney, Rob Parrish, Andy Simmonett
                          and Daniel G. A. Smith
                              RHF Reference
                        1 Threads,    667 MiB Core
         ---------------------------------------------------------

  ==> Geometry <==

    Molecular point group: c1
    Full point group: C1

    Geometry (in Angstrom), charge = 0, multiplicity = 1:

       Center              X                  Y                   Z               Mass       
    ------------   -----------------  -----------------  -----------------  -----------------
         O            0.686146481677    -0.022823191604     0.055228703576    15.994914619570
         C           -0.722382726892     0.052719238304    -0.013291264960    12.000000000000
         H           -1.041243270097     0.708333327666     0.782840788929     1.007825032230
         H           -1.193644556943    -0.915013272178     0.128138147981     1.007825032230
         H           -1.060580664758     0.467946302654    -0.958303039178     1.007825032230
         H            1.007113276872    -0.526764683772    -0.670938686993     1.007825032230

  Running in c1 symmetry.

  Rotational constants: A =      4.38920  B =      0.83623  C =      0.80792 [cm^-1]
  Rotational constants: A = 131584.88761  B =  25069.52972  C =  24220.81302 [MHz]
  Nuclear repulsion =   40.632172356820249

  Charge       = 0
  Multiplicity = 1
  Electrons    = 18
  Nalpha       = 9
  Nbeta        = 9

  ==> Algorithm <==

  SCF Algorithm Type is DF.
  DIIS enabled.
  MOM disabled.
  Fractional occupation disabled.
  Guess Type is READ.
  Energy threshold   = 1.00e-08
  Density threshold  = 1.00e-08
  Integral threshold = 0.00e+00

  ==> Primary Basis <==

  Basis Set: 6-311G*
    Blend: 6-311G*
    Number of shells: 28
    Number of basis function: 48
    Number of Cartesian functions: 50
    Spherical Harmonics?: true
    Max angular momentum: 2

   => Loading Basis Set <=

    Name: (6-311G* AUX)
    Role: JKFIT
    Keyword: DF_BASIS_SCF
    atoms 1   entry O          line   229 file /home/bdw2292/miniconda3/envs/p4env/share/psi4/basis/cc-pvtz-jkfit.gbs 
    atoms 2   entry C          line   125 file /home/bdw2292/miniconda3/envs/p4env/share/psi4/basis/cc-pvtz-jkfit.gbs 
    atoms 3-6 entry H          line    51 file /home/bdw2292/miniconda3/envs/p4env/share/psi4/basis/cc-pvtz-jkfit.gbs 

   => Loading Basis Set <=

    Name: 6-311G*
    Role: ORBITAL
    Keyword: BASIS
    atoms 1   entry O          line   152 file /home/bdw2292/miniconda3/envs/p4env/share/psi4/basis/6-311gs.gbs 
    atoms 2   entry C          line   114 file /home/bdw2292/miniconda3/envs/p4env/share/psi4/basis/6-311gs.gbs 
    atoms 3-6 entry H          line    37 file /home/bdw2292/miniconda3/envs/p4env/share/psi4/basis/6-311gs.gbs 

  Reading orbitals from file 180, no projection.

  ==> Pre-Iterations <==

   -------------------------------------------------------
    Irrep   Nso     Nmo     Nalpha   Nbeta   Ndocc  Nsocc
   -------------------------------------------------------
     A         48      48       0       0       0       0
   -------------------------------------------------------
    Total      48      48       9       9       9       0
   -------------------------------------------------------

  ==> Integral Setup <==

  DFHelper Memory: AOs need 0.006 GiB; user supplied 0.489 GiB. Using in-core AOs.

  ==> MemDFJK: Density-Fitted J/K Matrices <==

    J tasked:                   Yes
    K tasked:                   Yes
    wK tasked:                   No
    OpenMP threads:               1
    Memory [MiB]:               500
    Algorithm:                 Core
    Schwarz Cutoff:           1E-12
    Mask sparsity (%):       0.0000
    Fitting Condition:        1E-10

   => Auxiliary Basis Set <=

  Basis Set: (6-311G* AUX)
    Blend: CC-PVTZ-JKFIT
    Number of shells: 90
    Number of basis function: 278
    Number of Cartesian functions: 332
    Spherical Harmonics?: true
    Max angular momentum: 4

  Minimum eigenvalue in the overlap matrix is 1.0915948001E-02.
  Using Symmetric Orthogonalization.

  SCF Guess: Orbitals guess was supplied from a previous computation.

  ==> Iterations <==

                           Total Energy        Delta E     RMS |[F,P]|

   @DF-RHF iter   0:  -115.04681804971044   -1.15047e+02   2.45564e-03 
   @DF-RHF iter   1:  -115.06248667759081   -1.56686e-02   6.27988e-04 DIIS
   @DF-RHF iter   2:  -115.06329871505022   -8.12037e-04   2.74649e-04 DIIS
   @DF-RHF iter   3:  -115.06347475397303   -1.76039e-04   1.46179e-04 DIIS
   @DF-RHF iter   4:  -115.06351541170849   -4.06577e-05   2.81034e-05 DIIS
   @DF-RHF iter   5:  -115.06351876443973   -3.35273e-06   7.50802e-06 DIIS
   @DF-RHF iter   6:  -115.06351893707858   -1.72639e-07   1.98452e-06 DIIS
   @DF-RHF iter   7:  -115.06351894955108   -1.24725e-08   3.53927e-07 DIIS
   @DF-RHF iter   8:  -115.06351894995299   -4.01911e-10   8.29192e-08 DIIS
   @DF-RHF iter   9:  -115.06351894997661   -2.36184e-11   1.41326e-08 DIIS
   @DF-RHF iter  10:  -115.06351894997724   -6.25278e-13   4.01149e-09 DIIS
  Energy and wave function converged.


  ==> Post-Iterations <==

    Orbital Energies [Eh]
    ---------------------

    Doubly Occupied:                                                      

       1A    -20.542185     2A    -11.265713     3A     -1.359353  
       4A     -0.928849     5A     -0.693977     6A     -0.620208  
       7A     -0.593673     8A     -0.500452     9A     -0.446545  

    Virtual:                                                              

      10A      0.154497    11A      0.188851    12A      0.227066  
      13A      0.233333    14A      0.343511    15A      0.460904  
      16A      0.483086    17A      0.595981    18A      0.691171  
      19A      0.738127    20A      0.791648    21A      0.805121  
      22A      0.947358    23A      1.065674    24A      1.080700  
      25A      1.175332    26A      1.545167    27A      1.601234  
      28A      1.694735    29A      1.764130    30A      1.771084  
      31A      1.989890    32A      2.368262    33A      2.619905  
      34A      2.707041    35A      2.725336    36A      3.166036  
      37A      3.234263    38A      3.370946    39A      3.418170  
      40A      3.520387    41A      3.567442    42A      3.819981  
      43A      4.271151    44A      5.385078    45A      5.540857  
      46A      5.913785    47A     24.556958    48A     51.524036  

    Final Occupation by Irrep:
              A 
    DOCC [     9 ]

  @DF-RHF Final Energy:  -115.06351894997724

   => Energetics <=

    Nuclear Repulsion Energy =             40.6321723568202486
    One-Electron Energy =                -237.4894721845843151
    Two-Electron Energy =                  81.7937808777868156
    Total Energy =                       -115.0635189499772366

Computation Completed


Properties will be evaluated at   0.000000,   0.000000,   0.000000 [a0]

Properties computed using the SCF density matrix

  Nuclear Dipole Moment: [e a0]
     X:    -2.1420      Y:    -0.2490      Z:    -0.6731

  Electronic Dipole Moment: [e a0]
     X:     1.7102      Y:    -0.0735      Z:     0.1180

  Dipole Moment: [e a0]
     X:    -0.4318      Y:    -0.3225      Z:    -0.5551     Total:     0.7736

  Dipole Moment: [D]
     X:    -1.0975      Y:    -0.8196      Z:    -1.4109     Total:     1.9664


*** tstop() called on node37.bme.utexas.edu at Sun Dec 29 12:31:21 2019
Module time:
	user time   =       0.48 seconds =       0.01 minutes
	system time =       0.01 seconds =       0.00 minutes
	total time  =          1 seconds =       0.02 minutes
Total time:
	user time   =       3.77 seconds =       0.06 minutes
	system time =       0.11 seconds =       0.00 minutes
	total time  =          4 seconds =       0.07 minutes

*** tstart() called on node37.bme.utexas.edu
*** at Sun Dec 29 12:31:21 2019


         ------------------------------------------------------------
                                   SCF GRAD                          
                          Rob Parrish, Justin Turney,                
                       Andy Simmonett, and Alex Sokolov              
         ------------------------------------------------------------

  ==> Geometry <==

    Molecular point group: c1
    Full point group: C1

    Geometry (in Angstrom), charge = 0, multiplicity = 1:

       Center              X                  Y                   Z               Mass       
    ------------   -----------------  -----------------  -----------------  -----------------
         O            0.686146481677    -0.022823191604     0.055228703576    15.994914619570
         C           -0.722382726892     0.052719238304    -0.013291264960    12.000000000000
         H           -1.041243270097     0.708333327666     0.782840788929     1.007825032230
         H           -1.193644556943    -0.915013272178     0.128138147981     1.007825032230
         H           -1.060580664758     0.467946302654    -0.958303039178     1.007825032230
         H            1.007113276872    -0.526764683772    -0.670938686993     1.007825032230

  Nuclear repulsion =   40.632172356820249

  ==> Basis Set <==

  Basis Set: 6-311G*
    Blend: 6-311G*
    Number of shells: 28
    Number of basis function: 48
    Number of Cartesian functions: 50
    Spherical Harmonics?: true
    Max angular momentum: 2

  ==> DFJKGrad: Density-Fitted SCF Gradients <==

    Gradient:                    1
    J tasked:                  Yes
    K tasked:                  Yes
    wK tasked:                  No
    OpenMP threads:              1
    Integrals threads:           1
    Memory [MiB]:              500
    Schwarz Cutoff:          0E+00
    Fitting Condition:       1E-10

   => Auxiliary Basis Set <=

  Basis Set: (6-311G* AUX)
    Blend: CC-PVTZ-JKFIT
    Number of shells: 90
    Number of basis function: 278
    Number of Cartesian functions: 332
    Spherical Harmonics?: true
    Max angular momentum: 4


  -Total Gradient:
     Atom            X                  Y                   Z
    ------   -----------------  -----------------  -----------------
       1        0.010387224323     0.001035928303     0.002961099709
       2       -0.008649626053    -0.001105797944    -0.001068966301
       3        0.000145854145    -0.000165021998    -0.000273520458
       4       -0.001135890379     0.001231386527    -0.000219221717
       5       -0.000578811507    -0.000512460647     0.000297871925
       6       -0.000168750528    -0.000484034241    -0.001697263159


*** tstop() called on node37.bme.utexas.edu at Sun Dec 29 12:31:22 2019
Module time:
	user time   =       0.47 seconds =       0.01 minutes
	system time =       0.00 seconds =       0.00 minutes
	total time  =          1 seconds =       0.02 minutes
Total time:
	user time   =       4.24 seconds =       0.07 minutes
	system time =       0.11 seconds =       0.00 minutes
	total time  =          5 seconds =       0.08 minutes

			-----------------------------------------
			 OPTKING 2.0: for geometry optimizations 
			  - R.A. King,  Bethel University        
			-----------------------------------------

	Previous internal coordinate definitions found.
	---Fragment 1 Geometry and Gradient---
	 O           1.2966289323       -0.0431295814        0.1043671240
	 C          -1.3651055116        0.0996249219       -0.0251168506
	 H          -1.9676646105        1.3385559948        1.4793546909
	 H          -2.2556613038       -1.7291244856        0.2421460059
	 H          -2.0042069903        0.8842903534       -1.8109302892
	 H           1.9031682706       -0.9954409849       -1.2678903654
	             0.0103872243        0.0010359283        0.0029610997
	            -0.0086496261       -0.0011057979       -0.0010689663
	             0.0001458541       -0.0001650220       -0.0002735205
	            -0.0011358904        0.0012313865       -0.0002192217
	            -0.0005788115       -0.0005124606        0.0002978719
	            -0.0001687505       -0.0004840342       -0.0016972632

	---Fragment 1 Intrafragment Coordinates---
	 - Coordinate -           - BOHR/RAD -       - ANG/DEG -
	 R(1,2)           =         2.668703	       1.412217
	 R(1,6)           =         1.777042	       0.940370
	 R(2,3)           =         2.039966	       1.079504
	 R(2,4)           =         2.051547	       1.085632
	 R(2,5)           =         2.052628	       1.086204
	 B(1,2,3)         =         1.866392	     106.936401
	 B(1,2,4)         =         1.959461	     112.268831
	 B(1,2,5)         =         1.953259	     111.913470
	 B(2,1,6)         =         1.908824	     109.367574
	 B(3,2,4)         =         1.893442	     108.486219
	 B(3,2,5)         =         1.893888	     108.511771
	 B(4,2,5)         =         1.895409	     108.598928
	 D(3,2,1,6)       =        -3.055931	    -175.091975
	 D(4,2,1,6)       =         1.152536	      66.035425
	 D(5,2,1,6)       =        -0.984207	     -56.390907

	Current energy   :      -115.0635189500

	Energy change for the previous step:
		Projected    :         0.0001154461
		Actual       :        -0.0001155667

	Performing BFGS update.
	Previous computed or guess Hessian on step 1.
	Change in internal coordinate of 5.79e-01 exceeds limit of 5.00e-01.
	 Skipping Hessian update for step 2.
	Change in internal coordinate of 7.49e-01 exceeds limit of 5.00e-01.
	 Skipping Hessian update for step 1.
	Steps to be used in Hessian update: 3
	Taking RFO optimization step.
	Going to follow RFO solution 1.
	Using RFO vector 1.
	Norm of target step-size    0.10144
	Projected energy change by RFO approximation:         0.0003198659

	Back-transformation to cartesian coordinates...
	Successfully converged to displaced geometry.

	--- Internal Coordinate Step in ANG or DEG, aJ/ANG or AJ/DEG ---
	 ---------------------------------------------------------------------------
	   Coordinate                Previous        Force       Change         New 
	   ----------                --------       ------       ------       ------
	    1 R(1,2)          =      1.412217    -0.084229    -0.018536     1.393680
	    2 R(1,6)          =      0.940370    -0.012461    -0.001018     0.939352
	    3 R(2,3)          =      1.079504     0.002843     0.000756     1.080259
	    4 R(2,4)          =      1.085632     0.005216     0.002599     1.088230
	    5 R(2,5)          =      1.086204     0.002264     0.001832     1.088036
	    6 B(1,2,3)        =    106.936401     0.000046     0.129226   107.065628
	    7 B(1,2,4)        =    112.268831    -0.000166    -0.562478   111.706354
	    8 B(1,2,5)        =    111.913470    -0.000043     0.401165   112.314635
	    9 B(2,1,6)        =    109.367574     0.000104     0.585881   109.953455
	   10 B(3,2,4)        =    108.486219     0.000054    -0.158120   108.328100
	   11 B(3,2,5)        =    108.511771     0.000023    -0.140096   108.371675
	   12 B(4,2,5)        =    108.598928     0.000094     0.314920   108.913848
	   13 D(3,2,1,6)      =   -175.091975    -0.000007    -3.270235  -178.362210
	   14 D(4,2,1,6)      =     66.035425    -0.000007    -2.838373    63.197052
	   15 D(5,2,1,6)      =    -56.390907    -0.000000    -3.130332   -59.521239
	 ---------------------------------------------------------------------------
	Successfully symmetrized geometry.

  ==> Convergence Check <==

  Measures of convergence in internal coordinates in au.
  Criteria marked as inactive (o), active & met (*), and active & unmet ( ).
  ---------------------------------------------------------------------------------------------
   Step     Total Energy     Delta E     MAX Force     RMS Force      MAX Disp      RMS Disp   
  ---------------------------------------------------------------------------------------------
    Convergence Criteria    1.00e-06 *    3.00e-04 *             o    1.20e-03 *             o
  ---------------------------------------------------------------------------------------------
      4    -115.06351895   -1.16e-04      1.02e-02      2.80e-03 o    5.71e-02      2.62e-02 o  ~
  ---------------------------------------------------------------------------------------------

	Writing optimization data to binary file.
	Structure for next step:
	Cartesian Geometry (in Angstrom)
	    O     0.6732315770  -0.0146186495   0.0485783535
	    C    -0.7168188764   0.0593995574  -0.0194383346
	    H    -1.0391819688   0.7097753401   0.7805949862
	    H    -1.1792805239  -0.9151215920   0.1243765847
	    H    -1.0625843964   0.4781827394  -0.9622472189
	    H     1.0000427375  -0.5532196733  -0.6481897189
			--------------------------
			 OPTKING Finished Execution 
			--------------------------

    Structure for next step:
    Molecular point group: c1
    Full point group: C1

    Geometry (in Angstrom), charge = 0, multiplicity = 1:

    O            0.677365630705    -0.020750921128     0.053800296283
    C           -0.712684828191     0.053267286096    -0.014216392038
    H           -1.035047921846     0.703643071346     0.785816931844
    H           -1.175146477433    -0.921253867139     0.129598527806
    H           -1.058450349550     0.472050469742    -0.957025280084
    H            1.004176792512    -0.559351947008    -0.642967778888

gradient() will perform analytic gradient computation.

*** tstart() called on node37.bme.utexas.edu
*** at Sun Dec 29 12:31:22 2019

   => Loading Basis Set <=

    Name: 6-311G*
    Role: ORBITAL
    Keyword: BASIS
    atoms 1   entry O          line   152 file /home/bdw2292/miniconda3/envs/p4env/share/psi4/basis/6-311gs.gbs 
    atoms 2   entry C          line   114 file /home/bdw2292/miniconda3/envs/p4env/share/psi4/basis/6-311gs.gbs 
    atoms 3-6 entry H          line    37 file /home/bdw2292/miniconda3/envs/p4env/share/psi4/basis/6-311gs.gbs 


         ---------------------------------------------------------
                                   SCF
               by Justin Turney, Rob Parrish, Andy Simmonett
                          and Daniel G. A. Smith
                              RHF Reference
                        1 Threads,    667 MiB Core
         ---------------------------------------------------------

  ==> Geometry <==

    Molecular point group: c1
    Full point group: C1

    Geometry (in Angstrom), charge = 0, multiplicity = 1:

       Center              X                  Y                   Z               Mass       
    ------------   -----------------  -----------------  -----------------  -----------------
         O            0.677365630705    -0.020750921128     0.053800296283    15.994914619570
         C           -0.712684828191     0.053267286096    -0.014216392038    12.000000000000
         H           -1.035047921846     0.703643071346     0.785816931844     1.007825032230
         H           -1.175146477433    -0.921253867139     0.129598527806     1.007825032230
         H           -1.058450349550     0.472050469742    -0.957025280084     1.007825032230
         H            1.004176792512    -0.559351947008    -0.642967778888     1.007825032230

  Running in c1 symmetry.

  Rotational constants: A =      4.38656  B =      0.85352  C =      0.82500 [cm^-1]
  Rotational constants: A = 131505.75178  B =  25588.03336  C =  24732.79968 [MHz]
  Nuclear repulsion =   40.916913239299504

  Charge       = 0
  Multiplicity = 1
  Electrons    = 18
  Nalpha       = 9
  Nbeta        = 9

  ==> Algorithm <==

  SCF Algorithm Type is DF.
  DIIS enabled.
  MOM disabled.
  Fractional occupation disabled.
  Guess Type is READ.
  Energy threshold   = 1.00e-08
  Density threshold  = 1.00e-08
  Integral threshold = 0.00e+00

  ==> Primary Basis <==

  Basis Set: 6-311G*
    Blend: 6-311G*
    Number of shells: 28
    Number of basis function: 48
    Number of Cartesian functions: 50
    Spherical Harmonics?: true
    Max angular momentum: 2

   => Loading Basis Set <=

    Name: (6-311G* AUX)
    Role: JKFIT
    Keyword: DF_BASIS_SCF
    atoms 1   entry O          line   229 file /home/bdw2292/miniconda3/envs/p4env/share/psi4/basis/cc-pvtz-jkfit.gbs 
    atoms 2   entry C          line   125 file /home/bdw2292/miniconda3/envs/p4env/share/psi4/basis/cc-pvtz-jkfit.gbs 
    atoms 3-6 entry H          line    51 file /home/bdw2292/miniconda3/envs/p4env/share/psi4/basis/cc-pvtz-jkfit.gbs 

   => Loading Basis Set <=

    Name: 6-311G*
    Role: ORBITAL
    Keyword: BASIS
    atoms 1   entry O          line   152 file /home/bdw2292/miniconda3/envs/p4env/share/psi4/basis/6-311gs.gbs 
    atoms 2   entry C          line   114 file /home/bdw2292/miniconda3/envs/p4env/share/psi4/basis/6-311gs.gbs 
    atoms 3-6 entry H          line    37 file /home/bdw2292/miniconda3/envs/p4env/share/psi4/basis/6-311gs.gbs 

  Reading orbitals from file 180, no projection.

  ==> Pre-Iterations <==

   -------------------------------------------------------
    Irrep   Nso     Nmo     Nalpha   Nbeta   Ndocc  Nsocc
   -------------------------------------------------------
     A         48      48       0       0       0       0
   -------------------------------------------------------
    Total      48      48       9       9       9       0
   -------------------------------------------------------

  ==> Integral Setup <==

  DFHelper Memory: AOs need 0.006 GiB; user supplied 0.489 GiB. Using in-core AOs.

  ==> MemDFJK: Density-Fitted J/K Matrices <==

    J tasked:                   Yes
    K tasked:                   Yes
    wK tasked:                   No
    OpenMP threads:               1
    Memory [MiB]:               500
    Algorithm:                 Core
    Schwarz Cutoff:           1E-12
    Mask sparsity (%):       0.0000
    Fitting Condition:        1E-10

   => Auxiliary Basis Set <=

  Basis Set: (6-311G* AUX)
    Blend: CC-PVTZ-JKFIT
    Number of shells: 90
    Number of basis function: 278
    Number of Cartesian functions: 332
    Spherical Harmonics?: true
    Max angular momentum: 4

  Minimum eigenvalue in the overlap matrix is 1.0597593131E-02.
  Using Symmetric Orthogonalization.

  SCF Guess: Orbitals guess was supplied from a previous computation.

  ==> Iterations <==

                           Total Energy        Delta E     RMS |[F,P]|

   @DF-RHF iter   0:  -115.07022857286537   -1.15070e+02   1.09419e-03 
   @DF-RHF iter   1:  -115.06362219840560    6.60637e-03   1.70597e-04 DIIS
   @DF-RHF iter   2:  -115.06367305866881   -5.08603e-05   6.43165e-05 DIIS
   @DF-RHF iter   3:  -115.06368217251796   -9.11385e-06   2.99198e-05 DIIS
   @DF-RHF iter   4:  -115.06368441510935   -2.24259e-06   1.00185e-05 DIIS
   @DF-RHF iter   5:  -115.06368468365653   -2.68547e-07   2.80111e-06 DIIS
   @DF-RHF iter   6:  -115.06368471050570   -2.68492e-08   7.49374e-07 DIIS
   @DF-RHF iter   7:  -115.06368471184805   -1.34236e-09   1.42187e-07 DIIS
   @DF-RHF iter   8:  -115.06368471192260   -7.45501e-11   3.08045e-08 DIIS
   @DF-RHF iter   9:  -115.06368471192590   -3.29692e-12   6.30510e-09 DIIS
  Energy and wave function converged.


  ==> Post-Iterations <==

    Orbital Energies [Eh]
    ---------------------

    Doubly Occupied:                                                      

       1A    -20.541813     2A    -11.264536     3A     -1.366085  
       4A     -0.927956     5A     -0.697786     6A     -0.623084  
       7A     -0.598020     8A     -0.497582     9A     -0.444600  

[...]
			--------------------------

    Structure for next step:
    Molecular point group: c1
    Full point group: C1

    Geometry (in Angstrom), charge = 0, multiplicity = 1:

    O            0.680288925733    -0.018277871821     0.042306967741
    C           -0.715232031218     0.051838358912    -0.002623433495
    H           -1.029253099565     0.701862783666     0.801029980500
    H           -1.176143292285    -0.922028110309     0.143358236027
    H           -1.071484837258     0.469365045951    -0.941212805452
    H            0.996347569381    -0.576347088342    -0.643380917235

gradient() will perform analytic gradient computation.

*** tstart() called on node37.bme.utexas.edu
*** at Sun Dec 29 12:31:25 2019

   => Loading Basis Set <=

    Name: 6-311G*
    Role: ORBITAL
    Keyword: BASIS
    atoms 1   entry O          line   152 file /home/bdw2292/miniconda3/envs/p4env/share/psi4/basis/6-311gs.gbs 
    atoms 2   entry C          line   114 file /home/bdw2292/miniconda3/envs/p4env/share/psi4/basis/6-311gs.gbs 
    atoms 3-6 entry H          line    37 file /home/bdw2292/miniconda3/envs/p4env/share/psi4/basis/6-311gs.gbs 


         ---------------------------------------------------------
                                   SCF
               by Justin Turney, Rob Parrish, Andy Simmonett
                          and Daniel G. A. Smith
                              RHF Reference
                        1 Threads,    667 MiB Core
         ---------------------------------------------------------

  ==> Geometry <==

    Molecular point group: c1
    Full point group: C1

    Geometry (in Angstrom), charge = 0, multiplicity = 1:

       Center              X                  Y                   Z               Mass       
    ------------   -----------------  -----------------  -----------------  -----------------
         O            0.680288925733    -0.018277871821     0.042306967741    15.994914619570
         C           -0.715232031218     0.051838358912    -0.002623433495    12.000000000000
         H           -1.029253099565     0.701862783666     0.801029980500     1.007825032230
         H           -1.176143292285    -0.922028110309     0.143358236027     1.007825032230
         H           -1.071484837258     0.469365045951    -0.941212805452     1.007825032230
         H            0.996347569381    -0.576347088342    -0.643380917235     1.007825032230

  Running in c1 symmetry.

  Rotational constants: A =      4.39254  B =      0.84925  C =      0.82071 [cm^-1]
  Rotational constants: A = 131685.04148  B =  25459.74088  C =  24604.32861 [MHz]
  Nuclear repulsion =   40.852119142557441

  Charge       = 0
  Multiplicity = 1
  Electrons    = 18
  Nalpha       = 9
  Nbeta        = 9

  ==> Algorithm <==

  SCF Algorithm Type is DF.
  DIIS enabled.
  MOM disabled.
  Fractional occupation disabled.
  Guess Type is READ.
  Energy threshold   = 1.00e-08
  Density threshold  = 1.00e-08
  Integral threshold = 0.00e+00

  ==> Primary Basis <==

  Basis Set: 6-311G*
    Blend: 6-311G*
    Number of shells: 28
    Number of basis function: 48
    Number of Cartesian functions: 50
    Spherical Harmonics?: true
    Max angular momentum: 2

   => Loading Basis Set <=

    Name: (6-311G* AUX)
    Role: JKFIT
    Keyword: DF_BASIS_SCF
    atoms 1   entry O          line   229 file /home/bdw2292/miniconda3/envs/p4env/share/psi4/basis/cc-pvtz-jkfit.gbs 
    atoms 2   entry C          line   125 file /home/bdw2292/miniconda3/envs/p4env/share/psi4/basis/cc-pvtz-jkfit.gbs 
    atoms 3-6 entry H          line    51 file /home/bdw2292/miniconda3/envs/p4env/share/psi4/basis/cc-pvtz-jkfit.gbs 

   => Loading Basis Set <=

    Name: 6-311G*
    Role: ORBITAL
    Keyword: BASIS
    atoms 1   entry O          line   152 file /home/bdw2292/miniconda3/envs/p4env/share/psi4/basis/6-311gs.gbs 
    atoms 2   entry C          line   114 file /home/bdw2292/miniconda3/envs/p4env/share/psi4/basis/6-311gs.gbs 
    atoms 3-6 entry H          line    37 file /home/bdw2292/miniconda3/envs/p4env/share/psi4/basis/6-311gs.gbs 

  Reading orbitals from file 180, no projection.

  ==> Pre-Iterations <==

   -------------------------------------------------------
    Irrep   Nso     Nmo     Nalpha   Nbeta   Ndocc  Nsocc
   -------------------------------------------------------
     A         48      48       0       0       0       0
   -------------------------------------------------------
    Total      48      48       9       9       9       0
   -------------------------------------------------------

  ==> Integral Setup <==

  DFHelper Memory: AOs need 0.006 GiB; user supplied 0.489 GiB. Using in-core AOs.

  ==> MemDFJK: Density-Fitted J/K Matrices <==

    J tasked:                   Yes
    K tasked:                   Yes
    wK tasked:                   No
    OpenMP threads:               1
    Memory [MiB]:               500
    Algorithm:                 Core
    Schwarz Cutoff:           1E-12
    Mask sparsity (%):       0.0000
    Fitting Condition:        1E-10

   => Auxiliary Basis Set <=

  Basis Set: (6-311G* AUX)
    Blend: CC-PVTZ-JKFIT
    Number of shells: 90
    Number of basis function: 278
    Number of Cartesian functions: 332
    Spherical Harmonics?: true
    Max angular momentum: 4

  Minimum eigenvalue in the overlap matrix is 1.0677574416E-02.
  Using Symmetric Orthogonalization.

  SCF Guess: Orbitals guess was supplied from a previous computation.

  ==> Iterations <==

                           Total Energy        Delta E     RMS |[F,P]|

   @DF-RHF iter   0:  -115.06373954312761   -1.15064e+02   4.27906e-05 
   @DF-RHF iter   1:  -115.06371455538121    2.49877e-05   7.95517e-06 DIIS
   @DF-RHF iter   2:  -115.06371469010540   -1.34724e-07   3.04165e-06 DIIS
   @DF-RHF iter   3:  -115.06371471936789   -2.92625e-08   5.84901e-07 DIIS
   @DF-RHF iter   4:  -115.06371472064770   -1.27980e-09   2.08258e-07 DIIS
   @DF-RHF iter   5:  -115.06371472077797   -1.30271e-10   7.19717e-08 DIIS
   @DF-RHF iter   6:  -115.06371472079105   -1.30882e-11   1.74735e-08 DIIS
   @DF-RHF iter   7:  -115.06371472079176   -7.10543e-13   4.36856e-09 DIIS
  Energy and wave function converged.


  ==> Post-Iterations <==

    Orbital Energies [Eh]
    ---------------------

    Doubly Occupied:                                                      

       1A    -20.541662     2A    -11.264803     3A     -1.364451  
       4A     -0.928363     5A     -0.696997     6A     -0.622287  
       7A     -0.597332     8A     -0.498102     9A     -0.444930  

    Virtual:                                                              

      10A      0.154641    11A      0.189143    12A      0.227343  
      13A      0.234008    14A      0.346230    15A      0.461391  
      16A      0.484055    17A      0.596245    18A      0.700383  
      19A      0.737285    20A      0.791098    21A      0.805900  
      22A      0.946315    23A      1.064730    24A      1.080030  
      25A      1.175341    26A      1.547053    27A      1.602367  
      28A      1.695662    29A      1.764280    30A      1.770918  
      31A      2.002473    32A      2.368213    33A      2.619161  
      34A      2.706079    35A      2.725008    36A      3.165147  
      37A      3.257980    38A      3.378734    39A      3.421386  
      40A      3.516522    41A      3.577469    42A      3.830224  
      43A      4.273877    44A      5.386403    45A      5.542669  
      46A      5.932759    47A     24.568148    48A     51.527637  

    Final Occupation by Irrep:
              A 
    DOCC [     9 ]

  @DF-RHF Final Energy:  -115.06371472079176

   => Energetics <=

    Nuclear Repulsion Energy =             40.8521191425574415
    One-Electron Energy =                -237.9138140934627756
    Two-Electron Energy =                  81.9979802301135834
    Total Energy =                       -115.0637147207917650

Computation Completed


Properties will be evaluated at   0.000000,   0.000000,   0.000000 [a0]

Properties computed using the SCF density matrix

  Nuclear Dipole Moment: [e a0]
     X:    -2.1347      Y:    -0.3068      Z:    -0.6000

  Electronic Dipole Moment: [e a0]
     X:     1.7185      Y:    -0.0617      Z:     0.0868

  Dipole Moment: [e a0]
     X:    -0.4162      Y:    -0.3685      Z:    -0.5132     Total:     0.7566

  Dipole Moment: [D]
     X:    -1.0578      Y:    -0.9367      Z:    -1.3045     Total:     1.9230


*** tstop() called on node37.bme.utexas.edu at Sun Dec 29 12:31:26 2019
Module time:
	user time   =       0.46 seconds =       0.01 minutes
	system time =       0.01 seconds =       0.00 minutes
	total time  =          1 seconds =       0.02 minutes
Total time:
	user time   =       7.61 seconds =       0.13 minutes
	system time =       0.15 seconds =       0.00 minutes
	total time  =          9 seconds =       0.15 minutes

*** tstart() called on node37.bme.utexas.edu
*** at Sun Dec 29 12:31:26 2019


         ------------------------------------------------------------
                                   SCF GRAD                          
                          Rob Parrish, Justin Turney,                
                       Andy Simmonett, and Alex Sokolov              
         ------------------------------------------------------------

  ==> Geometry <==

    Molecular point group: c1
    Full point group: C1

    Geometry (in Angstrom), charge = 0, multiplicity = 1:

       Center              X                  Y                   Z               Mass       
    ------------   -----------------  -----------------  -----------------  -----------------
         O            0.680288925733    -0.018277871821     0.042306967741    15.994914619570
         C           -0.715232031218     0.051838358912    -0.002623433495    12.000000000000
         H           -1.029253099565     0.701862783666     0.801029980500     1.007825032230
         H           -1.176143292285    -0.922028110309     0.143358236027     1.007825032230
         H           -1.071484837258     0.469365045951    -0.941212805452     1.007825032230
         H            0.996347569381    -0.576347088342    -0.643380917235     1.007825032230

  Nuclear repulsion =   40.852119142557441

  ==> Basis Set <==

  Basis Set: 6-311G*
    Blend: 6-311G*
    Number of shells: 28
    Number of basis function: 48
    Number of Cartesian functions: 50
    Spherical Harmonics?: true
    Max angular momentum: 2

  ==> DFJKGrad: Density-Fitted SCF Gradients <==

    Gradient:                    1
    J tasked:                  Yes
    K tasked:                  Yes
    wK tasked:                  No
    OpenMP threads:              1
    Integrals threads:           1
    Memory [MiB]:              500
    Schwarz Cutoff:          0E+00
    Fitting Condition:       1E-10

   => Auxiliary Basis Set <=

  Basis Set: (6-311G* AUX)
    Blend: CC-PVTZ-JKFIT
    Number of shells: 90
    Number of basis function: 278
    Number of Cartesian functions: 332
    Spherical Harmonics?: true
    Max angular momentum: 4


  -Total Gradient:
     Atom            X                  Y                   Z
    ------   -----------------  -----------------  -----------------
       1        0.000024503353    -0.000017060272     0.000002899324
       2       -0.000019093094     0.000017588905    -0.000002464887
       3       -0.000005552143    -0.000005344097    -0.000002140710
       4        0.000009097549     0.000005701213     0.000000300116
       5       -0.000010706467    -0.000003156790     0.000000047886
       6        0.000001750801     0.000002271041     0.000001358271


*** tstop() called on node37.bme.utexas.edu at Sun Dec 29 12:31:26 2019
Module time:
	user time   =       0.47 seconds =       0.01 minutes
	system time =       0.00 seconds =       0.00 minutes
	total time  =          0 seconds =       0.00 minutes
Total time:
	user time   =       8.08 seconds =       0.13 minutes
	system time =       0.15 seconds =       0.00 minutes
	total time  =          9 seconds =       0.15 minutes

			-----------------------------------------
			 OPTKING 2.0: for geometry optimizations 
			  - R.A. King,  Bethel University        
			-----------------------------------------

	Previous internal coordinate definitions found.
	---Fragment 1 Geometry and Gradient---
	 O           1.2855597558       -0.0345401719        0.0799485822
	 C          -1.3515926552        0.0979603011       -0.0049575708
	 H          -1.9450064720        1.3263284388        1.5137272814
	 H          -2.2225887067       -1.7423806085        0.2709078039
	 H          -2.0248128900        0.8869713897       -1.7786344281
	 H           1.8828240319       -1.0891381502       -1.2158137279
	             0.0000245034       -0.0000170603        0.0000028993
	            -0.0000190931        0.0000175889       -0.0000024649
	            -0.0000055521       -0.0000053441       -0.0000021407
	             0.0000090975        0.0000057012        0.0000003001
	            -0.0000107065       -0.0000031568        0.0000000479
	             0.0000017508        0.0000022710        0.0000013583

	---Fragment 1 Intrafragment Coordinates---
	 - Coordinate -           - BOHR/RAD -       - ANG/DEG -
	 R(1,2)           =         2.641844	       1.398003
	 R(1,6)           =         1.774233	       0.938883
	 R(2,3)           =         2.041429	       1.080278
	 R(2,4)           =         2.054651	       1.087274
	 R(2,5)           =         2.054676	       1.087288
	 B(1,2,3)         =         1.871758	     107.243851
	 B(1,2,4)         =         1.954032	     111.957782
	 B(1,2,5)         =         1.954195	     111.967108
	 B(2,1,6)         =         1.920239	     110.021610
	 B(3,2,4)         =         1.892147	     108.412045
	 B(3,2,5)         =         1.892183	     108.414107
	 B(4,2,5)         =         1.897538	     108.720920
	 D(3,2,1,6)       =        -3.141444	    -179.991487
	 D(4,2,1,6)       =         1.068329	      61.210720
	 D(5,2,1,6)       =        -1.067894	     -61.185803

	Current energy   :      -115.0637147208

	Energy change for the previous step:
		Projected    :         0.0000000345
		Actual       :        -0.0000001181

	Performing BFGS update.
	Previous computed or guess Hessian on step 1.
	Steps to be used in Hessian update: 7 6
	Taking RFO optimization step.
	Going to follow RFO solution 1.
	Using RFO vector 1.
	Norm of target step-size    0.00026
	Projected energy change by RFO approximation:        -0.0000000041

	Back-transformation to cartesian coordinates...
	Successfully converged to displaced geometry.

	--- Internal Coordinate Step in ANG or DEG, aJ/ANG or AJ/DEG ---
	 ---------------------------------------------------------------------------
	   Coordinate                Previous        Force       Change         New 
	   ----------                --------       ------       ------       ------
	    1 R(1,2)          =      1.398003    -0.000223    -0.000037     1.397966
	    2 R(1,6)          =      0.938883     0.000014     0.000002     0.938885
	    3 R(2,3)          =      1.080278     0.000026     0.000005     1.080282
	    4 R(2,4)          =      1.087274     0.000074     0.000014     1.087288
	    5 R(2,5)          =      1.087288    -0.000019    -0.000002     1.087286
	    6 B(1,2,3)        =    107.243851    -0.000001    -0.002460   107.241392
	    7 B(1,2,4)        =    111.957782     0.000001     0.005885   111.963667
	    8 B(1,2,5)        =    111.967108    -0.000001    -0.005513   111.961594
	    9 B(2,1,6)        =    110.021610    -0.000000     0.000287   110.021897
	   10 B(3,2,4)        =    108.412045     0.000000     0.001573   108.413617
	   11 B(3,2,5)        =    108.414107     0.000000    -0.000871   108.413236
	   12 B(4,2,5)        =    108.720920     0.000000     0.001349   108.722270
	   13 D(3,2,1,6)      =   -179.991487     0.000000    -0.002985  -179.994472
	   14 D(4,2,1,6)      =     61.210720    -0.000000    -0.006745    61.203975
	   15 D(5,2,1,6)      =    -61.185803    -0.000000    -0.008777   -61.194580
	 ---------------------------------------------------------------------------
	Successfully symmetrized geometry.

  ==> Convergence Check <==

  Measures of convergence in internal coordinates in au.
  Criteria marked as inactive (o), active & met (*), and active & unmet ( ).
  ---------------------------------------------------------------------------------------------
   Step     Total Energy     Delta E     MAX Force     RMS Force      MAX Disp      RMS Disp   
  ---------------------------------------------------------------------------------------------
    Convergence Criteria    1.00e-06 *    3.00e-04 *             o    1.20e-03 *             o
  ---------------------------------------------------------------------------------------------
      8    -115.06371472   -1.18e-07 *    2.71e-05 *    1.04e-05 o    1.53e-04 *    6.78e-05 o  ~
  ---------------------------------------------------------------------------------------------


  **** Optimization is complete! (in 8 steps) ****

  ==> Optimization Summary <==

  Measures of convergence in internal coordinates in au.
  --------------------------------------------------------------------------------------------------------------- ~
   Step         Total Energy             Delta E       MAX Force       RMS Force        MAX Disp        RMS Disp  ~
  --------------------------------------------------------------------------------------------------------------- ~
      1    -115.058594889694   -115.058594889694      0.03863233      0.01260409      0.17061670      0.07414150  ~
      2    -115.062467500097     -0.003872610403      0.01088517      0.00317856      0.29049292      0.12905795  ~
      3    -115.063403383232     -0.000935883135      0.00531439      0.00188711      0.29046629      0.12865985  ~
      4    -115.063518949977     -0.000115566745      0.01022359      0.00279558      0.05707637      0.02615906  ~
      5    -115.063684711926     -0.000165761949      0.00356933      0.00109962      0.04216708      0.01709695  ~
      6    -115.063711741404     -0.000027029478      0.00075204      0.00030992      0.00485955      0.00216187  ~
      7    -115.063714602653     -0.000002861249      0.00014881      0.00005606      0.00286440      0.00122031  ~
      8    -115.063714720792     -0.000000118139      0.00002709      0.00001043      0.00015319      0.00006780  ~
  --------------------------------------------------------------------------------------------------------------- ~

	Writing optimization data to binary file.
	Final energy is   -115.0637147207918
	Final (previous) structure:
	Cartesian Geometry (in Angstrom)
	    O     0.6802889231  -0.0182778717   0.0423069676
	    C    -0.7152320284   0.0518383587  -0.0026234335
	    H    -1.0292530955   0.7018627809   0.8010299774
	    H    -1.1761432877  -0.9220281067   0.1433582355
	    H    -1.0714848330   0.4693650441  -0.9412128018
	    H     0.9963475655  -0.5763470861  -0.6433809147
	Saving final (previous) structure.
			--------------------------
			 OPTKING Finished Execution 
			--------------------------

    Final optimized geometry and variables:
    Molecular point group: c1
    Full point group: C1

    Geometry (in Angstrom), charge = 0, multiplicity = 1:

    O            0.680288925733    -0.018277871821     0.042306967741
    C           -0.715232031218     0.051838358912    -0.002623433495
    H           -1.029253099565     0.701862783666     0.801029980500
    H           -1.176143292285    -0.922028110309     0.143358236027
    H           -1.071484837258     0.469365045951    -0.941212805452
    H            0.996347569381    -0.576347088342    -0.643380917235

	Removing binary optimization data file.
	Cleaning optimization helper files.

    Psi4 stopped on: Sunday, 29 December 2019 12:31PM
    Psi4 wall time for execution: 0:00:09.57

*** Psi4 exiting successfully. Buy a developer a beer!
