
    -----------------------------------------------------------------------
          Psi4: An Open-Source Ab Initio Electronic Structure Package
                               Psi4 1.3.2 release

                         Git: Rev {HEAD} ecbda83 


    R. M. Parrish, L. A. Burns, D. G. A. Smith, A. C. Simmonett,
    A. E. DePrince III, E. G. Hohenstein, U. Bozkaya, A. Yu. Sokolov,
    R. Di Remigio, R. M. Richard, J. F. Gonthier, A. M. James,
    H. R. McAlexander, A. Kumar, M. Saitow, X. Wang, B. P. Pritchard,
    P. Verma, H. F. Schaefer III, K. Patkowski, R. A. King, E. F. Valeev,
    F. A. Evangelista, J. M. Turney, T. D. Crawford, and C. D. Sherrill,
    J. Chem. Theory Comput. 13(7) pp 3185--3197 (2017).
    (doi: 10.1021/acs.jctc.7b00174)


                         Additional Contributions by
    P. Kraus, H. Kruse, M. H. Lechner, M. C. Schieber, R. A. Shaw,
    A. Alenaizan, R. Galvelis, Z. L. Glick, S. Lehtola, and J. P. Misiewicz

    -----------------------------------------------------------------------


    Psi4 started on: Sunday, 29 December 2019 12:31PM

    Process ID: 43281
    Host:       node37.bme.utexas.edu
    PSIDATADIR: /home/bdw2292/miniconda3/envs/p4env/share/psi4
    Memory:     500.0 MiB
    Threads:    1
    
  ==> Input File <==

--------------------------------------------------------------------------
molecule { 
0 1
 O    0.689469    0.036449    0.014311
 C   -0.746199    0.019604    0.003739
 H   -1.105225    1.051504   -0.040832
 H   -1.093881   -0.494957    0.903603
 H   -1.074559   -0.525977   -0.885718
 H    0.967408   -0.849927   -0.282807
}
set optking { 
  frozen_dihedral = ("
  ")
}
memory 700MB
set_num_threads(1)
psi4_io.set_default_path("/scratch/bdw2292")
optimize('hf/6-311G*')
clean()
--------------------------------------------------------------------------

  Memory set to 667.572 MiB by Python driver.
  Threads set to 1 by Python driver.
gradient() will perform analytic gradient computation.

*** tstart() called on node37.bme.utexas.edu
*** at Sun Dec 29 12:31:37 2019

   => Loading Basis Set <=

    Name: 6-311G*
    Role: ORBITAL
    Keyword: BASIS
    atoms 1   entry O          line   152 file /home/bdw2292/miniconda3/envs/p4env/share/psi4/basis/6-311gs.gbs 
    atoms 2   entry C          line   114 file /home/bdw2292/miniconda3/envs/p4env/share/psi4/basis/6-311gs.gbs 
    atoms 3-6 entry H          line    37 file /home/bdw2292/miniconda3/envs/p4env/share/psi4/basis/6-311gs.gbs 


         ---------------------------------------------------------
                                   SCF
               by Justin Turney, Rob Parrish, Andy Simmonett
                          and Daniel G. A. Smith
                              RHF Reference
                        1 Threads,    667 MiB Core
         ---------------------------------------------------------

  ==> Geometry <==

    Molecular point group: c1
    Full point group: C1

    Geometry (in Angstrom), charge = 0, multiplicity = 1:

       Center              X                  Y                   Z               Mass       
    ------------   -----------------  -----------------  -----------------  -----------------
         O            0.697296767018     0.036683865470     0.015384349194    15.994914619570
         C           -0.738371232982     0.019838865470     0.004812349194    12.000000000000
         H           -1.097397232982     1.051738865470    -0.039758650806     1.007825032230
         H           -1.086053232982    -0.494722134530     0.904676349194     1.007825032230
         H           -1.066731232982    -0.525742134530    -0.884644650806     1.007825032230
         H            0.975235767018    -0.849692134530    -0.281733650806     1.007825032230

  Running in c1 symmetry.

  Rotational constants: A =      4.14655  B =      0.82287  C =      0.79185 [cm^-1]
  Rotational constants: A = 124310.49308  B =  24669.05947  C =  23739.15849 [MHz]
  Nuclear repulsion =   40.073897406059281

  Charge       = 0
  Multiplicity = 1
  Electrons    = 18
  Nalpha       = 9
  Nbeta        = 9

  ==> Algorithm <==

  SCF Algorithm Type is DF.
  DIIS enabled.
  MOM disabled.
  Fractional occupation disabled.
  Guess Type is SAD.
  Energy threshold   = 1.00e-08
  Density threshold  = 1.00e-08
  Integral threshold = 0.00e+00

  ==> Primary Basis <==

  Basis Set: 6-311G*
    Blend: 6-311G*
    Number of shells: 28
    Number of basis function: 48
    Number of Cartesian functions: 50
    Spherical Harmonics?: true
    Max angular momentum: 2

   => Loading Basis Set <=

    Name: (6-311G* AUX)
    Role: JKFIT
    Keyword: DF_BASIS_SCF
    atoms 1   entry O          line   229 file /home/bdw2292/miniconda3/envs/p4env/share/psi4/basis/cc-pvtz-jkfit.gbs 
    atoms 2   entry C          line   125 file /home/bdw2292/miniconda3/envs/p4env/share/psi4/basis/cc-pvtz-jkfit.gbs 
    atoms 3-6 entry H          line    51 file /home/bdw2292/miniconda3/envs/p4env/share/psi4/basis/cc-pvtz-jkfit.gbs 

  ==> Pre-Iterations <==

   -------------------------------------------------------
    Irrep   Nso     Nmo     Nalpha   Nbeta   Ndocc  Nsocc
   -------------------------------------------------------
     A         48      48       0       0       0       0
   -------------------------------------------------------
    Total      48      48       9       9       9       0
   -------------------------------------------------------

  ==> Integral Setup <==

  DFHelper Memory: AOs need 0.006 GiB; user supplied 0.489 GiB. Using in-core AOs.

  ==> MemDFJK: Density-Fitted J/K Matrices <==

    J tasked:                   Yes
    K tasked:                   Yes
    wK tasked:                   No
    OpenMP threads:               1
    Memory [MiB]:               500
    Algorithm:                 Core
    Schwarz Cutoff:           1E-12
    Mask sparsity (%):       0.0000
    Fitting Condition:        1E-10

   => Auxiliary Basis Set <=

  Basis Set: (6-311G* AUX)
    Blend: CC-PVTZ-JKFIT
    Number of shells: 90
    Number of basis function: 278
    Number of Cartesian functions: 332
    Spherical Harmonics?: true
    Max angular momentum: 4

  Minimum eigenvalue in the overlap matrix is 1.1435359627E-02.
  Using Symmetric Orthogonalization.

  SCF Guess: Superposition of Atomic Densities via on-the-fly atomic UHF.

  ==> Iterations <==

                           Total Energy        Delta E     RMS |[F,P]|

   @DF-RHF iter SAD:  -114.38143798507154   -1.14381e+02   0.00000e+00 
   @DF-RHF iter   1:  -114.98490857655281   -6.03471e-01   8.10130e-03 DIIS
   @DF-RHF iter   2:  -115.04316440431231   -5.82558e-02   4.49488e-03 DIIS
   @DF-RHF iter   3:  -115.05851767452494   -1.53533e-02   7.15580e-04 DIIS
   @DF-RHF iter   4:  -115.05936333806282   -8.45664e-04   1.96223e-04 DIIS
   @DF-RHF iter   5:  -115.05942531683158   -6.19788e-05   4.84197e-05 DIIS
   @DF-RHF iter   6:  -115.05942919960945   -3.88278e-06   1.05579e-05 DIIS
   @DF-RHF iter   7:  -115.05942952521394   -3.25604e-07   2.38946e-06 DIIS
   @DF-RHF iter   8:  -115.05942954384000   -1.86261e-08   4.42512e-07 DIIS
   @DF-RHF iter   9:  -115.05942954447934   -6.39346e-10   8.39053e-08 DIIS
   @DF-RHF iter  10:  -115.05942954450188   -2.25384e-11   2.32934e-08 DIIS
   @DF-RHF iter  11:  -115.05942954450346   -1.57740e-12   4.46024e-09 DIIS
  Energy and wave function converged.


  ==> Post-Iterations <==

    Orbital Energies [Eh]
    ---------------------

    Doubly Occupied:                                                      

       1A    -20.543750     2A    -11.271755     3A     -1.344478  
       4A     -0.920166     5A     -0.679555     6A     -0.619609  
       7A     -0.586350     8A     -0.500346     9A     -0.445634  

    Virtual:                                                              

      10A      0.149761    11A      0.186943    12A      0.225320  
      13A      0.232040    14A      0.334029    15A      0.464321  
      16A      0.470423    17A      0.579067    18A      0.676746  
      19A      0.726049    20A      0.787695    21A      0.796046  
      22A      0.947202    23A      1.071691    24A      1.075748  
      25A      1.184845    26A      1.549225    27A      1.582953  
      28A      1.692365    29A      1.770466    30A      1.772060  
      31A      1.965626    32A      2.379463    33A      2.631646  
      34A      2.698529    35A      2.708268    36A      3.166568  
      37A      3.186348    38A      3.339752    39A      3.365619  
      40A      3.542266    41A      3.578222    42A      3.731545  
      43A      4.256756    44A      5.378258    45A      5.521417  
      46A      5.862627    47A     24.535027    48A     51.520252  

    Final Occupation by Irrep:
              A 
    DOCC [     9 ]

  @DF-RHF Final Energy:  -115.05942954450346

   => Energetics <=

    Nuclear Repulsion Energy =             40.0738974060592810
    One-Electron Energy =                -236.4433675732563529
    Two-Electron Energy =                  81.3100406226936201
    Total Energy =                       -115.0594295445034589

Computation Completed


Properties will be evaluated at   0.000000,   0.000000,   0.000000 [a0]

Properties computed using the SCF density matrix

  Nuclear Dipole Moment: [e a0]
     X:    -2.1293      Y:    -0.7671      Z:    -0.2825

  Electronic Dipole Moment: [e a0]
     X:     1.6339      Y:     0.1459      Z:     0.0564

  Dipole Moment: [e a0]
     X:    -0.4954      Y:    -0.6211      Z:    -0.2261     Total:     0.8261

  Dipole Moment: [D]
     X:    -1.2593      Y:    -1.5788      Z:    -0.5748     Total:     2.0997


*** tstop() called on node37.bme.utexas.edu at Sun Dec 29 12:31:38 2019
Module time:
	user time   =       0.96 seconds =       0.02 minutes
	system time =       0.02 seconds =       0.00 minutes
	total time  =          1 seconds =       0.02 minutes
Total time:
	user time   =       0.96 seconds =       0.02 minutes
	system time =       0.02 seconds =       0.00 minutes
	total time  =          1 seconds =       0.02 minutes

*** tstart() called on node37.bme.utexas.edu
*** at Sun Dec 29 12:31:38 2019


         ------------------------------------------------------------
                                   SCF GRAD                          
                          Rob Parrish, Justin Turney,                
                       Andy Simmonett, and Alex Sokolov              
         ------------------------------------------------------------

  ==> Geometry <==

    Molecular point group: c1
    Full point group: C1

    Geometry (in Angstrom), charge = 0, multiplicity = 1:

       Center              X                  Y                   Z               Mass       
    ------------   -----------------  -----------------  -----------------  -----------------
         O            0.697296767018     0.036683865470     0.015384349194    15.994914619570
         C           -0.738371232982     0.019838865470     0.004812349194    12.000000000000
         H           -1.097397232982     1.051738865470    -0.039758650806     1.007825032230
         H           -1.086053232982    -0.494722134530     0.904676349194     1.007825032230
         H           -1.066731232982    -0.525742134530    -0.884644650806     1.007825032230
         H            0.975235767018    -0.849692134530    -0.281733650806     1.007825032230

  Nuclear repulsion =   40.073897406059281

  ==> Basis Set <==

  Basis Set: 6-311G*
    Blend: 6-311G*
    Number of shells: 28
    Number of basis function: 48
    Number of Cartesian functions: 50
    Spherical Harmonics?: true
    Max angular momentum: 2

  ==> DFJKGrad: Density-Fitted SCF Gradients <==

    Gradient:                    1
    J tasked:                  Yes
    K tasked:                  Yes
    wK tasked:                  No
    OpenMP threads:              1
    Integrals threads:           1
    Memory [MiB]:              500
    Schwarz Cutoff:          0E+00
    Fitting Condition:       1E-10

   => Auxiliary Basis Set <=

  Basis Set: (6-311G* AUX)
    Blend: CC-PVTZ-JKFIT
    Number of shells: 90
    Number of basis function: 278
    Number of Cartesian functions: 332
    Spherical Harmonics?: true
    Max angular momentum: 4


  -Total Gradient:
     Atom            X                  Y                   Z
    ------   -----------------  -----------------  -----------------
       1        0.011816092206     0.033017628572     0.014300132992
       2       -0.023530090492     0.004418113109     0.002191388132
       3       -0.003326650351     0.010080169608    -0.002862082353
       4        0.004531035447    -0.006394999892     0.005982773634
       5        0.005423089451    -0.005637457930    -0.005974293560
       6        0.005086523738    -0.035483453466    -0.013637918846


*** tstop() called on node37.bme.utexas.edu at Sun Dec 29 12:31:38 2019
Module time:
	user time   =       0.46 seconds =       0.01 minutes
	system time =       0.01 seconds =       0.00 minutes
	total time  =          0 seconds =       0.00 minutes
Total time:
	user time   =       1.42 seconds =       0.02 minutes
	system time =       0.03 seconds =       0.00 minutes
	total time  =          1 seconds =       0.02 minutes

			-----------------------------------------
			 OPTKING 2.0: for geometry optimizations 
			  - R.A. King,  Bethel University        
			-----------------------------------------

	Internal coordinates to be generated automatically.
	Detected frag 1 with atoms:  1 2 3 4 5 6
	---Fragment 1 Bond Connectivity---
	 1 : 2 6
	 2 : 1 3 4 5
	 3 : 2
	 4 : 2
	 5 : 2
	 6 : 1

	Assuming in current code that numbering for constraints corresponds to unified fragment.
	---Fragment 1 Geometry and Gradient---
	 O           1.3176999178        0.0693224590        0.0290722066
	 C          -1.3953194093        0.0374900224        0.0090940220
	 H          -2.0737802212        1.9874984112       -0.0751329611
	 H          -2.0523431680       -0.9348893425        1.7095905322
	 H          -2.0158298798       -0.9935086469       -1.6717361084
	 H           1.8429285074       -1.6056854252       -0.5323994403
	             0.0118160922        0.0330176286        0.0143001330
	            -0.0235300905        0.0044181131        0.0021913881
	            -0.0033266504        0.0100801696       -0.0028620824
	             0.0045310354       -0.0063949999        0.0059827736
	             0.0054230895       -0.0056374579       -0.0059742936
	             0.0050865237       -0.0354834535       -0.0136379188

	Previous optimization step data not found.  Starting new optimization.

	---Fragment 1 Intrafragment Coordinates---
	 - Coordinate -           - BOHR/RAD -       - ANG/DEG -
	 R(1,2)           =         2.713280	       1.435806
	 R(1,6)           =         1.843032	       0.975291
	 R(2,3)           =         2.066382	       1.093482
	 R(2,4)           =         2.066129	       1.093349
	 R(2,5)           =         2.067167	       1.093898
	 B(1,2,3)         =         1.893920	     108.513611
	 B(1,2,4)         =         1.893813	     108.507468
	 B(1,2,5)         =         1.888077	     108.178827
	 B(2,1,6)         =         1.846317	     105.786156
	 B(3,2,4)         =         1.953319	     111.916950
	 B(3,2,5)         =         1.916609	     109.813600
	 B(4,2,5)         =         1.916688	     109.818140
	 D(3,2,1,6)       =        -2.776728	    -159.094808
	 D(4,2,1,6)       =         1.380367	      79.089232
	 D(5,2,1,6)       =        -0.698198	     -40.003774

	Current energy   :      -115.0594295445

	Generating empirical Hessian (Schlegel '84) for each fragment.
	Taking RFO optimization step.
	Going to follow RFO solution 1.
	Using RFO vector 1.
	Norm of target step-size    0.27849
	Projected energy change by RFO approximation:         0.0036698156

	Back-transformation to cartesian coordinates...
	Successfully converged to displaced geometry.

	--- Internal Coordinate Step in ANG or DEG, aJ/ANG or AJ/DEG ---
	 ---------------------------------------------------------------------------
	   Coordinate                Previous        Force       Change         New 
	   ----------                --------       ------       ------       ------
	    1 R(1,2)          =      1.435806    -0.139044    -0.021835     1.413971
	    2 R(1,6)          =      0.975291    -0.311859    -0.037761     0.937529
	    3 R(2,3)          =      1.093482    -0.088331    -0.016142     1.077341
	    4 R(2,4)          =      1.093349    -0.053493    -0.009771     1.083578
	    5 R(2,5)          =      1.093898    -0.049775    -0.009108     1.084790
	    6 B(1,2,3)        =    108.513611    -0.000371    -2.092092   106.421518
	    7 B(1,2,4)        =    108.507468     0.000683     3.046544   111.554012
	    8 B(1,2,5)        =    108.178827     0.000895     4.502673   112.681500
	    9 B(2,1,6)        =    105.786156     0.000835     2.504900   108.291056
	   10 B(3,2,4)        =    111.916950    -0.000515    -2.943472   108.973478
	   11 B(3,2,5)        =    109.813600    -0.000309    -1.461122   108.352478
	   12 B(4,2,5)        =    109.818140    -0.000318    -1.081888   108.736252
	   13 D(3,2,1,6)      =   -159.094808    -0.000045    -8.181457  -167.276265
	   14 D(4,2,1,6)      =     79.089232     0.000056    -5.106954    73.982277
	   15 D(5,2,1,6)      =    -40.003774    -0.000061    -8.656296   -48.660070
	 ---------------------------------------------------------------------------
	Successfully symmetrized geometry.

  ==> Convergence Check <==

  Measures of convergence in internal coordinates in au.
  Criteria marked as inactive (o), active & met (*), and active & unmet ( ).
  --------------------------------------------------------------------------------------------- ~
   Step     Total Energy     Delta E     MAX Force     RMS Force      MAX Disp      RMS Disp    ~
  --------------------------------------------------------------------------------------------- ~
    Convergence Criteria    1.00e-06 *    3.00e-04 *             o    1.20e-03 *             o  ~
  --------------------------------------------------------------------------------------------- ~
      1    -115.05942954   -1.15e+02      3.79e-02      1.26e-02 o    1.51e-01      7.09e-02 o  ~
  ---------------------------------------------------------------------------------------------

	Writing optimization data to binary file.
	Structure for next step:
	Cartesian Geometry (in Angstrom)
	    O     0.6937002153   0.0153265221  -0.0549821258
	    C    -0.7197853961   0.0064478955  -0.0190278725
	    H    -1.0331435089   1.0334531330  -0.1069506492
	    H    -1.0917014047  -0.3965944622   0.9155177711
	    H    -1.1555530635  -0.5549755987  -0.8385882725
	    H     0.9904627692  -0.8655522938  -0.1772327547
			--------------------------
			 OPTKING Finished Execution 
			--------------------------

    Structure for next step:
    Molecular point group: c1
    Full point group: C1

    Geometry (in Angstrom), charge = 0, multiplicity = 1:

    O            0.689004160803     0.029917078849    -0.013870662594
    C           -0.724481456214     0.021038452241     0.022083590887
    H           -1.037839570233     1.048043693721    -0.065839186172
    H           -1.096397466268    -0.382003907071     0.956629238131
    H           -1.160249125283    -0.540385044233    -0.797476812380
    H            0.985766715850    -0.850961740526    -0.136121291918

gradient() will perform analytic gradient computation.

*** tstart() called on node37.bme.utexas.edu
*** at Sun Dec 29 12:31:38 2019

   => Loading Basis Set <=

    Name: 6-311G*
    Role: ORBITAL
    Keyword: BASIS
    atoms 1   entry O          line   152 file /home/bdw2292/miniconda3/envs/p4env/share/psi4/basis/6-311gs.gbs 
    atoms 2   entry C          line   114 file /home/bdw2292/miniconda3/envs/p4env/share/psi4/basis/6-311gs.gbs 
    atoms 3-6 entry H          line    37 file /home/bdw2292/miniconda3/envs/p4env/share/psi4/basis/6-311gs.gbs 


         ---------------------------------------------------------
                                   SCF
               by Justin Turney, Rob Parrish, Andy Simmonett
                          and Daniel G. A. Smith
                              RHF Reference
                        1 Threads,    667 MiB Core
         ---------------------------------------------------------

  ==> Geometry <==

    Molecular point group: c1
    Full point group: C1

    Geometry (in Angstrom), charge = 0, multiplicity = 1:

       Center              X                  Y                   Z               Mass       
    ------------   -----------------  -----------------  -----------------  -----------------
         O            0.689004160803     0.029917078849    -0.013870662594    15.994914619570
         C           -0.724481456214     0.021038452241     0.022083590887    12.000000000000
         H           -1.037839570233     1.048043693721    -0.065839186172     1.007825032230
         H           -1.096397466268    -0.382003907071     0.956629238131     1.007825032230
         H           -1.160249125283    -0.540385044233    -0.797476812380     1.007825032230
         H            0.985766715850    -0.850961740526    -0.136121291918     1.007825032230

  Running in c1 symmetry.

  Rotational constants: A =      4.38765  B =      0.83691  C =      0.80849 [cm^-1]
  Rotational constants: A = 131538.43094  B =  25089.88671  C =  24237.90145 [MHz]
  Nuclear repulsion =   40.660179182386564

  Charge       = 0
  Multiplicity = 1
  Electrons    = 18
  Nalpha       = 9
  Nbeta        = 9

  ==> Algorithm <==

  SCF Algorithm Type is DF.
  DIIS enabled.
  MOM disabled.
  Fractional occupation disabled.
  Guess Type is READ.
  Energy threshold   = 1.00e-08
  Density threshold  = 1.00e-08
  Integral threshold = 0.00e+00

  ==> Primary Basis <==

  Basis Set: 6-311G*
    Blend: 6-311G*
    Number of shells: 28
    Number of basis function: 48
    Number of Cartesian functions: 50
    Spherical Harmonics?: true
    Max angular momentum: 2

   => Loading Basis Set <=

    Name: (6-311G* AUX)
    Role: JKFIT
    Keyword: DF_BASIS_SCF
    atoms 1   entry O          line   229 file /home/bdw2292/miniconda3/envs/p4env/share/psi4/basis/cc-pvtz-jkfit.gbs 
    atoms 2   entry C          line   125 file /home/bdw2292/miniconda3/envs/p4env/share/psi4/basis/cc-pvtz-jkfit.gbs 
    atoms 3-6 entry H          line    51 file /home/bdw2292/miniconda3/envs/p4env/share/psi4/basis/cc-pvtz-jkfit.gbs 

   => Loading Basis Set <=

    Name: 6-311G*
    Role: ORBITAL
    Keyword: BASIS
    atoms 1   entry O          line   152 file /home/bdw2292/miniconda3/envs/p4env/share/psi4/basis/6-311gs.gbs 
    atoms 2   entry C          line   114 file /home/bdw2292/miniconda3/envs/p4env/share/psi4/basis/6-311gs.gbs 
    atoms 3-6 entry H          line    37 file /home/bdw2292/miniconda3/envs/p4env/share/psi4/basis/6-311gs.gbs 

  Reading orbitals from file 180, no projection.

  ==> Pre-Iterations <==

   -------------------------------------------------------
    Irrep   Nso     Nmo     Nalpha   Nbeta   Ndocc  Nsocc
   -------------------------------------------------------
     A         48      48       0       0       0       0
   -------------------------------------------------------
    Total      48      48       9       9       9       0
   -------------------------------------------------------

  ==> Integral Setup <==

  DFHelper Memory: AOs need 0.006 GiB; user supplied 0.489 GiB. Using in-core AOs.

  ==> MemDFJK: Density-Fitted J/K Matrices <==

    J tasked:                   Yes
    K tasked:                   Yes
    wK tasked:                   No
    OpenMP threads:               1
    Memory [MiB]:               500
    Algorithm:                 Core
    Schwarz Cutoff:           1E-12
    Mask sparsity (%):       0.0000
    Fitting Condition:        1E-10

   => Auxiliary Basis Set <=

  Basis Set: (6-311G* AUX)
    Blend: CC-PVTZ-JKFIT
    Number of shells: 90
    Number of basis function: 278
    Number of Cartesian functions: 332
    Spherical Harmonics?: true
    Max angular momentum: 4

  Minimum eigenvalue in the overlap matrix is 1.0847899506E-02.
  Using Symmetric Orthogonalization.

  SCF Guess: Orbitals guess was supplied from a previous computation.

  ==> Iterations <==

                           Total Energy        Delta E     RMS |[F,P]|

   @DF-RHF iter   0:  -115.09125718070307   -1.15091e+02   2.90153e-03 
   @DF-RHF iter   1:  -115.06213172478658    2.91255e-02   6.45835e-04 DIIS
   @DF-RHF iter   2:  -115.06297813628444   -8.46411e-04   2.38435e-04 DIIS
   @DF-RHF iter   3:  -115.06315030095890   -1.72165e-04   6.59680e-05 DIIS
   @DF-RHF iter   4:  -115.06316614730186   -1.58463e-05   1.78967e-05 DIIS
   @DF-RHF iter   5:  -115.06316748995631   -1.34265e-06   5.70524e-06 DIIS
   @DF-RHF iter   6:  -115.06316756806464   -7.81083e-08   1.72927e-06 DIIS
   @DF-RHF iter   7:  -115.06316757528495   -7.22031e-09   3.98987e-07 DIIS
   @DF-RHF iter   8:  -115.06316757558109   -2.96140e-10   1.12671e-07 DIIS
   @DF-RHF iter   9:  -115.06316757561113   -3.00417e-11   1.87519e-08 DIIS
   @DF-RHF iter  10:  -115.06316757561184   -7.10543e-13   4.73360e-09 DIIS
  Energy and wave function converged.


  ==> Post-Iterations <==

    Orbital Energies [Eh]
    ---------------------

    Doubly Occupied:                                                      

       1A    -20.542159     2A    -11.265015     3A     -1.360200  
       4A     -0.929272     5A     -0.694614     6A     -0.620968  
       7A     -0.592157     8A     -0.502535     9A     -0.447044  

    Virtual:                                                              

      10A      0.154246    11A      0.189504    12A      0.227136  
      13A      0.233139    14A      0.343481    15A      0.460480  
      16A      0.481942    17A      0.598329    18A      0.692210  
      19A      0.739169    20A      0.792230    21A      0.805092  
      22A      0.947640    23A      1.065458    24A      1.080654  
      25A      1.177206    26A      1.544175    27A      1.598729  
      28A      1.689008    29A      1.765792    30A      1.771508  
      31A      1.987343    32A      2.370185    33A      2.622229  
      34A      2.709576    35A      2.726819    36A      3.164213  
      37A      3.231662    38A      3.368163    39A      3.411766  
      40A      3.539651    41A      3.567688    42A      3.819116  
      43A      4.272398    44A      5.384390    45A      5.545803  
      46A      5.909187    47A     24.557301    48A     51.524468  

    Final Occupation by Irrep:
              A 
    DOCC [     9 ]

  @DF-RHF Final Energy:  -115.06316757561184

   => Energetics <=

    Nuclear Repulsion Energy =             40.6601791823865639
    One-Electron Energy =                -237.5387624549809402
    Two-Electron Energy =                  81.8154156969825266
    Total Energy =                       -115.0631675756118426

Computation Completed


Properties will be evaluated at   0.000000,   0.000000,   0.000000 [a0]

Properties computed using the SCF density matrix

  Nuclear Dipole Moment: [e a0]
     X:    -2.1610      Y:    -0.6798      Z:    -0.0402

  Electronic Dipole Moment: [e a0]
     X:     1.7096      Y:     0.0436      Z:    -0.0416

  Dipole Moment: [e a0]
     X:    -0.4515      Y:    -0.6363      Z:    -0.0818     Total:     0.7844

  Dipole Moment: [D]
     X:    -1.1476      Y:    -1.6172      Z:    -0.2079     Total:     1.9939


*** tstop() called on node37.bme.utexas.edu at Sun Dec 29 12:31:39 2019
Module time:
	user time   =       0.48 seconds =       0.01 minutes
	system time =       0.01 seconds =       0.00 minutes
	total time  =          1 seconds =       0.02 minutes
Total time:
	user time   =       1.91 seconds =       0.03 minutes
	system time =       0.05 seconds =       0.00 minutes
	total time  =          2 seconds =       0.03 minutes

*** tstart() called on node37.bme.utexas.edu
*** at Sun Dec 29 12:31:39 2019


         ------------------------------------------------------------
                                   SCF GRAD                          
                          Rob Parrish, Justin Turney,                
                       Andy Simmonett, and Alex Sokolov              
         ------------------------------------------------------------

  ==> Geometry <==

    Molecular point group: c1
    Full point group: C1

    Geometry (in Angstrom), charge = 0, multiplicity = 1:

       Center              X                  Y                   Z               Mass       
    ------------   -----------------  -----------------  -----------------  -----------------
         O            0.689004160803     0.029917078849    -0.013870662594    15.994914619570
         C           -0.724481456214     0.021038452241     0.022083590887    12.000000000000
         H           -1.037839570233     1.048043693721    -0.065839186172     1.007825032230
         H           -1.096397466268    -0.382003907071     0.956629238131     1.007825032230
         H           -1.160249125283    -0.540385044233    -0.797476812380     1.007825032230
         H            0.985766715850    -0.850961740526    -0.136121291918     1.007825032230

  Nuclear repulsion =   40.660179182386564

  ==> Basis Set <==

  Basis Set: 6-311G*
    Blend: 6-311G*
    Number of shells: 28
    Number of basis function: 48
    Number of Cartesian functions: 50
    Spherical Harmonics?: true
    Max angular momentum: 2

  ==> DFJKGrad: Density-Fitted SCF Gradients <==

    Gradient:                    1
    J tasked:                  Yes
    K tasked:                  Yes
    wK tasked:                  No
    OpenMP threads:              1
    Integrals threads:           1
    Memory [MiB]:              500
    Schwarz Cutoff:          0E+00
    Fitting Condition:       1E-10

   => Auxiliary Basis Set <=

  Basis Set: (6-311G* AUX)
    Blend: CC-PVTZ-JKFIT
    Number of shells: 90
    Number of basis function: 278
    Number of Cartesian functions: 332
    Spherical Harmonics?: true
    Max angular momentum: 4


  -Total Gradient:
     Atom            X                  Y                   Z
    ------   -----------------  -----------------  -----------------
       1        0.013405751189     0.003385496233     0.002358410904
       2       -0.010615727246    -0.004395498359    -0.000662604990
       3        0.002210819512    -0.001610022813    -0.000706823895
       4        0.000411363854     0.000770836409    -0.001638039005
       5       -0.001595578921     0.000800600939     0.001703060556
       6       -0.003816628389     0.001048587590    -0.001054003569


*** tstop() called on node37.bme.utexas.edu at Sun Dec 29 12:31:40 2019
Module time:
	user time   =       0.48 seconds =       0.01 minutes
	system time =       0.00 seconds =       0.00 minutes
	total time  =          1 seconds =       0.02 minutes
Total time:
	user time   =       2.39 seconds =       0.04 minutes
	system time =       0.05 seconds =       0.00 minutes
	total time  =          3 seconds =       0.05 minutes

			-----------------------------------------
			 OPTKING 2.0: for geometry optimizations 
			  - R.A. King,  Bethel University        
			-----------------------------------------

	Previous internal coordinate definitions found.
	---Fragment 1 Geometry and Gradient---
	 O           1.3020291632        0.0565350855       -0.0262117535
	 C          -1.3690715352        0.0397569128        0.0417319386
	 H          -1.9612325499        1.9805155486       -0.1244180302
	 H          -2.0718909359       -0.7218827632        1.8077672637
	 H          -2.1925530841       -1.0211797359       -1.5070127668
	 H           1.8628291165       -1.6080846328       -0.2572319616
	             0.0134057512        0.0033854962        0.0023584109
	            -0.0106157272       -0.0043954984       -0.0006626050
	             0.0022108195       -0.0016100228       -0.0007068239
	             0.0004113639        0.0007708364       -0.0016380390
	            -0.0015955789        0.0008006009        0.0017030606
	            -0.0038166284        0.0010485876       -0.0010540036

	---Fragment 1 Intrafragment Coordinates---
	 - Coordinate -           - BOHR/RAD -       - ANG/DEG -
	 R(1,2)           =         2.672017	       1.413971
	 R(1,6)           =         1.771673	       0.937529
	 R(2,3)           =         2.035879	       1.077341
	 R(2,4)           =         2.047665	       1.083578
	 R(2,5)           =         2.049956	       1.084790
	 B(1,2,3)         =         1.857406	     106.421518
	 B(1,2,4)         =         1.946985	     111.554012
	 B(1,2,5)         =         1.966663	     112.681500
	 B(2,1,6)         =         1.890035	     108.291056
	 B(3,2,4)         =         1.901946	     108.973478
	 B(3,2,5)         =         1.891107	     108.352478
	 B(4,2,5)         =         1.897806	     108.736252
	 D(3,2,1,6)       =        -2.919522	    -167.276265
	 D(4,2,1,6)       =         1.291234	      73.982277
	 D(5,2,1,6)       =        -0.849278	     -48.660070

	Current energy   :      -115.0631675756

	Energy change for the previous step:
		Projected    :         0.0036698156
		Actual       :        -0.0037380311

	Performing BFGS update.
	Previous computed or guess Hessian on step 1.
	Steps to be used in Hessian update: 1
	Taking RFO optimization step.
	Going to follow RFO solution 1.
	Using RFO vector 1.

	Determining step-restricting scale parameter for RS-RFO.
	Maximum step size allowed    0.50000

	 Iter      |step|        alpha        rfo_root  
	------------------------------------------------
	    0     0.71655       1.00000           1
	    1     0.55833       1.52430           1
	    2     0.50655       1.78649           1
	    3     0.50010       1.82378           1
	    4     0.50000       1.82438           1
	------------------------------------------------
	Norm of target step-size    0.50000
	Projected energy change by RFO approximation:        -0.0029566244

	Back-transformation to cartesian coordinates...
	Successfully converged to displaced geometry.

	--- Internal Coordinate Step in ANG or DEG, aJ/ANG or AJ/DEG ---
	 ---------------------------------------------------------------------------
	   Coordinate                Previous        Force       Change         New 
	   ----------                --------       ------       ------       ------
	    1 R(1,2)          =      1.413971    -0.078931    -0.013438     1.400533
	    2 R(1,6)          =      0.937529     0.016938     0.000331     0.937860
	    3 R(2,3)          =      1.077341     0.017467     0.002475     1.079816
	    4 R(2,4)          =      1.083578     0.015165     0.002341     1.085919
	    5 R(2,5)          =      1.084790     0.008733     0.001193     1.085982
	    6 B(1,2,3)        =    106.421518     0.000250     1.182224   107.603743
	    7 B(1,2,4)        =    111.554012    -0.000016    -0.047559   111.506453
	    8 B(1,2,5)        =    112.681500    -0.000284    -1.177281   111.504218
	    9 B(2,1,6)        =    108.291056     0.000445     0.169486   108.460541
	   10 B(3,2,4)        =    108.973478    -0.000057    -0.260112   108.713367
	   11 B(3,2,5)        =    108.352478     0.000034     0.129226   108.481705
	   12 B(4,2,5)        =    108.736252     0.000081     0.205119   108.941371
	   13 D(3,2,1,6)      =   -167.276265    -0.000010   -16.386071  -183.662335
	   14 D(4,2,1,6)      =     73.982277    -0.000027   -16.775783    57.206494
	   15 D(5,2,1,6)      =    -48.660070    -0.000001   -16.155445   -64.815515
	 ---------------------------------------------------------------------------
	Successfully symmetrized geometry.

  ==> Convergence Check <==

  Measures of convergence in internal coordinates in au.
  Criteria marked as inactive (o), active & met (*), and active & unmet ( ).
  ---------------------------------------------------------------------------------------------
   Step     Total Energy     Delta E     MAX Force     RMS Force      MAX Disp      RMS Disp   
  ---------------------------------------------------------------------------------------------
    Convergence Criteria    1.00e-06 *    3.00e-04 *             o    1.20e-03 *             o
  ---------------------------------------------------------------------------------------------
      2    -115.06316758   -3.74e-03      9.58e-03      3.35e-03 o    2.93e-01      1.29e-01 o  ~
  ---------------------------------------------------------------------------------------------

	Writing optimization data to binary file.
	Structure for next step:
	Cartesian Geometry (in Angstrom)
	    O     0.6781513371   0.0180497348  -0.0943725460
	    C    -0.7191098158   0.0292704646   0.0006401772
	    H    -1.0401237765   1.0598661668  -0.0281002067
	    H    -1.0584292014  -0.4155056527   0.9313689132
	    H    -1.1788550111  -0.4978007658  -0.8301355221
	    H     0.9741697356  -0.8682314121  -0.0139959394
			--------------------------
			 OPTKING Finished Execution 
			--------------------------

    Structure for next step:
    Molecular point group: c1
    Full point group: C1

    Geometry (in Angstrom), charge = 0, multiplicity = 1:

    O            0.681386383990     0.020777788317    -0.049340727577
    C           -0.715874774398     0.031998518182     0.045671995990
    H           -1.036888736408     1.062594224425     0.016931611972
    H           -1.055194161374    -0.412777600849     0.976400735633
    H           -1.175619971561    -0.495072714243    -0.785103706551
    H            0.977404783591    -0.865503362009     0.031035879347

gradient() will perform analytic gradient computation.

*** tstart() called on node37.bme.utexas.edu
*** at Sun Dec 29 12:31:40 2019

   => Loading Basis Set <=

    Name: 6-311G*
    Role: ORBITAL
    Keyword: BASIS
    atoms 1   entry O          line   152 file /home/bdw2292/miniconda3/envs/p4env/share/psi4/basis/6-311gs.gbs 
    atoms 2   entry C          line   114 file /home/bdw2292/miniconda3/envs/p4env/share/psi4/basis/6-311gs.gbs 
    atoms 3-6 entry H          line    37 file /home/bdw2292/miniconda3/envs/p4env/share/psi4/basis/6-311gs.gbs 


         ---------------------------------------------------------
                                   SCF
               by Justin Turney, Rob Parrish, Andy Simmonett
                          and Daniel G. A. Smith
                              RHF Reference
                        1 Threads,    667 MiB Core
         ---------------------------------------------------------

  ==> Geometry <==

    Molecular point group: c1
    Full point group: C1

    Geometry (in Angstrom), charge = 0, multiplicity = 1:

       Center              X                  Y                   Z               Mass       
    ------------   -----------------  -----------------  -----------------  -----------------
         O            0.681386383990     0.020777788317    -0.049340727577    15.994914619570
         C           -0.715874774398     0.031998518182     0.045671995990    12.000000000000
         H           -1.036888736408     1.062594224425     0.016931611972     1.007825032230
         H           -1.055194161374    -0.412777600849     0.976400735633     1.007825032230
         H           -1.175619971561    -0.495072714243    -0.785103706551     1.007825032230
         H            0.977404783591    -0.865503362009     0.031035879347     1.007825032230

  Running in c1 symmetry.

  Rotational constants: A =      4.37410  B =      0.84988  C =      0.82066 [cm^-1]
  Rotational constants: A = 131132.30749  B =  25478.74174  C =  24602.72640 [MHz]
  Nuclear repulsion =   40.853868657763876

  Charge       = 0
  Multiplicity = 1
  Electrons    = 18
  Nalpha       = 9
  Nbeta        = 9

  ==> Algorithm <==

  SCF Algorithm Type is DF.
  DIIS enabled.
  MOM disabled.
  Fractional occupation disabled.
  Guess Type is READ.
  Energy threshold   = 1.00e-08
  Density threshold  = 1.00e-08
  Integral threshold = 0.00e+00

  ==> Primary Basis <==

  Basis Set: 6-311G*
    Blend: 6-311G*
    Number of shells: 28
    Number of basis function: 48
    Number of Cartesian functions: 50
    Spherical Harmonics?: true
    Max angular momentum: 2

   => Loading Basis Set <=

    Name: (6-311G* AUX)
    Role: JKFIT
    Keyword: DF_BASIS_SCF
    atoms 1   entry O          line   229 file /home/bdw2292/miniconda3/envs/p4env/share/psi4/basis/cc-pvtz-jkfit.gbs 
    atoms 2   entry C          line   125 file /home/bdw2292/miniconda3/envs/p4env/share/psi4/basis/cc-pvtz-jkfit.gbs 
    atoms 3-6 entry H          line    51 file /home/bdw2292/miniconda3/envs/p4env/share/psi4/basis/cc-pvtz-jkfit.gbs 

   => Loading Basis Set <=

    Name: 6-311G*
    Role: ORBITAL
    Keyword: BASIS
    atoms 1   entry O          line   152 file /home/bdw2292/miniconda3/envs/p4env/share/psi4/basis/6-311gs.gbs 
    atoms 2   entry C          line   114 file /home/bdw2292/miniconda3/envs/p4env/share/psi4/basis/6-311gs.gbs 
    atoms 3-6 entry H          line    37 file /home/bdw2292/miniconda3/envs/p4env/share/psi4/basis/6-311gs.gbs 

  Reading orbitals from file 180, no projection.

  ==> Pre-Iterations <==

   -------------------------------------------------------
    Irrep   Nso     Nmo     Nalpha   Nbeta   Ndocc  Nsocc
   -------------------------------------------------------
     A         48      48       0       0       0       0
   -------------------------------------------------------
    Total      48      48       9       9       9       0
   -------------------------------------------------------

  ==> Integral Setup <==

  DFHelper Memory: AOs need 0.006 GiB; user supplied 0.489 GiB. Using in-core AOs.

  ==> MemDFJK: Density-Fitted J/K Matrices <==

    J tasked:                   Yes
    K tasked:                   Yes
    wK tasked:                   No
    OpenMP threads:               1
    Memory [MiB]:               500
    Algorithm:                 Core
    Schwarz Cutoff:           1E-12
    Mask sparsity (%):       0.0000
    Fitting Condition:        1E-10

   => Auxiliary Basis Set <=

  Basis Set: (6-311G* AUX)
    Blend: CC-PVTZ-JKFIT
    Number of shells: 90
    Number of basis function: 278
    Number of Cartesian functions: 332
    Spherical Harmonics?: true
    Max angular momentum: 4

  Minimum eigenvalue in the overlap matrix is 1.0658277170E-02.
  Using Symmetric Orthogonalization.

  SCF Guess: Orbitals guess was supplied from a previous computation.

  ==> Iterations <==

                           Total Energy        Delta E     RMS |[F,P]|

   @DF-RHF iter   0:  -115.05770833732208   -1.15058e+02   2.78064e-03 
   @DF-RHF iter   1:  -115.06254596139381   -4.83762e-03   6.34505e-04 DIIS
   @DF-RHF iter   2:  -115.06338658431937   -8.40623e-04   2.58695e-04 DIIS
   @DF-RHF iter   3:  -115.06357405158161   -1.87467e-04   1.16397e-04 DIIS
   @DF-RHF iter   4:  -115.06359718837241   -2.31368e-05   2.80836e-05 DIIS
   @DF-RHF iter   5:  -115.06360035395032   -3.16558e-06   6.49569e-06 DIIS
   @DF-RHF iter   6:  -115.06360049702063   -1.43070e-07   1.99004e-06 DIIS
   @DF-RHF iter   7:  -115.06360050828977   -1.12691e-08   3.99598e-07 DIIS
   @DF-RHF iter   8:  -115.06360050880096   -5.11193e-10   9.36235e-08 DIIS
   @DF-RHF iter   9:  -115.06360050882871   -2.77538e-11   1.26143e-08 DIIS
   @DF-RHF iter  10:  -115.06360050882930   -5.82645e-13   3.08093e-09 DIIS
  Energy and wave function converged.


  ==> Post-Iterations <==

    Orbital Energies [Eh]
    ---------------------

    Doubly Occupied:                                                      

       1A    -20.541905     2A    -11.264665     3A     -1.364886  
       4A     -0.928064     5A     -0.696487     6A     -0.623083  
       7A     -0.596721     8A     -0.500113     9A     -0.445377  

    Virtual:                                                              

      10A      0.154221    11A      0.189668    12A      0.226896  
      13A      0.233915    14A      0.345443    15A      0.461900  
      16A      0.482891    17A      0.595173    18A      0.700154  
      19A      0.738068    20A      0.791424    21A      0.805824  
      22A      0.946475    23A      1.065009    24A      1.079208  
      25A      1.175436    26A      1.546833    27A      1.597468  
      28A      1.693370    29A      1.764946    30A      1.770618  
      31A      1.999375    32A      2.370950    33A      2.622040  
      34A      2.707416    35A      2.723879    36A      3.163840  
      37A      3.253162    38A      3.379372    39A      3.415731  
      40A      3.529838    41A      3.580805    42A      3.820897  
      43A      4.275207    44A      5.385082    45A      5.546721  
      46A      5.925527    47A     24.567264    48A     51.527542  

    Final Occupation by Irrep:
              A 
    DOCC [     9 ]

  @DF-RHF Final Energy:  -115.06360050882930

   => Energetics <=

    Nuclear Repulsion Energy =             40.8538686577638757
    One-Electron Energy =                -237.9123360644883292
    Two-Electron Energy =                  81.9948668978951503
    Total Energy =                       -115.0636005088292961

Computation Completed


Properties will be evaluated at   0.000000,   0.000000,   0.000000 [a0]

Properties computed using the SCF density matrix

  Nuclear Dipole Moment: [e a0]
     X:    -2.1438      Y:    -0.6662      Z:     0.2241

  Electronic Dipole Moment: [e a0]
     X:     1.7114      Y:     0.0392      Z:    -0.1197

  Dipole Moment: [e a0]
     X:    -0.4324      Y:    -0.6270      Z:     0.1044     Total:     0.7688

  Dipole Moment: [D]
     X:    -1.0991      Y:    -1.5936      Z:     0.2653     Total:     1.9540


*** tstop() called on node37.bme.utexas.edu at Sun Dec 29 12:31:40 2019
Module time:
	user time   =       0.49 seconds =       0.01 minutes
	system time =       0.01 seconds =       0.00 minutes
	total time  =          0 seconds =       0.00 minutes
Total time:
	user time   =       2.89 seconds =       0.05 minutes
	system time =       0.06 seconds =       0.00 minutes
	total time  =          3 seconds =       0.05 minutes

*** tstart() called on node37.bme.utexas.edu
*** at Sun Dec 29 12:31:40 2019


         ------------------------------------------------------------
                                   SCF GRAD                          
                          Rob Parrish, Justin Turney,                
                       Andy Simmonett, and Alex Sokolov              
         ------------------------------------------------------------

  ==> Geometry <==

    Molecular point group: c1
    Full point group: C1

    Geometry (in Angstrom), charge = 0, multiplicity = 1:

       Center              X                  Y                   Z               Mass       
    ------------   -----------------  -----------------  -----------------  -----------------
         O            0.681386383990     0.020777788317    -0.049340727577    15.994914619570
         C           -0.715874774398     0.031998518182     0.045671995990    12.000000000000
         H           -1.036888736408     1.062594224425     0.016931611972     1.007825032230
         H           -1.055194161374    -0.412777600849     0.976400735633     1.007825032230
         H           -1.175619971561    -0.495072714243    -0.785103706551     1.007825032230
         H            0.977404783591    -0.865503362009     0.031035879347     1.007825032230

  Nuclear repulsion =   40.853868657763876

  ==> Basis Set <==

  Basis Set: 6-311G*
    Blend: 6-311G*
    Number of shells: 28
    Number of basis function: 48
    Number of Cartesian functions: 50
    Spherical Harmonics?: true
    Max angular momentum: 2

  ==> DFJKGrad: Density-Fitted SCF Gradients <==

    Gradient:                    1
    J tasked:                  Yes
    K tasked:                  Yes
    wK tasked:                  No
    OpenMP threads:              1
    Integrals threads:           1
    Memory [MiB]:              500
    Schwarz Cutoff:          0E+00
    Fitting Condition:       1E-10

   => Auxiliary Basis Set <=

  Basis Set: (6-311G* AUX)
    Blend: CC-PVTZ-JKFIT
    Number of shells: 90
    Number of basis function: 278
    Number of Cartesian functions: 332
    Spherical Harmonics?: true
    Max angular momentum: 4


  -Total Gradient:
     Atom            X                  Y                   Z
    ------   -----------------  -----------------  -----------------
       1        0.003312115305     0.000427892942    -0.000792276826
       2       -0.002232528411    -0.000855456990     0.000731825220
       3       -0.000134717961    -0.000317178837    -0.000196083383
       4        0.001210669085    -0.000238859476    -0.000571609714
       5        0.001060474063     0.000387040331     0.000264807859
       6       -0.003216012080     0.000596562029     0.000563336845


*** tstop() called on node37.bme.utexas.edu at Sun Dec 29 12:31:41 2019
Module time:
	user time   =       0.48 seconds =       0.01 minutes
	system time =       0.00 seconds =       0.00 minutes
	total time  =          1 seconds =       0.02 minutes
Total time:
	user time   =       3.37 seconds =       0.06 minutes
	system time =       0.06 seconds =       0.00 minutes
	total time  =          4 seconds =       0.07 minutes

			-----------------------------------------
			 OPTKING 2.0: for geometry optimizations 
			  - R.A. King,  Bethel University        
			-----------------------------------------

	Previous internal coordinate definitions found.
	---Fragment 1 Geometry and Gradient---
	 O           1.2876336514        0.0392643294       -0.0932404620
	 C          -1.3528072637        0.0604684358        0.0863075640
	 H          -1.9594357344        2.0080120667        0.0319961095
	 H          -1.9940279742       -0.7800366163        1.8451299790
	 H          -2.2215997739       -0.9355518421       -1.4836309855
	 H           1.8470273547       -1.6355643149        0.0586493120
	             0.0033121153        0.0004278929       -0.0007922768
	            -0.0022325284       -0.0008554570        0.0007318252
	            -0.0001347180       -0.0003171788       -0.0001960834
	             0.0012106691       -0.0002388595       -0.0005716097
	             0.0010604741        0.0003870403        0.0002648079
	            -0.0032160121        0.0005965620        0.0005633368

	---Fragment 1 Intrafragment Coordinates---
	 - Coordinate -           - BOHR/RAD -       - ANG/DEG -
	 R(1,2)           =         2.646623	       1.400533
	 R(1,6)           =         1.772299	       0.937860
	 R(2,3)           =         2.040557	       1.079816
	 R(2,4)           =         2.052089	       1.085919
	 R(2,5)           =         2.052210	       1.085982
	 B(1,2,3)         =         1.878040	     107.603743
	 B(1,2,4)         =         1.946155	     111.506453
	 B(1,2,5)         =         1.946116	     111.504218
	 B(2,1,6)         =         1.892994	     108.460541
	 B(3,2,4)         =         1.897406	     108.713367
	 B(3,2,5)         =         1.893363	     108.481705
	 B(4,2,5)         =         1.901386	     108.941371
	 D(3,2,1,6)       =         3.077673	     176.337665
	 D(4,2,1,6)       =         0.998442	      57.206494
	 D(5,2,1,6)       =        -1.131244	     -64.815515

	Current energy   :      -115.0636005088

	Energy change for the previous step:
		Projected    :        -0.0029566244
		Actual       :        -0.0004329332
	Energy ratio indicates iffy step: Trust radius decreased to 1.250e-01.


	Performing BFGS update.
	Previous computed or guess Hessian on step 1.
	Steps to be used in Hessian update: 2 1
	Taking RFO optimization step.
	Going to follow RFO solution 1.
	Using RFO vector 1.

	Determining step-restricting scale parameter for RS-RFO.
	Maximum step size allowed    0.12500

	 Iter      |step|        alpha        rfo_root  
	------------------------------------------------
	    0     0.24973       1.00000           1
	    1     0.17235       3.76670           1
	    2     0.13678       6.43324           1
	    3     0.12613       7.60287           1
	    4     0.12501       7.73942           1
	    5     0.12500       7.74095           1
	------------------------------------------------
	Norm of target step-size    0.12500
	Projected energy change by RFO approximation:        -0.0005095022

	Back-transformation to cartesian coordinates...
	Successfully converged to displaced geometry.

	--- Internal Coordinate Step in ANG or DEG, aJ/ANG or AJ/DEG ---
	 ---------------------------------------------------------------------------
	   Coordinate                Previous        Force       Change         New 
	   ----------                --------       ------       ------       ------
	    1 R(1,2)          =      1.400533    -0.000850    -0.006035     1.394498
	    2 R(1,6)          =      0.937860     0.012610     0.000411     0.938271
	    3 R(2,3)          =      1.079816     0.002121     0.000847     1.080663
	    4 R(2,4)          =      1.085919     0.006347     0.001713     1.087632
	    5 R(2,5)          =      1.085982     0.006915     0.001385     1.087367
	    6 B(1,2,3)        =    107.603743    -0.000069     0.058705   107.662448
	    7 B(1,2,4)        =    111.506453     0.000104     0.533941   112.040394
	    8 B(1,2,5)        =    111.504218     0.000085     0.087933   111.592151
	    9 B(2,1,6)        =    108.460541     0.000393     1.873828   110.334369
	   10 B(3,2,4)        =    108.713367    -0.000058    -0.515837   108.197530
	   11 B(3,2,5)        =    108.481705    -0.000014    -0.061893   108.419811
	   12 B(4,2,5)        =    108.941371    -0.000055    -0.135927   108.805444
	   13 D(3,2,1,6)      =    176.337665     0.000001     3.822776   180.160440
	   14 D(4,2,1,6)      =     57.206494     0.000013     4.105505    61.311999
	   15 D(5,2,1,6)      =    -64.815515    -0.000002     3.834942   -60.980573
	 ---------------------------------------------------------------------------
	Successfully symmetrized geometry.

  ==> Convergence Check <==

  Measures of convergence in internal coordinates in au.
  Criteria marked as inactive (o), active & met (*), and active & unmet ( ).
  ---------------------------------------------------------------------------------------------
   Step     Total Energy     Delta E     MAX Force     RMS Force      MAX Disp      RMS Disp   
  ---------------------------------------------------------------------------------------------
    Convergence Criteria    1.00e-06 *    3.00e-04 *             o    1.20e-03 *             o
  ---------------------------------------------------------------------------------------------
      3    -115.06360051   -4.33e-04      5.17e-03      1.55e-03 o    7.17e-02      3.21e-02 o  ~
  ---------------------------------------------------------------------------------------------

	Writing optimization data to binary file.
	Structure for next step:
	Cartesian Geometry (in Angstrom)
	    O     0.6773025056   0.0123024785  -0.0226771529
	    C    -0.7151768336   0.0323109788   0.0496102200
	    H    -1.0307574970   1.0651048026   0.0098713142
	    H    -1.0819180331  -0.3994299488   0.9780732231
	    H    -1.1668800661  -0.4973607086  -0.7857215141
	    H     0.9926434570  -0.8709107461   0.0064396975
			--------------------------
			 OPTKING Finished Execution 
			--------------------------

    Structure for next step:
    Molecular point group: c1
    Full point group: C1

    Geometry (in Angstrom), charge = 0, multiplicity = 1:

    O            0.678974062500     0.016161367436    -0.036506418603
    C           -0.713505282168     0.036169867777     0.035780954577
    H           -1.029085946791     1.068963695607    -0.003957951408
    H           -1.080246483103    -0.395571061479     0.964243961308
    H           -1.165208516434    -0.493501821680    -0.799550782838
    H            0.994315015156    -0.867051860703    -0.007389568079

gradient() will perform analytic gradient computation.

*** tstart() called on node37.bme.utexas.edu
*** at Sun Dec 29 12:31:41 2019

   => Loading Basis Set <=

    Name: 6-311G*
    Role: ORBITAL
    Keyword: BASIS
    atoms 1   entry O          line   152 file /home/bdw2292/miniconda3/envs/p4env/share/psi4/basis/6-311gs.gbs 
    atoms 2   entry C          line   114 file /home/bdw2292/miniconda3/envs/p4env/share/psi4/basis/6-311gs.gbs 
    atoms 3-6 entry H          line    37 file /home/bdw2292/miniconda3/envs/p4env/share/psi4/basis/6-311gs.gbs 


         ---------------------------------------------------------
                                   SCF
               by Justin Turney, Rob Parrish, Andy Simmonett
                          and Daniel G. A. Smith
                              RHF Reference
                        1 Threads,    667 MiB Core
         ---------------------------------------------------------

  ==> Geometry <==

    Molecular point group: c1
    Full point group: C1

    Geometry (in Angstrom), charge = 0, multiplicity = 1:

       Center              X                  Y                   Z               Mass       
    ------------   -----------------  -----------------  -----------------  -----------------
         O            0.678974062500     0.016161367436    -0.036506418603    15.994914619570
         C           -0.713505282168     0.036169867777     0.035780954577    12.000000000000
         H           -1.029085946791     1.068963695607    -0.003957951408     1.007825032230
         H           -1.080246483103    -0.395571061479     0.964243961308     1.007825032230
         H           -1.165208516434    -0.493501821680    -0.799550782838     1.007825032230
         H            0.994315015156    -0.867051860703    -0.007389568079     1.007825032230

  Running in c1 symmetry.

  Rotational constants: A =      4.39736  B =      0.85209  C =      0.82372 [cm^-1]
  Rotational constants: A = 131829.41583  B =  25545.08226  C =  24694.50037 [MHz]
  Nuclear repulsion =   40.905248650623093

  Charge       = 0
  Multiplicity = 1
  Electrons    = 18
  Nalpha       = 9
  Nbeta        = 9

  ==> Algorithm <==

  SCF Algorithm Type is DF.
  DIIS enabled.
  MOM disabled.
  Fractional occupation disabled.
  Guess Type is READ.
  Energy threshold   = 1.00e-08
  Density threshold  = 1.00e-08
  Integral threshold = 0.00e+00

  ==> Primary Basis <==

  Basis Set: 6-311G*
    Blend: 6-311G*
    Number of shells: 28
    Number of basis function: 48
    Number of Cartesian functions: 50
    Spherical Harmonics?: true
    Max angular momentum: 2

   => Loading Basis Set <=

    Name: (6-311G* AUX)
    Role: JKFIT
    Keyword: DF_BASIS_SCF
    atoms 1   entry O          line   229 file /home/bdw2292/miniconda3/envs/p4env/share/psi4/basis/cc-pvtz-jkfit.gbs 
    atoms 2   entry C          line   125 file /home/bdw2292/miniconda3/envs/p4env/share/psi4/basis/cc-pvtz-jkfit.gbs 
    atoms 3-6 entry H          line    51 file /home/bdw2292/miniconda3/envs/p4env/share/psi4/basis/cc-pvtz-jkfit.gbs 

   => Loading Basis Set <=

    Name: 6-311G*
    Role: ORBITAL
    Keyword: BASIS
    atoms 1   entry O          line   152 file /home/bdw2292/miniconda3/envs/p4env/share/psi4/basis/6-311gs.gbs 
    atoms 2   entry C          line   114 file /home/bdw2292/miniconda3/envs/p4env/share/psi4/basis/6-311gs.gbs 
    atoms 3-6 entry H          line    37 file /home/bdw2292/miniconda3/envs/p4env/share/psi4/basis/6-311gs.gbs 

  Reading orbitals from file 180, no projection.

  ==> Pre-Iterations <==

   -------------------------------------------------------
    Irrep   Nso     Nmo     Nalpha   Nbeta   Ndocc  Nsocc
   -------------------------------------------------------
     A         48      48       0       0       0       0
   -------------------------------------------------------
    Total      48      48       9       9       9       0
   -------------------------------------------------------

  ==> Integral Setup <==

  DFHelper Memory: AOs need 0.006 GiB; user supplied 0.489 GiB. Using in-core AOs.

  ==> MemDFJK: Density-Fitted J/K Matrices <==

    J tasked:                   Yes
    K tasked:                   Yes
    wK tasked:                   No
    OpenMP threads:               1
    Memory [MiB]:               500
    Algorithm:                 Core
    Schwarz Cutoff:           1E-12
    Mask sparsity (%):       0.0000
    Fitting Condition:        1E-10

   => Auxiliary Basis Set <=

  Basis Set: (6-311G* AUX)
    Blend: CC-PVTZ-JKFIT
    Number of shells: 90
    Number of basis function: 278
    Number of Cartesian functions: 332
    Spherical Harmonics?: true
    Max angular momentum: 4

  Minimum eigenvalue in the overlap matrix is 1.0630408888E-02.
  Using Symmetric Orthogonalization.

  SCF Guess: Orbitals guess was supplied from a previous computation.

  ==> Iterations <==

                           Total Energy        Delta E     RMS |[F,P]|

   @DF-RHF iter   0:  -115.06458293760893   -1.15065e+02   8.91577e-04 
   @DF-RHF iter   1:  -115.06360754952546    9.75388e-04   1.81508e-04 DIIS
   @DF-RHF iter   2:  -115.06367583378501   -6.82843e-05   6.86570e-05 DIIS
   @DF-RHF iter   3:  -115.06368974898405   -1.39152e-05   1.98149e-05 DIIS
   @DF-RHF iter   4:  -115.06369085043406   -1.10145e-06   6.29954e-06 DIIS
   @DF-RHF iter   5:  -115.06369098936710   -1.38933e-07   1.91056e-06 DIIS
   @DF-RHF iter   6:  -115.06369100129436   -1.19273e-08   6.38955e-07 DIIS
   @DF-RHF iter   7:  -115.06369100208315   -7.88788e-10   1.68455e-07 DIIS
   @DF-RHF iter   8:  -115.06369100216276   -7.96092e-11   2.86506e-08 DIIS
   @DF-RHF iter   9:  -115.06369100216533   -2.57216e-12   4.14572e-09 DIIS
  Energy and wave function converged.


  ==> Post-Iterations <==

    Orbital Energies [Eh]
    ---------------------

    Doubly Occupied:                                                      

       1A    -20.541357     2A    -11.264625     3A     -1.365630  
       4A     -0.928359     5A     -0.697566     6A     -0.622921  
       7A     -0.598682     8A     -0.497093     9A     -0.444431  

    Virtual:                                                              

      10A      0.154700    11A      0.189074    12A      0.227429  
      13A      0.234350    14A      0.346803    15A      0.461938  
      16A      0.484114    17A      0.596530    18A      0.702533  
      19A      0.737235    20A      0.791041    21A      0.806021  
      22A      0.945944    23A      1.064941    24A      1.079658  
      25A      1.175776    26A      1.547596    27A      1.601662  
      28A      1.696708    29A      1.764720    30A      1.770438  
      31A      2.005853    32A      2.368117    33A      2.618771  
      34A      2.706192    35A      2.724838    36A      3.164892  
      37A      3.263758    38A      3.382504    39A      3.420573  
      40A      3.513934    41A      3.581151    42A      3.833356  
      43A      4.274392    44A      5.386610    45A      5.543423  
      46A      5.938496    47A     24.571014    48A     51.528654  

    Final Occupation by Irrep:
              A 
    DOCC [     9 ]

  @DF-RHF Final Energy:  -115.06369100216533

   => Energetics <=

    Nuclear Repulsion Energy =             40.9052486506230935
    One-Electron Energy =                -238.0165535700556632
    Two-Electron Energy =                  82.0476139172672418
    Total Energy =                       -115.0636910021653279

Computation Completed


Properties will be evaluated at   0.000000,   0.000000,   0.000000 [a0]

Properties computed using the SCF density matrix

  Nuclear Dipole Moment: [e a0]
     X:    -2.1344      Y:    -0.6441      Z:     0.1436

  Electronic Dipole Moment: [e a0]
     X:     1.7217      Y:     0.0181      Z:    -0.0894

  Dipole Moment: [e a0]
     X:    -0.4127      Y:    -0.6261      Z:     0.0542     Total:     0.7518

  Dipole Moment: [D]
     X:    -1.0489      Y:    -1.5913      Z:     0.1378     Total:     1.9109


*** tstop() called on node37.bme.utexas.edu at Sun Dec 29 12:31:41 2019
Module time:
	user time   =       0.48 seconds =       0.01 minutes
	system time =       0.00 seconds =       0.00 minutes
	total time  =          0 seconds =       0.00 minutes
Total time:
	user time   =       3.86 seconds =       0.06 minutes
	system time =       0.07 seconds =       0.00 minutes
	total time  =          4 seconds =       0.07 minutes

*** tstart() called on node37.bme.utexas.edu
*** at Sun Dec 29 12:31:41 2019


         ------------------------------------------------------------
                                   SCF GRAD                          
                          Rob Parrish, Justin Turney,                
                       Andy Simmonett, and Alex Sokolov              
         ------------------------------------------------------------

  ==> Geometry <==

    Molecular point group: c1
    Full point group: C1

    Geometry (in Angstrom), charge = 0, multiplicity = 1:

       Center              X                  Y                   Z               Mass       
    ------------   -----------------  -----------------  -----------------  -----------------
         O            0.678974062500     0.016161367436    -0.036506418603    15.994914619570
         C           -0.713505282168     0.036169867777     0.035780954577    12.000000000000
         H           -1.029085946791     1.068963695607    -0.003957951408     1.007825032230
         H           -1.080246483103    -0.395571061479     0.964243961308     1.007825032230
         H           -1.165208516434    -0.493501821680    -0.799550782838     1.007825032230
         H            0.994315015156    -0.867051860703    -0.007389568079     1.007825032230

  Nuclear repulsion =   40.905248650623093

  ==> Basis Set <==

  Basis Set: 6-311G*
    Blend: 6-311G*
    Number of shells: 28
    Number of basis function: 48
    Number of Cartesian functions: 50
    Spherical Harmonics?: true
    Max angular momentum: 2

  ==> DFJKGrad: Density-Fitted SCF Gradients <==

    Gradient:                    1
    J tasked:                  Yes
    K tasked:                  Yes
    wK tasked:                  No
    OpenMP threads:              1
    Integrals threads:           1
    Memory [MiB]:              500
    Schwarz Cutoff:          0E+00
    Fitting Condition:       1E-10

   => Auxiliary Basis Set <=

  Basis Set: (6-311G* AUX)
    Blend: CC-PVTZ-JKFIT
    Number of shells: 90
    Number of basis function: 278
    Number of Cartesian functions: 332
    Spherical Harmonics?: true
    Max angular momentum: 4


  -Total Gradient:
     Atom            X                  Y                   Z
    ------   -----------------  -----------------  -----------------
       1       -0.002808167339    -0.002058653670    -0.000305844172
       2        0.002345014499     0.001282014796     0.000253701688
       3       -0.000836679428     0.000010948585     0.000258232212
       4       -0.000015205868     0.000198578599     0.000187719805
       5        0.000944070690    -0.000156471725    -0.000308532501
       6        0.000370967447     0.000723583416    -0.000085277030


*** tstop() called on node37.bme.utexas.edu at Sun Dec 29 12:31:42 2019
Module time:
	user time   =       0.48 seconds =       0.01 minutes
	system time =       0.01 seconds =       0.00 minutes
	total time  =          1 seconds =       0.02 minutes
Total time:
	user time   =       4.34 seconds =       0.07 minutes
	system time =       0.08 seconds =       0.00 minutes
	total time  =          5 seconds =       0.08 minutes

			-----------------------------------------
			 OPTKING 2.0: for geometry optimizations 
			  - R.A. King,  Bethel University        
			-----------------------------------------

	Previous internal coordinate definitions found.
	---Fragment 1 Geometry and Gradient---
	 O           1.2830750244        0.0305405583       -0.0689871330
	 C          -1.3483295724        0.0683511441        0.0676162047
	 H          -1.9446905990        2.0200486228       -0.0074794442
	 H          -2.0413700011       -0.7475209694        1.8221570050
	 H          -2.2019249751       -0.9325832854       -1.5109320030
	 H           1.8789830611       -1.6384905533       -0.0139642599
	            -0.0028081673       -0.0020586537       -0.0003058442
	             0.0023450145        0.0012820148        0.0002537017
	            -0.0008366794        0.0000109486        0.0002582322
	            -0.0000152059        0.0001985786        0.0001877198
	             0.0009440707       -0.0001564717       -0.0003085325
	             0.0003709674        0.0007235834       -0.0000852770

	---Fragment 1 Intrafragment Coordinates---
	 - Coordinate -           - BOHR/RAD -       - ANG/DEG -
	 R(1,2)           =         2.635219	       1.394498
	 R(1,6)           =         1.773076	       0.938271
	 R(2,3)           =         2.042158	       1.080663
	 R(2,4)           =         2.055326	       1.087632
	 R(2,5)           =         2.054826	       1.087367
	 B(1,2,3)         =         1.879064	     107.662448
	 B(1,2,4)         =         1.955474	     112.040394
	 B(1,2,5)         =         1.947650	     111.592151
	 B(2,1,6)         =         1.925698	     110.334369
	 B(3,2,4)         =         1.888403	     108.197530
	 B(3,2,5)         =         1.892283	     108.419811
	 B(4,2,5)         =         1.899013	     108.805444
	 D(3,2,1,6)       =        -3.138792	    -179.839560
	 D(4,2,1,6)       =         1.070096	      61.311999
	 D(5,2,1,6)       =        -1.064312	     -60.980573

	Current energy   :      -115.0636910022

	Energy change for the previous step:
		Projected    :        -0.0005095022
		Actual       :        -0.0000904933
	Energy ratio indicates iffy step: Trust radius decreased to 3.125e-02.


	Performing BFGS update.
	Previous computed or guess Hessian on step 1.
	Steps to be used in Hessian update: 3 2
	Taking RFO optimization step.
	Going to follow RFO solution 1.
	Using RFO vector 1.

	Determining step-restricting scale parameter for RS-RFO.
	Maximum step size allowed    0.03125

	 Iter      |step|        alpha        rfo_root  
	------------------------------------------------
	    0     0.11606       1.00000           1
	    1     0.07131      15.90766           1
	    2     0.04788      40.37595           1
	    3     0.03684      69.99590           1
	    4     0.03243      92.73500           1
	    5     0.03133     100.42380           1
	    6     0.03125     101.02027           1
	------------------------------------------------
	Norm of target step-size    0.03125
	Projected energy change by RFO approximation:        -0.0001293327

	Back-transformation to cartesian coordinates...
	Successfully converged to displaced geometry.

	--- Internal Coordinate Step in ANG or DEG, aJ/ANG or AJ/DEG ---
	 ---------------------------------------------------------------------------
	   Coordinate                Previous        Force       Change         New 
	   ----------                --------       ------       ------       ------
	    1 R(1,2)          =      1.394498     0.019725     0.006710     1.401208
	    2 R(1,6)          =      0.938271     0.004606     0.001851     0.940123
	    3 R(2,3)          =      1.080663    -0.002021    -0.000340     1.080323
	    4 R(2,4)          =      1.087632    -0.000713    -0.000227     1.087405
	    5 R(2,5)          =      1.087367     0.000650     0.000263     1.087630
	    6 B(1,2,3)        =    107.662448    -0.000113    -0.711455   106.950992
	    7 B(1,2,4)        =    112.040394    -0.000004    -0.017569   112.022825
	    8 B(1,2,5)        =    111.592151     0.000129     0.694226   112.286377
	    9 B(2,1,6)        =    110.334369    -0.000080     0.138774   110.473144
	   10 B(3,2,4)        =    108.197530     0.000036     0.210446   108.407975
	   11 B(3,2,5)        =    108.419811    -0.000012    -0.039328   108.380483
	   12 B(4,2,5)        =    108.805444    -0.000039    -0.152245   108.653199
	   13 D(3,2,1,6)      =   -179.839560    -0.000002    -0.744611  -180.584170
	   14 D(4,2,1,6)      =     61.311999     0.000005    -0.541980    60.770019
	   15 D(5,2,1,6)      =    -60.980573    -0.000004    -0.841014   -61.821586
	 ---------------------------------------------------------------------------
	Successfully symmetrized geometry.

  ==> Convergence Check <==

  Measures of convergence in internal coordinates in au.
  Criteria marked as inactive (o), active & met (*), and active & unmet ( ).
  ---------------------------------------------------------------------------------------------
   Step     Total Energy     Delta E     MAX Force     RMS Force      MAX Disp      RMS Disp   
  ---------------------------------------------------------------------------------------------
    Convergence Criteria    1.00e-06 *    3.00e-04 *             o    1.20e-03 *             o
  ---------------------------------------------------------------------------------------------
      4    -115.06369100   -9.05e-05      2.39e-03      9.31e-04 o    1.47e-02      8.07e-03 o  ~
  ---------------------------------------------------------------------------------------------

	Writing optimization data to binary file.
	Structure for next step:
	Cartesian Geometry (in Angstrom)
	    O     0.6829206783   0.0108414930  -0.0413045146
	    C    -0.7161111139   0.0354561269   0.0327809417
	    H    -1.0158115224   1.0723182670  -0.0140678647
	    H    -1.0825046697  -0.3860666831   0.9657998823
	    H    -1.1823708105  -0.4940477789  -0.7949671104
	    H     0.9991202965  -0.8733312355   0.0043788600
			--------------------------
			 OPTKING Finished Execution 
			--------------------------

    Structure for next step:
    Molecular point group: c1
    Full point group: C1

    Geometry (in Angstrom), charge = 0, multiplicity = 1:

    O            0.681968194517     0.013575971557    -0.038029505105
    C           -0.717063603136     0.038190605626     0.036055951459
    H           -1.016764012859     1.075052749784    -0.010792855144
    H           -1.083457160442    -0.383332206025     0.969074895713
    H           -1.183323301612    -0.491313302231    -0.791692103920
    H            0.998167814011    -0.870596760381     0.007653869619

gradient() will perform analytic gradient computation.

*** tstart() called on node37.bme.utexas.edu
*** at Sun Dec 29 12:31:42 2019

   => Loading Basis Set <=

    Name: 6-311G*
    Role: ORBITAL
    Keyword: BASIS
    atoms 1   entry O          line   152 file /home/bdw2292/miniconda3/envs/p4env/share/psi4/basis/6-311gs.gbs 
    atoms 2   entry C          line   114 file /home/bdw2292/miniconda3/envs/p4env/share/psi4/basis/6-311gs.gbs 
    atoms 3-6 entry H          line    37 file /home/bdw2292/miniconda3/envs/p4env/share/psi4/basis/6-311gs.gbs 


         ---------------------------------------------------------
                                   SCF
               by Justin Turney, Rob Parrish, Andy Simmonett
                          and Daniel G. A. Smith
                              RHF Reference
                        1 Threads,    667 MiB Core
         ---------------------------------------------------------

  ==> Geometry <==

    Molecular point group: c1
    Full point group: C1

    Geometry (in Angstrom), charge = 0, multiplicity = 1:

       Center              X                  Y                   Z               Mass       
    ------------   -----------------  -----------------  -----------------  -----------------
         O            0.681968194517     0.013575971557    -0.038029505105    15.994914619570
         C           -0.717063603136     0.038190605626     0.036055951459    12.000000000000
         H           -1.016764012859     1.075052749784    -0.010792855144     1.007825032230
         H           -1.083457160442    -0.383332206025     0.969074895713     1.007825032230
         H           -1.183323301612    -0.491313302231    -0.791692103920     1.007825032230
         H            0.998167814011    -0.870596760381     0.007653869619     1.007825032230

  Running in c1 symmetry.

  Rotational constants: A =      4.39652  B =      0.84517  C =      0.81699 [cm^-1]
  Rotational constants: A = 131804.22949  B =  25337.66248  C =  24492.83090 [MHz]
  Nuclear repulsion =   40.783649000419970

  Charge       = 0
  Multiplicity = 1
  Electrons    = 18
  Nalpha       = 9
  Nbeta        = 9

  ==> Algorithm <==

  SCF Algorithm Type is DF.
  DIIS enabled.
  MOM disabled.
  Fractional occupation disabled.
  Guess Type is READ.
  Energy threshold   = 1.00e-08
  Density threshold  = 1.00e-08
  Integral threshold = 0.00e+00

  ==> Primary Basis <==

  Basis Set: 6-311G*
    Blend: 6-311G*
    Number of shells: 28
    Number of basis function: 48
    Number of Cartesian functions: 50
    Spherical Harmonics?: true
    Max angular momentum: 2

   => Loading Basis Set <=

    Name: (6-311G* AUX)
    Role: JKFIT
    Keyword: DF_BASIS_SCF
    atoms 1   entry O          line   229 file /home/bdw2292/miniconda3/envs/p4env/share/psi4/basis/cc-pvtz-jkfit.gbs 
    atoms 2   entry C          line   125 file /home/bdw2292/miniconda3/envs/p4env/share/psi4/basis/cc-pvtz-jkfit.gbs 
    atoms 3-6 entry H          line    51 file /home/bdw2292/miniconda3/envs/p4env/share/psi4/basis/cc-pvtz-jkfit.gbs 

   => Loading Basis Set <=

    Name: 6-311G*
    Role: ORBITAL
    Keyword: BASIS
    atoms 1   entry O          line   152 file /home/bdw2292/miniconda3/envs/p4env/share/psi4/basis/6-311gs.gbs 
    atoms 2   entry C          line   114 file /home/bdw2292/miniconda3/envs/p4env/share/psi4/basis/6-311gs.gbs 
    atoms 3-6 entry H          line    37 file /home/bdw2292/miniconda3/envs/p4env/share/psi4/basis/6-311gs.gbs 

  Reading orbitals from file 180, no projection.

  ==> Pre-Iterations <==

   -------------------------------------------------------
    Irrep   Nso     Nmo     Nalpha   Nbeta   Ndocc  Nsocc
   -------------------------------------------------------
     A         48      48       0       0       0       0
   -------------------------------------------------------
    Total      48      48       9       9       9       0
   -------------------------------------------------------

  ==> Integral Setup <==

  DFHelper Memory: AOs need 0.006 GiB; user supplied 0.489 GiB. Using in-core AOs.

  ==> MemDFJK: Density-Fitted J/K Matrices <==

    J tasked:                   Yes
    K tasked:                   Yes
    wK tasked:                   No
    OpenMP threads:               1
    Memory [MiB]:               500
    Algorithm:                 Core
    Schwarz Cutoff:           1E-12
    Mask sparsity (%):       0.0000
    Fitting Condition:        1E-10

   => Auxiliary Basis Set <=

  Basis Set: (6-311G* AUX)
    Blend: CC-PVTZ-JKFIT
    Number of shells: 90
    Number of basis function: 278
    Number of Cartesian functions: 332
    Spherical Harmonics?: true
    Max angular momentum: 4

  Minimum eigenvalue in the overlap matrix is 1.0756590194E-02.
  Using Symmetric Orthogonalization.

  SCF Guess: Orbitals guess was supplied from a previous computation.

  ==> Iterations <==

                           Total Energy        Delta E     RMS |[F,P]|

   @DF-RHF iter   0:  -115.05987720664452   -1.15060e+02   4.18360e-04 
   @DF-RHF iter   1:  -115.06367530970398   -3.79810e-03   7.78153e-05 DIIS
   @DF-RHF iter   2:  -115.06368726724591   -1.19575e-05   3.01328e-05 DIIS
   @DF-RHF iter   3:  -115.06368937974723   -2.11250e-06   1.41026e-05 DIIS
   @DF-RHF iter   4:  -115.06368976126592   -3.81519e-07   3.72762e-06 DIIS
   @DF-RHF iter   5:  -115.06368980054610   -3.92802e-08   1.15973e-06 DIIS
   @DF-RHF iter   6:  -115.06368980531759   -4.77149e-09   3.22260e-07 DIIS
   @DF-RHF iter   7:  -115.06368980559746   -2.79869e-10   8.06721e-08 DIIS
   @DF-RHF iter   8:  -115.06368980562115   -2.36895e-11   1.54849e-08 DIIS
[...]
			--------------------------
			 OPTKING Finished Execution 
			--------------------------

    Structure for next step:
    Molecular point group: c1
    Full point group: C1

    Geometry (in Angstrom), charge = 0, multiplicity = 1:

    O            0.680683673128     0.013369118417    -0.038434297757
    C           -0.715151663433     0.038903312038     0.036886178626
    H           -1.019671681370     1.074283188901    -0.010458720577
    H           -1.079892799888    -0.384052726569     0.969745993532
    H           -1.176778538026    -0.493000683873    -0.791440059316
    H            0.988587506479    -0.872622461016     0.002935573124

gradient() will perform analytic gradient computation.

*** tstart() called on node37.bme.utexas.edu
*** at Sun Dec 29 12:31:44 2019

   => Loading Basis Set <=

    Name: 6-311G*
    Role: ORBITAL
    Keyword: BASIS
    atoms 1   entry O          line   152 file /home/bdw2292/miniconda3/envs/p4env/share/psi4/basis/6-311gs.gbs 
    atoms 2   entry C          line   114 file /home/bdw2292/miniconda3/envs/p4env/share/psi4/basis/6-311gs.gbs 
    atoms 3-6 entry H          line    37 file /home/bdw2292/miniconda3/envs/p4env/share/psi4/basis/6-311gs.gbs 


         ---------------------------------------------------------
                                   SCF
               by Justin Turney, Rob Parrish, Andy Simmonett
                          and Daniel G. A. Smith
                              RHF Reference
                        1 Threads,    667 MiB Core
         ---------------------------------------------------------

  ==> Geometry <==

    Molecular point group: c1
    Full point group: C1

    Geometry (in Angstrom), charge = 0, multiplicity = 1:

       Center              X                  Y                   Z               Mass       
    ------------   -----------------  -----------------  -----------------  -----------------
         O            0.680683673128     0.013369118417    -0.038434297757    15.994914619570
         C           -0.715151663433     0.038903312038     0.036886178626    12.000000000000
         H           -1.019671681370     1.074283188901    -0.010458720577     1.007825032230
         H           -1.079892799888    -0.384052726569     0.969745993532     1.007825032230
         H           -1.176778538026    -0.493000683873    -0.791440059316     1.007825032230
         H            0.988587506479    -0.872622461016     0.002935573124     1.007825032230

  Running in c1 symmetry.

  Rotational constants: A =      4.39262  B =      0.84915  C =      0.82062 [cm^-1]
  Rotational constants: A = 131687.48667  B =  25456.96043  C =  24601.58618 [MHz]
  Nuclear repulsion =   40.850681436629614

  Charge       = 0
  Multiplicity = 1
  Electrons    = 18
  Nalpha       = 9
  Nbeta        = 9

  ==> Algorithm <==

  SCF Algorithm Type is DF.
  DIIS enabled.
  MOM disabled.
  Fractional occupation disabled.
  Guess Type is READ.
  Energy threshold   = 1.00e-08
  Density threshold  = 1.00e-08
  Integral threshold = 0.00e+00

  ==> Primary Basis <==

  Basis Set: 6-311G*
    Blend: 6-311G*
    Number of shells: 28
    Number of basis function: 48
    Number of Cartesian functions: 50
    Spherical Harmonics?: true
    Max angular momentum: 2

   => Loading Basis Set <=

    Name: (6-311G* AUX)
    Role: JKFIT
    Keyword: DF_BASIS_SCF
    atoms 1   entry O          line   229 file /home/bdw2292/miniconda3/envs/p4env/share/psi4/basis/cc-pvtz-jkfit.gbs 
    atoms 2   entry C          line   125 file /home/bdw2292/miniconda3/envs/p4env/share/psi4/basis/cc-pvtz-jkfit.gbs 
    atoms 3-6 entry H          line    51 file /home/bdw2292/miniconda3/envs/p4env/share/psi4/basis/cc-pvtz-jkfit.gbs 

   => Loading Basis Set <=

    Name: 6-311G*
    Role: ORBITAL
    Keyword: BASIS
    atoms 1   entry O          line   152 file /home/bdw2292/miniconda3/envs/p4env/share/psi4/basis/6-311gs.gbs 
    atoms 2   entry C          line   114 file /home/bdw2292/miniconda3/envs/p4env/share/psi4/basis/6-311gs.gbs 
    atoms 3-6 entry H          line    37 file /home/bdw2292/miniconda3/envs/p4env/share/psi4/basis/6-311gs.gbs 

  Reading orbitals from file 180, no projection.

  ==> Pre-Iterations <==

   -------------------------------------------------------
    Irrep   Nso     Nmo     Nalpha   Nbeta   Ndocc  Nsocc
   -------------------------------------------------------
     A         48      48       0       0       0       0
   -------------------------------------------------------
    Total      48      48       9       9       9       0
   -------------------------------------------------------

  ==> Integral Setup <==

  DFHelper Memory: AOs need 0.006 GiB; user supplied 0.489 GiB. Using in-core AOs.

  ==> MemDFJK: Density-Fitted J/K Matrices <==

    J tasked:                   Yes
    K tasked:                   Yes
    wK tasked:                   No
    OpenMP threads:               1
    Memory [MiB]:               500
    Algorithm:                 Core
    Schwarz Cutoff:           1E-12
    Mask sparsity (%):       0.0000
    Fitting Condition:        1E-10

   => Auxiliary Basis Set <=

  Basis Set: (6-311G* AUX)
    Blend: CC-PVTZ-JKFIT
    Number of shells: 90
    Number of basis function: 278
    Number of Cartesian functions: 332
    Spherical Harmonics?: true
    Max angular momentum: 4

  Minimum eigenvalue in the overlap matrix is 1.0679393338E-02.
  Using Symmetric Orthogonalization.

  SCF Guess: Orbitals guess was supplied from a previous computation.

  ==> Iterations <==

                           Total Energy        Delta E     RMS |[F,P]|

   @DF-RHF iter   0:  -115.06373448143580   -1.15064e+02   1.26471e-04 
   @DF-RHF iter   1:  -115.06371293007018    2.15514e-05   2.53371e-05 DIIS
   @DF-RHF iter   2:  -115.06371430345990   -1.37339e-06   9.77784e-06 DIIS
   @DF-RHF iter   3:  -115.06371460862111   -3.05161e-07   1.95114e-06 DIIS
   @DF-RHF iter   4:  -115.06371462155310   -1.29320e-08   8.60263e-07 DIIS
   @DF-RHF iter   5:  -115.06371462326933   -1.71623e-09   2.14379e-07 DIIS
   @DF-RHF iter   6:  -115.06371462342746   -1.58124e-10   4.55988e-08 DIIS
   @DF-RHF iter   7:  -115.06371462343436   -6.90648e-12   1.04194e-08 DIIS
   @DF-RHF iter   8:  -115.06371462343486   -4.97380e-13   3.19921e-09 DIIS
  Energy and wave function converged.


  ==> Post-Iterations <==

    Orbital Energies [Eh]
    ---------------------

    Doubly Occupied:                                                      

       1A    -20.541665     2A    -11.264809     3A     -1.364420  
       4A     -0.928369     5A     -0.696976     6A     -0.622273  
       7A     -0.597320     8A     -0.498118     9A     -0.444940  

    Virtual:                                                              

      10A      0.154640    11A      0.189139    12A      0.227341  
      13A      0.234007    14A      0.346213    15A      0.461405  
      16A      0.484039    17A      0.596243    18A      0.700317  
      19A      0.737303    20A      0.791101    21A      0.805897  
      22A      0.946320    23A      1.064745    24A      1.080028  
      25A      1.175344    26A      1.547042    27A      1.602325  
      28A      1.695666    29A      1.764281    30A      1.770908  
      31A      2.002395    32A      2.368216    33A      2.619158  
      34A      2.706103    35A      2.725002    36A      3.165148  
      37A      3.257820    38A      3.378752    39A      3.421343  
      40A      3.516529    41A      3.577421    42A      3.830139  
      43A      4.273871    44A      5.386386    45A      5.542678  
      46A      5.932645    47A     24.568070    48A     51.527610  

    Final Occupation by Irrep:
              A 
    DOCC [     9 ]

  @DF-RHF Final Energy:  -115.06371462343486

   => Energetics <=

    Nuclear Repulsion Energy =             40.8506814366296140
    One-Electron Energy =                -237.9110122607067979
    Two-Electron Energy =                  81.9966162006423360
    Total Energy =                       -115.0637146234348620

Computation Completed


Properties will be evaluated at   0.000000,   0.000000,   0.000000 [a0]

Properties computed using the SCF density matrix

  Nuclear Dipole Moment: [e a0]
     X:    -2.1414      Y:    -0.6331      Z:     0.1599

  Electronic Dipole Moment: [e a0]
     X:     1.7192      Y:     0.0085      Z:    -0.0953

  Dipole Moment: [e a0]
     X:    -0.4223      Y:    -0.6246      Z:     0.0646     Total:     0.7567

  Dipole Moment: [D]
     X:    -1.0733      Y:    -1.5875      Z:     0.1643     Total:     1.9233


*** tstop() called on node37.bme.utexas.edu at Sun Dec 29 12:31:45 2019
Module time:
	user time   =       0.48 seconds =       0.01 minutes
	system time =       0.01 seconds =       0.00 minutes
	total time  =          1 seconds =       0.02 minutes
Total time:
	user time   =       6.77 seconds =       0.11 minutes
	system time =       0.10 seconds =       0.00 minutes
	total time  =          8 seconds =       0.13 minutes

*** tstart() called on node37.bme.utexas.edu
*** at Sun Dec 29 12:31:45 2019


         ------------------------------------------------------------
                                   SCF GRAD                          
                          Rob Parrish, Justin Turney,                
                       Andy Simmonett, and Alex Sokolov              
         ------------------------------------------------------------

  ==> Geometry <==

    Molecular point group: c1
    Full point group: C1

    Geometry (in Angstrom), charge = 0, multiplicity = 1:

       Center              X                  Y                   Z               Mass       
    ------------   -----------------  -----------------  -----------------  -----------------
         O            0.680683673128     0.013369118417    -0.038434297757    15.994914619570
         C           -0.715151663433     0.038903312038     0.036886178626    12.000000000000
         H           -1.019671681370     1.074283188901    -0.010458720577     1.007825032230
         H           -1.079892799888    -0.384052726569     0.969745993532     1.007825032230
         H           -1.176778538026    -0.493000683873    -0.791440059316     1.007825032230
         H            0.988587506479    -0.872622461016     0.002935573124     1.007825032230

  Nuclear repulsion =   40.850681436629614

  ==> Basis Set <==

  Basis Set: 6-311G*
    Blend: 6-311G*
    Number of shells: 28
    Number of basis function: 48
    Number of Cartesian functions: 50
    Spherical Harmonics?: true
    Max angular momentum: 2

  ==> DFJKGrad: Density-Fitted SCF Gradients <==

    Gradient:                    1
    J tasked:                  Yes
    K tasked:                  Yes
    wK tasked:                  No
    OpenMP threads:              1
    Integrals threads:           1
    Memory [MiB]:              500
    Schwarz Cutoff:          0E+00
    Fitting Condition:       1E-10

   => Auxiliary Basis Set <=

  Basis Set: (6-311G* AUX)
    Blend: CC-PVTZ-JKFIT
    Number of shells: 90
    Number of basis function: 278
    Number of Cartesian functions: 332
    Spherical Harmonics?: true
    Max angular momentum: 4


  -Total Gradient:
     Atom            X                  Y                   Z
    ------   -----------------  -----------------  -----------------
       1        0.000105814875    -0.000025446369    -0.000041092122
       2       -0.000070196430     0.000028133252     0.000024225299
       3       -0.000026290511    -0.000013149032    -0.000000381396
       4       -0.000007473428    -0.000010183938    -0.000015933564
       5        0.000000962225     0.000014816076     0.000009005957
       6       -0.000002816730     0.000005830010     0.000024175826


*** tstop() called on node37.bme.utexas.edu at Sun Dec 29 12:31:45 2019
Module time:
	user time   =       0.48 seconds =       0.01 minutes
	system time =       0.00 seconds =       0.00 minutes
	total time  =          0 seconds =       0.00 minutes
Total time:
	user time   =       7.25 seconds =       0.12 minutes
	system time =       0.10 seconds =       0.00 minutes
	total time  =          8 seconds =       0.13 minutes

			-----------------------------------------
			 OPTKING 2.0: for geometry optimizations 
			  - R.A. King,  Bethel University        
			-----------------------------------------

	Previous internal coordinate definitions found.
	---Fragment 1 Geometry and Gradient---
	 O           1.2863057203        0.0252639723       -0.0726302966
	 C          -1.3514407821        0.0735166051        0.0697047754
	 H          -1.9269002157        2.0301010082       -0.0197641175
	 H          -2.0407016366       -0.7257544710        1.8325543390
	 H          -2.2237891472       -0.9316362722       -1.4956049568
	 H           1.8681596383       -1.6490174622        0.0055474292
	             0.0001058149       -0.0000254464       -0.0000410921
	            -0.0000701964        0.0000281333        0.0000242253
	            -0.0000262905       -0.0000131490       -0.0000003814
	            -0.0000074734       -0.0000101839       -0.0000159336
	             0.0000009622        0.0000148161        0.0000090060
	            -0.0000028167        0.0000058300        0.0000241758

	---Fragment 1 Intrafragment Coordinates---
	 - Coordinate -           - BOHR/RAD -       - ANG/DEG -
	 R(1,2)           =         2.642025	       1.398099
	 R(1,6)           =         1.774228	       0.938881
	 R(2,3)           =         2.041416	       1.080271
	 R(2,4)           =         2.054642	       1.087270
	 R(2,5)           =         2.054633	       1.087265
	 B(1,2,3)         =         1.871905	     107.252259
	 B(1,2,4)         =         1.954158	     111.964987
	 B(1,2,5)         =         1.954018	     111.957006
	 B(2,1,6)         =         1.920136	     110.015694
	 B(3,2,4)         =         1.892180	     108.413936
	 B(3,2,5)         =         1.892106	     108.409680
	 B(4,2,5)         =         1.897488	     108.718071
	 D(3,2,1,6)       =         3.137680	     179.775841
	 D(4,2,1,6)       =         1.064062	      60.966282
	 D(5,2,1,6)       =        -1.072058	     -61.424401

	Current energy   :      -115.0637146234

	Energy change for the previous step:
		Projected    :         0.0000012108
		Actual       :        -0.0000005299

	Performing BFGS update.
	Previous computed or guess Hessian on step 1.
	Steps to be used in Hessian update: 6 5
	Taking RFO optimization step.
	Going to follow RFO solution 1.
	Using RFO vector 1.
	Norm of target step-size    0.00739
	Projected energy change by RFO approximation:         0.0000001822

	Back-transformation to cartesian coordinates...
	Successfully converged to displaced geometry.

	--- Internal Coordinate Step in ANG or DEG, aJ/ANG or AJ/DEG ---
	 ---------------------------------------------------------------------------
	   Coordinate                Previous        Force       Change         New 
	   ----------                --------       ------       ------       ------
	    1 R(1,2)          =      1.398099    -0.000858    -0.000124     1.397975
	    2 R(1,6)          =      0.938881     0.000044     0.000004     0.938885
	    3 R(2,3)          =      1.080271     0.000043     0.000013     1.080284
	    4 R(2,4)          =      1.087270     0.000059     0.000016     1.087286
	    5 R(2,5)          =      1.087265     0.000120     0.000021     1.087286
	    6 B(1,2,3)        =    107.252259    -0.000003    -0.006932   107.245327
	    7 B(1,2,4)        =    111.964987    -0.000001    -0.003702   111.961285
	    8 B(1,2,5)        =    111.957006     0.000001     0.005166   111.962171
	    9 B(2,1,6)        =    110.015694     0.000000     0.007363   110.023058
	   10 B(3,2,4)        =    108.413936     0.000001    -0.001434   108.412502
	   11 B(3,2,5)        =    108.409680     0.000002     0.003329   108.413009
	   12 B(4,2,5)        =    108.718071     0.000001     0.003461   108.721532
	   13 D(3,2,1,6)      =    179.775841     0.000000     0.240585   180.016426
	   14 D(4,2,1,6)      =     60.966282     0.000000     0.248844    61.215126
	   15 D(5,2,1,6)      =    -61.424401     0.000000     0.243257   -61.181144
	 ---------------------------------------------------------------------------
	Successfully symmetrized geometry.

  ==> Convergence Check <==

  Measures of convergence in internal coordinates in au.
  Criteria marked as inactive (o), active & met (*), and active & unmet ( ).
  ---------------------------------------------------------------------------------------------
   Step     Total Energy     Delta E     MAX Force     RMS Force      MAX Disp      RMS Disp   
  ---------------------------------------------------------------------------------------------
    Convergence Criteria    1.00e-06 *    3.00e-04 *             o    1.20e-03 *             o
  ---------------------------------------------------------------------------------------------
      7    -115.06371462   -5.30e-07 *    1.04e-04 *    3.13e-05 o    4.34e-03      1.91e-03 o  ~
  ---------------------------------------------------------------------------------------------


  **** Optimization is complete! (in 7 steps) ****

  ==> Optimization Summary <==

  Measures of convergence in internal coordinates in au.
  --------------------------------------------------------------------------------------------------------------- ~
   Step         Total Energy             Delta E       MAX Force       RMS Force        MAX Disp        RMS Disp  ~
  --------------------------------------------------------------------------------------------------------------- ~
      1    -115.059429544503   -115.059429544503      0.03785282      0.01260430      0.15108087      0.07090659  ~
      2    -115.063167575612     -0.003738031108      0.00958051      0.00335334      0.29279265      0.12874022  ~
      3    -115.063600508829     -0.000432933217      0.00516970      0.00155132      0.07165457      0.03210827  ~
      4    -115.063691002165     -0.000090493336      0.00239424      0.00093130      0.01467846      0.00806511  ~
      5    -115.063689805622      0.000001196543      0.00299252      0.00107036      0.01756192      0.00807825  ~
      6    -115.063714093570     -0.000024287948      0.00028349      0.00011516      0.01127676      0.00488256  ~
      7    -115.063714623435     -0.000000529865      0.00010410      0.00003133      0.00434315      0.00190839  ~
  --------------------------------------------------------------------------------------------------------------- ~

	Writing optimization data to binary file.
	Final energy is   -115.0637146234349
	Final (previous) structure:
	Cartesian Geometry (in Angstrom)
	    O     0.6806836705   0.0133691184  -0.0384342976
	    C    -0.7151516606   0.0389033119   0.0368861785
	    H    -1.0196716774   1.0742831847  -0.0104587205
	    H    -1.0798927956  -0.3840527251   0.9697459897
	    H    -1.1767785334  -0.4930006819  -0.7914400562
	    H     0.9885875026  -0.8726224576   0.0029355731
	Saving final (previous) structure.
			--------------------------
			 OPTKING Finished Execution 
			--------------------------

    Final optimized geometry and variables:
    Molecular point group: c1
    Full point group: C1

    Geometry (in Angstrom), charge = 0, multiplicity = 1:

    O            0.680683673128     0.013369118417    -0.038434297757
    C           -0.715151663433     0.038903312038     0.036886178626
    H           -1.019671681370     1.074283188901    -0.010458720577
    H           -1.079892799888    -0.384052726569     0.969745993532
    H           -1.176778538026    -0.493000683873    -0.791440059316
    H            0.988587506479    -0.872622461016     0.002935573124

	Removing binary optimization data file.
	Cleaning optimization helper files.

    Psi4 stopped on: Sunday, 29 December 2019 12:31PM
    Psi4 wall time for execution: 0:00:08.59

*** Psi4 exiting successfully. Buy a developer a beer!
