
    -----------------------------------------------------------------------
          Psi4: An Open-Source Ab Initio Electronic Structure Package
                               Psi4 1.3.2 release

                         Git: Rev {HEAD} ecbda83 


    R. M. Parrish, L. A. Burns, D. G. A. Smith, A. C. Simmonett,
    A. E. DePrince III, E. G. Hohenstein, U. Bozkaya, A. Yu. Sokolov,
    R. Di Remigio, R. M. Richard, J. F. Gonthier, A. M. James,
    H. R. McAlexander, A. Kumar, M. Saitow, X. Wang, B. P. Pritchard,
    P. Verma, H. F. Schaefer III, K. Patkowski, R. A. King, E. F. Valeev,
    F. A. Evangelista, J. M. Turney, T. D. Crawford, and C. D. Sherrill,
    J. Chem. Theory Comput. 13(7) pp 3185--3197 (2017).
    (doi: 10.1021/acs.jctc.7b00174)


                         Additional Contributions by
    P. Kraus, H. Kruse, M. H. Lechner, M. C. Schieber, R. A. Shaw,
    A. Alenaizan, R. Galvelis, Z. L. Glick, S. Lehtola, and J. P. Misiewicz

    -----------------------------------------------------------------------


    Psi4 started on: Sunday, 29 December 2019 12:31PM

    Process ID: 43274
    Host:       node37.bme.utexas.edu
    PSIDATADIR: /home/bdw2292/miniconda3/envs/p4env/share/psi4
    Memory:     500.0 MiB
    Threads:    1
    
  ==> Input File <==

--------------------------------------------------------------------------
molecule { 
0 1
 O    0.689412    0.036609    0.013705
 C   -0.746016    0.019689    0.004696
 H   -1.107289    0.949503    0.452610
 H   -1.089503   -0.858434    0.558170
 H   -1.075257   -0.045175   -1.036464
 H    0.965642   -0.849888   -0.284780
}
set optking { 
  frozen_dihedral = ("
  ")
}
memory 700MB
set_num_threads(1)
psi4_io.set_default_path("/scratch/bdw2292")
optimize('hf/6-311G*')
clean()
--------------------------------------------------------------------------

  Memory set to 667.572 MiB by Python driver.
  Threads set to 1 by Python driver.
gradient() will perform analytic gradient computation.

*** tstart() called on node37.bme.utexas.edu
*** at Sun Dec 29 12:31:27 2019

   => Loading Basis Set <=

    Name: 6-311G*
    Role: ORBITAL
    Keyword: BASIS
    atoms 1   entry O          line   152 file /home/bdw2292/miniconda3/envs/p4env/share/psi4/basis/6-311gs.gbs 
    atoms 2   entry C          line   114 file /home/bdw2292/miniconda3/envs/p4env/share/psi4/basis/6-311gs.gbs 
    atoms 3-6 entry H          line    37 file /home/bdw2292/miniconda3/envs/p4env/share/psi4/basis/6-311gs.gbs 


         ---------------------------------------------------------
                                   SCF
               by Justin Turney, Rob Parrish, Andy Simmonett
                          and Daniel G. A. Smith
                              RHF Reference
                        1 Threads,    667 MiB Core
         ---------------------------------------------------------

  ==> Geometry <==

    Molecular point group: c1
    Full point group: C1

    Geometry (in Angstrom), charge = 0, multiplicity = 1:

       Center              X                  Y                   Z               Mass       
    ------------   -----------------  -----------------  -----------------  -----------------
         O            0.697204386124     0.036248653002     0.014870641530    15.994914619570
         C           -0.738223613876     0.019328653002     0.005861641530    12.000000000000
         H           -1.099496613876     0.949142653002     0.453775641530     1.007825032230
         H           -1.081710613876    -0.858794346998     0.559335641530     1.007825032230
         H           -1.067464613876    -0.045535346998    -1.035298358470     1.007825032230
         H            0.973434386124    -0.850248346998    -0.283614358470     1.007825032230

  Running in c1 symmetry.

  Rotational constants: A =      4.14539  B =      0.82418  C =      0.79137 [cm^-1]
  Rotational constants: A = 124275.79081  B =  24708.18169  C =  23724.65783 [MHz]
  Nuclear repulsion =   40.078626170472219

  Charge       = 0
  Multiplicity = 1
  Electrons    = 18
  Nalpha       = 9
  Nbeta        = 9

  ==> Algorithm <==

  SCF Algorithm Type is DF.
  DIIS enabled.
  MOM disabled.
  Fractional occupation disabled.
  Guess Type is SAD.
  Energy threshold   = 1.00e-08
  Density threshold  = 1.00e-08
  Integral threshold = 0.00e+00

  ==> Primary Basis <==

  Basis Set: 6-311G*
    Blend: 6-311G*
    Number of shells: 28
    Number of basis function: 48
    Number of Cartesian functions: 50
    Spherical Harmonics?: true
    Max angular momentum: 2

   => Loading Basis Set <=

    Name: (6-311G* AUX)
    Role: JKFIT
    Keyword: DF_BASIS_SCF
    atoms 1   entry O          line   229 file /home/bdw2292/miniconda3/envs/p4env/share/psi4/basis/cc-pvtz-jkfit.gbs 
    atoms 2   entry C          line   125 file /home/bdw2292/miniconda3/envs/p4env/share/psi4/basis/cc-pvtz-jkfit.gbs 
    atoms 3-6 entry H          line    51 file /home/bdw2292/miniconda3/envs/p4env/share/psi4/basis/cc-pvtz-jkfit.gbs 

  ==> Pre-Iterations <==

   -------------------------------------------------------
    Irrep   Nso     Nmo     Nalpha   Nbeta   Ndocc  Nsocc
   -------------------------------------------------------
     A         48      48       0       0       0       0
   -------------------------------------------------------
    Total      48      48       9       9       9       0
   -------------------------------------------------------

  ==> Integral Setup <==

  DFHelper Memory: AOs need 0.006 GiB; user supplied 0.489 GiB. Using in-core AOs.

  ==> MemDFJK: Density-Fitted J/K Matrices <==

    J tasked:                   Yes
    K tasked:                   Yes
    wK tasked:                   No
    OpenMP threads:               1
    Memory [MiB]:               500
    Algorithm:                 Core
    Schwarz Cutoff:           1E-12
    Mask sparsity (%):       0.0000
    Fitting Condition:        1E-10

   => Auxiliary Basis Set <=

  Basis Set: (6-311G* AUX)
    Blend: CC-PVTZ-JKFIT
    Number of shells: 90
    Number of basis function: 278
    Number of Cartesian functions: 332
    Spherical Harmonics?: true
    Max angular momentum: 4

  Minimum eigenvalue in the overlap matrix is 1.1450818301E-02.
  Using Symmetric Orthogonalization.

  SCF Guess: Superposition of Atomic Densities via on-the-fly atomic UHF.

  ==> Iterations <==

                           Total Energy        Delta E     RMS |[F,P]|

   @DF-RHF iter SAD:  -114.38163040362794   -1.14382e+02   0.00000e+00 
   @DF-RHF iter   1:  -114.98536830532584   -6.03738e-01   8.09566e-03 DIIS
   @DF-RHF iter   2:  -115.04359400328808   -5.82257e-02   4.49236e-03 DIIS
   @DF-RHF iter   3:  -115.05892890044483   -1.53349e-02   7.16165e-04 DIIS
   @DF-RHF iter   4:  -115.05977877544215   -8.49875e-04   1.96911e-04 DIIS
   @DF-RHF iter   5:  -115.05984135700638   -6.25816e-05   4.86498e-05 DIIS
   @DF-RHF iter   6:  -115.05984528667649   -3.92967e-06   1.05996e-05 DIIS
   @DF-RHF iter   7:  -115.05984561451528   -3.27839e-07   2.38696e-06 DIIS
   @DF-RHF iter   8:  -115.05984563287946   -1.83642e-08   4.39438e-07 DIIS
   @DF-RHF iter   9:  -115.05984563349739   -6.17931e-10   8.29828e-08 DIIS
   @DF-RHF iter  10:  -115.05984563351893   -2.15437e-11   2.29065e-08 DIIS
   @DF-RHF iter  11:  -115.05984563352072   -1.79057e-12   4.20546e-09 DIIS
  Energy and wave function converged.


  ==> Post-Iterations <==

    Orbital Energies [Eh]
    ---------------------

    Doubly Occupied:                                                      

       1A    -20.543995     2A    -11.271789     3A     -1.344673  
       4A     -0.920182     5A     -0.679488     6A     -0.618653  
       7A     -0.587281     8A     -0.501562     9A     -0.445000  

    Virtual:                                                              

      10A      0.150419    11A      0.187350    12A      0.224109  
      13A      0.231929    14A      0.333369    15A      0.463332  
      16A      0.473698    17A      0.574794    18A      0.676059  
      19A      0.726933    20A      0.788108    21A      0.797772  
      22A      0.947663    23A      1.071289    24A      1.075330  
      25A      1.179952    26A      1.550430    27A      1.586025  
      28A      1.694620    29A      1.768826    30A      1.771682  
      31A      1.965777    32A      2.380097    33A      2.632520  
      34A      2.695897    35A      2.708616    36A      3.168873  
      37A      3.185778    38A      3.356773    39A      3.359970  
      40A      3.530269    41A      3.581267    42A      3.731306  
      43A      4.256391    44A      5.377324    45A      5.520372  
      46A      5.862028    47A     24.535408    48A     51.519390  

    Final Occupation by Irrep:
              A 
    DOCC [     9 ]

  @DF-RHF Final Energy:  -115.05984563352072

   => Energetics <=

    Nuclear Repulsion Energy =             40.0786261704722193
    One-Electron Energy =                -236.4516998930615728
    Two-Electron Energy =                  81.3132280890686445
    Total Energy =                       -115.0598456335207231

Computation Completed


Properties will be evaluated at   0.000000,   0.000000,   0.000000 [a0]

Properties computed using the SCF density matrix

  Nuclear Dipole Moment: [e a0]
     X:    -2.1296      Y:    -0.7549      Z:    -0.2866

  Electronic Dipole Moment: [e a0]
     X:     1.6318      Y:     0.1367      Z:     0.0814

  Dipole Moment: [e a0]
     X:    -0.4978      Y:    -0.6182      Z:    -0.2052     Total:     0.8198

  Dipole Moment: [D]
     X:    -1.2652      Y:    -1.5714      Z:    -0.5217     Total:     2.0838


*** tstop() called on node37.bme.utexas.edu at Sun Dec 29 12:31:28 2019
Module time:
	user time   =       0.94 seconds =       0.02 minutes
	system time =       0.02 seconds =       0.00 minutes
	total time  =          1 seconds =       0.02 minutes
Total time:
	user time   =       0.94 seconds =       0.02 minutes
	system time =       0.02 seconds =       0.00 minutes
	total time  =          1 seconds =       0.02 minutes

*** tstart() called on node37.bme.utexas.edu
*** at Sun Dec 29 12:31:28 2019


         ------------------------------------------------------------
                                   SCF GRAD                          
                          Rob Parrish, Justin Turney,                
                       Andy Simmonett, and Alex Sokolov              
         ------------------------------------------------------------

  ==> Geometry <==

    Molecular point group: c1
    Full point group: C1

    Geometry (in Angstrom), charge = 0, multiplicity = 1:

       Center              X                  Y                   Z               Mass       
    ------------   -----------------  -----------------  -----------------  -----------------
         O            0.697204386124     0.036248653002     0.014870641530    15.994914619570
         C           -0.738223613876     0.019328653002     0.005861641530    12.000000000000
         H           -1.099496613876     0.949142653002     0.453775641530     1.007825032230
         H           -1.081710613876    -0.858794346998     0.559335641530     1.007825032230
         H           -1.067464613876    -0.045535346998    -1.035298358470     1.007825032230
         H            0.973434386124    -0.850248346998    -0.283614358470     1.007825032230

  Nuclear repulsion =   40.078626170472219

  ==> Basis Set <==

  Basis Set: 6-311G*
    Blend: 6-311G*
    Number of shells: 28
    Number of basis function: 48
    Number of Cartesian functions: 50
    Spherical Harmonics?: true
    Max angular momentum: 2

  ==> DFJKGrad: Density-Fitted SCF Gradients <==

    Gradient:                    1
    J tasked:                  Yes
    K tasked:                  Yes
    wK tasked:                  No
    OpenMP threads:              1
    Integrals threads:           1
    Memory [MiB]:              500
    Schwarz Cutoff:          0E+00
    Fitting Condition:       1E-10

   => Auxiliary Basis Set <=

  Basis Set: (6-311G* AUX)
    Blend: CC-PVTZ-JKFIT
    Number of shells: 90
    Number of basis function: 278
    Number of Cartesian functions: 332
    Spherical Harmonics?: true
    Max angular momentum: 4


  -Total Gradient:
     Atom            X                  Y                   Z
    ------   -----------------  -----------------  -----------------
       1        0.012302125514     0.033700080316     0.008436884488
       2       -0.023940541790     0.002059895172     0.006560499976
       3       -0.004007593004     0.010118459639     0.002593733162
       4        0.005065132471    -0.008884331256     0.001366229140
       5        0.005311226797    -0.001302489351    -0.007745702794
       6        0.005269650011    -0.035691614520    -0.011211643972


*** tstop() called on node37.bme.utexas.edu at Sun Dec 29 12:31:28 2019
Module time:
	user time   =       0.46 seconds =       0.01 minutes
	system time =       0.01 seconds =       0.00 minutes
	total time  =          0 seconds =       0.00 minutes
Total time:
	user time   =       1.40 seconds =       0.02 minutes
	system time =       0.03 seconds =       0.00 minutes
	total time  =          1 seconds =       0.02 minutes

			-----------------------------------------
			 OPTKING 2.0: for geometry optimizations 
			  - R.A. King,  Bethel University        
			-----------------------------------------

	Internal coordinates to be generated automatically.
	Detected frag 1 with atoms:  1 2 3 4 5 6
	---Fragment 1 Bond Connectivity---
	 1 : 2 6
	 2 : 1 3 4 5
	 3 : 2
	 4 : 2
	 5 : 2
	 6 : 1

	Assuming in current code that numbering for constraints corresponds to unified fragment.
	---Fragment 1 Geometry and Gradient---
	 O           1.3175253432        0.0685000266        0.0281014398
	 C          -1.3950404496        0.0365258605        0.0110768971
	 H          -2.0777474761        1.7936196682        0.8575116849
	 H          -2.0441368072       -1.6228861139        1.0569911747
	 H          -2.0172157688       -0.0860493349       -1.9564303556
	 H           1.8395243909       -1.6067365144       -0.5359534628
	             0.0123021255        0.0337000803        0.0084368845
	            -0.0239405418        0.0020598952        0.0065605000
	            -0.0040075930        0.0101184596        0.0025937332
	             0.0050651325       -0.0088843313        0.0013662291
	             0.0053112268       -0.0013024894       -0.0077457028
	             0.0052696500       -0.0356916145       -0.0112116440

	Previous optimization step data not found.  Starting new optimization.

	---Fragment 1 Intrafragment Coordinates---
	 - Coordinate -           - BOHR/RAD -       - ANG/DEG -
	 R(1,2)           =         2.712808	       1.435556
	 R(1,6)           =         1.843111	       0.975332
	 R(2,3)           =         2.066378	       1.093480
	 R(2,4)           =         2.066134	       1.093351
	 R(2,5)           =         2.067175	       1.093902
	 B(1,2,3)         =         1.894169	     108.527867
	 B(1,2,4)         =         1.896970	     108.688398
	 B(1,2,5)         =         1.883491	     107.916080
	 B(2,1,6)         =         1.844769	     105.697451
	 B(3,2,4)         =         1.951727	     111.825704
	 B(3,2,5)         =         1.918621	     109.928901
	 B(4,2,5)         =         1.917322	     109.854463
	 D(3,2,1,6)       =         3.017896	     172.912702
	 D(4,2,1,6)       =         0.891687	      51.089913
	 D(5,2,1,6)       =        -1.186807	     -67.999010

	Current energy   :      -115.0598456335

	Generating empirical Hessian (Schlegel '84) for each fragment.
	Taking RFO optimization step.
	Going to follow RFO solution 1.
	Using RFO vector 1.
	Norm of target step-size    0.20295
	Projected energy change by RFO approximation:        -0.0100551400

	Back-transformation to cartesian coordinates...
	Could not converge backtransformation.
	Using first guess instead.

	--- Internal Coordinate Step in ANG or DEG, aJ/ANG or AJ/DEG ---
	 ---------------------------------------------------------------------------
	   Coordinate                Previous        Force       Change         New 
	   ----------                --------       ------       ------       ------
	    1 R(1,2)          =      1.435556    -0.144419    -0.022246     1.413310
	    2 R(1,6)          =      0.975332    -0.307834    -0.033533     0.941800
	    3 R(2,3)          =      1.093480    -0.090548    -0.016045     1.077436
	    4 R(2,4)          =      1.093351    -0.051375    -0.005928     1.087424
	    5 R(2,5)          =      1.093902    -0.048204    -0.007138     1.086763
	    6 B(1,2,3)        =    108.527867    -0.000454    -2.530346   105.997522
	    7 B(1,2,4)        =    108.688398     0.000746     3.346509   112.034907
	    8 B(1,2,5)        =    107.916080     0.000888     4.425896   112.341976
	    9 B(2,1,6)        =    105.697451     0.000777     3.548029   109.245480
	   10 B(3,2,4)        =    111.825704    -0.000531    -3.144194   108.681510
	   11 B(3,2,5)        =    109.928901    -0.000271    -1.292251   108.636650
	   12 B(4,2,5)        =    109.854463    -0.000314    -0.851409   109.003055
	   13 D(3,2,1,6)      =    172.912702    -0.000022     2.916647   175.829349
	   14 D(4,2,1,6)      =     51.089913     0.000086     6.347164    57.437077
	   15 D(5,2,1,6)      =    -67.999010    -0.000039     2.334305   -65.664704
	 ---------------------------------------------------------------------------
	Successfully symmetrized geometry.

  ==> Convergence Check <==

  Measures of convergence in internal coordinates in au.
  Criteria marked as inactive (o), active & met (*), and active & unmet ( ).
  --------------------------------------------------------------------------------------------- ~
   Step     Total Energy     Delta E     MAX Force     RMS Force      MAX Disp      RMS Disp    ~
  --------------------------------------------------------------------------------------------- ~
    Convergence Criteria    1.00e-06 *    3.00e-04 *             o    1.20e-03 *             o  ~
  --------------------------------------------------------------------------------------------- ~
      1    -115.05984563   -1.15e+02      3.74e-02      1.26e-02 o    1.11e-01      5.32e-02 o  ~
  ---------------------------------------------------------------------------------------------

	Writing optimization data to binary file.
	Structure for next step:
	Cartesian Geometry (in Angstrom)
	    O     0.6867355218   0.0171959361   0.0349665699
	    C    -0.7257558355  -0.0039484830  -0.0082356146
	    H    -1.0504330650   0.9200331534   0.4408861700
	    H    -1.1390015135  -0.8325076483   0.5620343424
	    H    -1.1073455722  -0.0488760422  -1.0248110479
	    H     1.0195437904  -0.8017549949  -0.2899095695
			--------------------------
			 OPTKING Finished Execution 
			--------------------------

    Structure for next step:
    Molecular point group: c1
    Full point group: C1

    Geometry (in Angstrom), charge = 0, multiplicity = 1:

    O            0.687355322887     0.034101184880     0.030400936045
    C           -0.725136039918     0.012956765712    -0.012801248619
    H           -1.049813270740     0.936938405706     0.436320537735
    H           -1.138381719568    -0.815602402880     0.557468710658
    H           -1.106725778155    -0.031970793656    -1.029376685879
    H            1.020163592815    -0.784849749352    -0.294475204673

gradient() will perform analytic gradient computation.

*** tstart() called on node37.bme.utexas.edu
*** at Sun Dec 29 12:31:28 2019

   => Loading Basis Set <=

    Name: 6-311G*
    Role: ORBITAL
    Keyword: BASIS
    atoms 1   entry O          line   152 file /home/bdw2292/miniconda3/envs/p4env/share/psi4/basis/6-311gs.gbs 
    atoms 2   entry C          line   114 file /home/bdw2292/miniconda3/envs/p4env/share/psi4/basis/6-311gs.gbs 
    atoms 3-6 entry H          line    37 file /home/bdw2292/miniconda3/envs/p4env/share/psi4/basis/6-311gs.gbs 


         ---------------------------------------------------------
                                   SCF
               by Justin Turney, Rob Parrish, Andy Simmonett
                          and Daniel G. A. Smith
                              RHF Reference
                        1 Threads,    667 MiB Core
         ---------------------------------------------------------

  ==> Geometry <==

    Molecular point group: c1
    Full point group: C1

    Geometry (in Angstrom), charge = 0, multiplicity = 1:

       Center              X                  Y                   Z               Mass       
    ------------   -----------------  -----------------  -----------------  -----------------
         O            0.687355322887     0.034101184880     0.030400936045    15.994914619570
         C           -0.725136039918     0.012956765712    -0.012801248619    12.000000000000
         H           -1.049813270740     0.936938405706     0.436320537735     1.007825032230
         H           -1.138381719568    -0.815602402880     0.557468710658     1.007825032230
         H           -1.106725778155    -0.031970793656    -1.029376685879     1.007825032230
         H            1.020163592815    -0.784849749352    -0.294475204673     1.007825032230

  Running in c1 symmetry.

  Rotational constants: A =      4.37485  B =      0.83591  C =      0.80801 [cm^-1]
  Rotational constants: A = 131154.78774  B =  25060.04667  C =  24223.53861 [MHz]
  Nuclear repulsion =   40.615869335547380

  Charge       = 0
  Multiplicity = 1
  Electrons    = 18
  Nalpha       = 9
  Nbeta        = 9

  ==> Algorithm <==

  SCF Algorithm Type is DF.
  DIIS enabled.
  MOM disabled.
  Fractional occupation disabled.
  Guess Type is READ.
  Energy threshold   = 1.00e-08
  Density threshold  = 1.00e-08
  Integral threshold = 0.00e+00

  ==> Primary Basis <==

  Basis Set: 6-311G*
    Blend: 6-311G*
    Number of shells: 28
    Number of basis function: 48
    Number of Cartesian functions: 50
    Spherical Harmonics?: true
    Max angular momentum: 2

   => Loading Basis Set <=

    Name: (6-311G* AUX)
    Role: JKFIT
    Keyword: DF_BASIS_SCF
    atoms 1   entry O          line   229 file /home/bdw2292/miniconda3/envs/p4env/share/psi4/basis/cc-pvtz-jkfit.gbs 
    atoms 2   entry C          line   125 file /home/bdw2292/miniconda3/envs/p4env/share/psi4/basis/cc-pvtz-jkfit.gbs 
    atoms 3-6 entry H          line    51 file /home/bdw2292/miniconda3/envs/p4env/share/psi4/basis/cc-pvtz-jkfit.gbs 

   => Loading Basis Set <=

    Name: 6-311G*
    Role: ORBITAL
    Keyword: BASIS
    atoms 1   entry O          line   152 file /home/bdw2292/miniconda3/envs/p4env/share/psi4/basis/6-311gs.gbs 
    atoms 2   entry C          line   114 file /home/bdw2292/miniconda3/envs/p4env/share/psi4/basis/6-311gs.gbs 
    atoms 3-6 entry H          line    37 file /home/bdw2292/miniconda3/envs/p4env/share/psi4/basis/6-311gs.gbs 

  Reading orbitals from file 180, no projection.

  ==> Pre-Iterations <==

   -------------------------------------------------------
    Irrep   Nso     Nmo     Nalpha   Nbeta   Ndocc  Nsocc
   -------------------------------------------------------
     A         48      48       0       0       0       0
   -------------------------------------------------------
    Total      48      48       9       9       9       0
   -------------------------------------------------------

  ==> Integral Setup <==

  DFHelper Memory: AOs need 0.006 GiB; user supplied 0.489 GiB. Using in-core AOs.

  ==> MemDFJK: Density-Fitted J/K Matrices <==

    J tasked:                   Yes
    K tasked:                   Yes
    wK tasked:                   No
    OpenMP threads:               1
    Memory [MiB]:               500
    Algorithm:                 Core
    Schwarz Cutoff:           1E-12
    Mask sparsity (%):       0.0000
    Fitting Condition:        1E-10

   => Auxiliary Basis Set <=

  Basis Set: (6-311G* AUX)
    Blend: CC-PVTZ-JKFIT
    Number of shells: 90
    Number of basis function: 278
    Number of Cartesian functions: 332
    Spherical Harmonics?: true
    Max angular momentum: 4

  Minimum eigenvalue in the overlap matrix is 1.0900159446E-02.
  Using Symmetric Orthogonalization.

  SCF Guess: Orbitals guess was supplied from a previous computation.

  ==> Iterations <==

                           Total Energy        Delta E     RMS |[F,P]|

   @DF-RHF iter   0:  -115.09675993212807   -1.15097e+02   2.13517e-03 
   @DF-RHF iter   1:  -115.06316678047857    3.35932e-02   3.86799e-04 DIIS
   @DF-RHF iter   2:  -115.06340675420589   -2.39974e-04   1.34221e-04 DIIS
   @DF-RHF iter   3:  -115.06344272759010   -3.59734e-05   5.51569e-05 DIIS
   @DF-RHF iter   4:  -115.06345002687593   -7.29929e-06   1.74279e-05 DIIS
   @DF-RHF iter   5:  -115.06345069385898   -6.66983e-07   5.13473e-06 DIIS
   @DF-RHF iter   6:  -115.06345076465743   -7.07984e-08   1.79013e-06 DIIS
   @DF-RHF iter   7:  -115.06345077315694   -8.49951e-09   4.54205e-07 DIIS
   @DF-RHF iter   8:  -115.06345077400138   -8.44437e-10   1.00470e-07 DIIS
   @DF-RHF iter   9:  -115.06345077403431   -3.29266e-11   1.59017e-08 DIIS
   @DF-RHF iter  10:  -115.06345077403496   -6.53699e-13   3.61107e-09 DIIS
  Energy and wave function converged.


  ==> Post-Iterations <==

    Orbital Energies [Eh]
    ---------------------

    Doubly Occupied:                                                      

       1A    -20.542281     2A    -11.265706     3A     -1.358691  
       4A     -0.928526     5A     -0.693498     6A     -0.620241  
       7A     -0.592416     8A     -0.500792     9A     -0.446804  

    Virtual:                                                              

      10A      0.154491    11A      0.189111    12A      0.226804  
      13A      0.233076    14A      0.343060    15A      0.459147  
      16A      0.484159    17A      0.595464    18A      0.691101  
      19A      0.736704    20A      0.791494    21A      0.805556  
      22A      0.947682    23A      1.064970    24A      1.081259  
      25A      1.174741    26A      1.544921    27A      1.603519  
      28A      1.694185    29A      1.763821    30A      1.772140  
      31A      1.988181    32A      2.368445    33A      2.621465  
      34A      2.704050    35A      2.727497    36A      3.166640  
      37A      3.232007    38A      3.364996    39A      3.418609  
      40A      3.523823    41A      3.565722    42A      3.819166  
      43A      4.270131    44A      5.385471    45A      5.539031  
      46A      5.910243    47A     24.556251    48A     51.523980  

    Final Occupation by Irrep:
              A 
    DOCC [     9 ]

  @DF-RHF Final Energy:  -115.06345077403496

   => Energetics <=

    Nuclear Repulsion Energy =             40.6158693355473801
    One-Electron Energy =                -237.4607270304719009
    Two-Electron Energy =                  81.7814069208895518
    Total Energy =                       -115.0634507740349619

Computation Completed


Properties will be evaluated at   0.000000,   0.000000,   0.000000 [a0]

Properties computed using the SCF density matrix

  Nuclear Dipole Moment: [e a0]
     X:    -2.1292      Y:    -0.6518      Z:    -0.3093

  Electronic Dipole Moment: [e a0]
     X:     1.7038      Y:     0.0557      Z:     0.0601

  Dipole Moment: [e a0]
     X:    -0.4254      Y:    -0.5962      Z:    -0.2492     Total:     0.7736

  Dipole Moment: [D]
     X:    -1.0812      Y:    -1.5153      Z:    -0.6334     Total:     1.9663


*** tstop() called on node37.bme.utexas.edu at Sun Dec 29 12:31:29 2019
Module time:
	user time   =       0.46 seconds =       0.01 minutes
	system time =       0.01 seconds =       0.00 minutes
	total time  =          1 seconds =       0.02 minutes
Total time:
	user time   =       1.88 seconds =       0.03 minutes
	system time =       0.04 seconds =       0.00 minutes
	total time  =          2 seconds =       0.03 minutes

*** tstart() called on node37.bme.utexas.edu
*** at Sun Dec 29 12:31:29 2019


         ------------------------------------------------------------
                                   SCF GRAD                          
                          Rob Parrish, Justin Turney,                
                       Andy Simmonett, and Alex Sokolov              
         ------------------------------------------------------------

  ==> Geometry <==

    Molecular point group: c1
    Full point group: C1

    Geometry (in Angstrom), charge = 0, multiplicity = 1:

       Center              X                  Y                   Z               Mass       
    ------------   -----------------  -----------------  -----------------  -----------------
         O            0.687355322887     0.034101184880     0.030400936045    15.994914619570
         C           -0.725136039918     0.012956765712    -0.012801248619    12.000000000000
         H           -1.049813270740     0.936938405706     0.436320537735     1.007825032230
         H           -1.138381719568    -0.815602402880     0.557468710658     1.007825032230
         H           -1.106725778155    -0.031970793656    -1.029376685879     1.007825032230
         H            1.020163592815    -0.784849749352    -0.294475204673     1.007825032230

  Nuclear repulsion =   40.615869335547380

  ==> Basis Set <==

  Basis Set: 6-311G*
    Blend: 6-311G*
    Number of shells: 28
    Number of basis function: 48
    Number of Cartesian functions: 50
    Spherical Harmonics?: true
    Max angular momentum: 2

  ==> DFJKGrad: Density-Fitted SCF Gradients <==

    Gradient:                    1
    J tasked:                  Yes
    K tasked:                  Yes
    wK tasked:                  No
    OpenMP threads:              1
    Integrals threads:           1
    Memory [MiB]:              500
    Schwarz Cutoff:          0E+00
    Fitting Condition:       1E-10

   => Auxiliary Basis Set <=

  Basis Set: (6-311G* AUX)
    Blend: CC-PVTZ-JKFIT
    Number of shells: 90
    Number of basis function: 278
    Number of Cartesian functions: 332
    Spherical Harmonics?: true
    Max angular momentum: 4


  -Total Gradient:
     Atom            X                  Y                   Z
    ------   -----------------  -----------------  -----------------
       1        0.010141926935     0.006125591156     0.002823986936
       2       -0.010222106368    -0.001933220760    -0.002025584890
       3        0.002519504560    -0.001138892905    -0.000482409882
       4       -0.000895654622    -0.000341645698     0.000324258208
       5       -0.001447641387     0.000472132790     0.000158174567
       6       -0.000096029118    -0.003183964583    -0.000798424939


*** tstop() called on node37.bme.utexas.edu at Sun Dec 29 12:31:29 2019
Module time:
	user time   =       0.46 seconds =       0.01 minutes
	system time =       0.01 seconds =       0.00 minutes
	total time  =          0 seconds =       0.00 minutes
Total time:
	user time   =       2.34 seconds =       0.04 minutes
	system time =       0.05 seconds =       0.00 minutes
	total time  =          2 seconds =       0.03 minutes

			-----------------------------------------
			 OPTKING 2.0: for geometry optimizations 
			  - R.A. King,  Bethel University        
			-----------------------------------------

	Previous internal coordinate definitions found.
	---Fragment 1 Geometry and Gradient---
	 O           1.2989133111        0.0644419000        0.0574494431
	 C          -1.3703085191        0.0244847387       -0.0241908540
	 H          -1.9838595646        1.7705569832        0.8245263192
	 H          -2.1512296762       -1.5412651687        1.0534631867
	 H          -2.0914086167       -0.0604160440       -1.9452400162
	 H           1.9278297936       -1.4831510759       -0.5564774876
	             0.0101419269        0.0061255912        0.0028239869
	            -0.0102221064       -0.0019332208       -0.0020255849
	             0.0025195046       -0.0011388929       -0.0004824099
	            -0.0008956546       -0.0003416457        0.0003242582
	            -0.0014476414        0.0004721328        0.0001581746
	            -0.0000960291       -0.0031839646       -0.0007984249

	---Fragment 1 Intrafragment Coordinates---
	 - Coordinate -           - BOHR/RAD -       - ANG/DEG -
	 R(1,2)           =         2.670769	       1.413310
	 R(1,6)           =         1.779743	       0.941800
	 R(2,3)           =         2.036058	       1.077436
	 R(2,4)           =         2.054933	       1.087424
	 R(2,5)           =         2.053685	       1.086763
	 B(1,2,3)         =         1.850006	     105.997522
	 B(1,2,4)         =         1.955378	     112.034907
	 B(1,2,5)         =         1.960737	     112.341976
	 B(2,1,6)         =         1.906693	     109.245480
	 B(3,2,4)         =         1.896850	     108.681510
	 B(3,2,5)         =         1.896067	     108.636650
	 B(4,2,5)         =         1.902462	     109.003055
	 D(3,2,1,6)       =         3.068801	     175.829349
	 D(4,2,1,6)       =         1.002466	      57.437077
	 D(5,2,1,6)       =        -1.146065	     -65.664704

	Current energy   :      -115.0634507740

	Energy change for the previous step:
		Projected    :        -0.0100551400
		Actual       :        -0.0036051405

	Performing BFGS update.
	Previous computed or guess Hessian on step 1.
	Steps to be used in Hessian update: 1
	Taking RFO optimization step.
	Going to follow RFO solution 1.
	Using RFO vector 1.
	Norm of target step-size    0.45568
	Projected energy change by RFO approximation:        -0.0000206673

	Back-transformation to cartesian coordinates...
	Successfully converged to displaced geometry.

	--- Internal Coordinate Step in ANG or DEG, aJ/ANG or AJ/DEG ---
	 ---------------------------------------------------------------------------
	   Coordinate                Previous        Force       Change         New 
	   ----------                --------       ------       ------       ------
	    1 R(1,2)          =      1.413310    -0.083590    -0.014905     1.398405
	    2 R(1,6)          =      0.941800    -0.024800    -0.004787     0.937013
	    3 R(2,3)          =      1.077436     0.015958     0.002239     1.079675
	    4 R(2,4)          =      1.087424    -0.006350    -0.001420     1.086004
	    5 R(2,5)          =      1.086763    -0.002808    -0.000861     1.085902
	    6 B(1,2,3)        =    105.997522     0.000298     1.438828   107.436350
	    7 B(1,2,4)        =    112.034907    -0.000093    -0.327522   111.707384
	    8 B(1,2,5)        =    112.341976    -0.000199    -0.853155   111.488821
	    9 B(2,1,6)        =    109.245480     0.000166    -0.366817   108.878663
	   10 B(3,2,4)        =    108.681510    -0.000031    -0.136495   108.545015
	   11 B(3,2,5)        =    108.636650    -0.000002     0.061532   108.698182
	   12 B(4,2,5)        =    109.003055     0.000038    -0.130454   108.872601
	   13 D(3,2,1,6)      =    175.829349     0.000006    15.009722   190.839071
	   14 D(4,2,1,6)      =     57.437077    -0.000016    14.465059    71.902136
	   15 D(5,2,1,6)      =    -65.664704     0.000023    15.501375   -50.163329
	 ---------------------------------------------------------------------------
	Successfully symmetrized geometry.

  ==> Convergence Check <==

  Measures of convergence in internal coordinates in au.
  Criteria marked as inactive (o), active & met (*), and active & unmet ( ).
  ---------------------------------------------------------------------------------------------
   Step     Total Energy     Delta E     MAX Force     RMS Force      MAX Disp      RMS Disp   
  ---------------------------------------------------------------------------------------------
    Convergence Criteria    1.00e-06 *    3.00e-04 *             o    1.20e-03 *             o
  ---------------------------------------------------------------------------------------------
      2    -115.06345077   -3.61e-03      1.01e-02      3.14e-03 o    2.71e-01      1.18e-01 o  ~
  ---------------------------------------------------------------------------------------------

	Writing optimization data to binary file.
	Structure for next step:
	Cartesian Geometry (in Angstrom)
	    O     0.6779118336   0.0211951154   0.0685997463
	    C    -0.7193617125   0.0004494770   0.0163278416
	    H    -1.0721926694   0.9371417750   0.4210692552
	    H    -1.1315651294  -0.8097158725   0.6105703749
	    H    -1.0778764510  -0.0948711185  -1.0042431204
	    H     1.0105462452  -0.7026259635  -0.4247870511
			--------------------------
			 OPTKING Finished Execution 
			--------------------------

    Structure for next step:
    Molecular point group: c1
    Full point group: C1

    Geometry (in Angstrom), charge = 0, multiplicity = 1:

    O            0.680349151885     0.031527486231     0.040726297924
    C           -0.716924399677     0.010781847726    -0.011545607020
    H           -1.069755358035     0.947474149419     0.393195808221
    H           -1.129127818240    -0.799383504891     0.582696928682
    H           -1.075439139660    -0.084538748137    -1.032116572939
    H            1.012983564771    -0.692293595476    -0.452660501444

gradient() will perform analytic gradient computation.

*** tstart() called on node37.bme.utexas.edu
*** at Sun Dec 29 12:31:29 2019

   => Loading Basis Set <=

    Name: 6-311G*
    Role: ORBITAL
    Keyword: BASIS
    atoms 1   entry O          line   152 file /home/bdw2292/miniconda3/envs/p4env/share/psi4/basis/6-311gs.gbs 
    atoms 2   entry C          line   114 file /home/bdw2292/miniconda3/envs/p4env/share/psi4/basis/6-311gs.gbs 
    atoms 3-6 entry H          line    37 file /home/bdw2292/miniconda3/envs/p4env/share/psi4/basis/6-311gs.gbs 


         ---------------------------------------------------------
                                   SCF
               by Justin Turney, Rob Parrish, Andy Simmonett
                          and Daniel G. A. Smith
                              RHF Reference
                        1 Threads,    667 MiB Core
         ---------------------------------------------------------

  ==> Geometry <==

    Molecular point group: c1
    Full point group: C1

    Geometry (in Angstrom), charge = 0, multiplicity = 1:

       Center              X                  Y                   Z               Mass       
    ------------   -----------------  -----------------  -----------------  -----------------
         O            0.680349151885     0.031527486231     0.040726297924    15.994914619570
         C           -0.716924399677     0.010781847726    -0.011545607020    12.000000000000
         H           -1.069755358035     0.947474149419     0.393195808221     1.007825032230
         H           -1.129127818240    -0.799383504891     0.582696928682     1.007825032230
         H           -1.075439139660    -0.084538748137    -1.032116572939     1.007825032230
         H            1.012983564771    -0.692293595476    -0.452660501444     1.007825032230

  Running in c1 symmetry.

  Rotational constants: A =      4.38109  B =      0.85158  C =      0.82231 [cm^-1]
  Rotational constants: A = 131341.88693  B =  25529.85604  C =  24652.08694 [MHz]
  Nuclear repulsion =   40.889174055762986

  Charge       = 0
  Multiplicity = 1
  Electrons    = 18
  Nalpha       = 9
  Nbeta        = 9

  ==> Algorithm <==

  SCF Algorithm Type is DF.
  DIIS enabled.
  MOM disabled.
  Fractional occupation disabled.
  Guess Type is READ.
  Energy threshold   = 1.00e-08
  Density threshold  = 1.00e-08
  Integral threshold = 0.00e+00

  ==> Primary Basis <==

  Basis Set: 6-311G*
    Blend: 6-311G*
    Number of shells: 28
    Number of basis function: 48
    Number of Cartesian functions: 50
    Spherical Harmonics?: true
    Max angular momentum: 2

   => Loading Basis Set <=

    Name: (6-311G* AUX)
    Role: JKFIT
    Keyword: DF_BASIS_SCF
    atoms 1   entry O          line   229 file /home/bdw2292/miniconda3/envs/p4env/share/psi4/basis/cc-pvtz-jkfit.gbs 
    atoms 2   entry C          line   125 file /home/bdw2292/miniconda3/envs/p4env/share/psi4/basis/cc-pvtz-jkfit.gbs 
    atoms 3-6 entry H          line    51 file /home/bdw2292/miniconda3/envs/p4env/share/psi4/basis/cc-pvtz-jkfit.gbs 

   => Loading Basis Set <=

    Name: 6-311G*
    Role: ORBITAL
    Keyword: BASIS
    atoms 1   entry O          line   152 file /home/bdw2292/miniconda3/envs/p4env/share/psi4/basis/6-311gs.gbs 
    atoms 2   entry C          line   114 file /home/bdw2292/miniconda3/envs/p4env/share/psi4/basis/6-311gs.gbs 
    atoms 3-6 entry H          line    37 file /home/bdw2292/miniconda3/envs/p4env/share/psi4/basis/6-311gs.gbs 

  Reading orbitals from file 180, no projection.

  ==> Pre-Iterations <==

   -------------------------------------------------------
    Irrep   Nso     Nmo     Nalpha   Nbeta   Ndocc  Nsocc
   -------------------------------------------------------
     A         48      48       0       0       0       0
   -------------------------------------------------------
    Total      48      48       9       9       9       0
   -------------------------------------------------------

  ==> Integral Setup <==

  DFHelper Memory: AOs need 0.006 GiB; user supplied 0.489 GiB. Using in-core AOs.

  ==> MemDFJK: Density-Fitted J/K Matrices <==

    J tasked:                   Yes
    K tasked:                   Yes
    wK tasked:                   No
    OpenMP threads:               1
    Memory [MiB]:               500
    Algorithm:                 Core
    Schwarz Cutoff:           1E-12
    Mask sparsity (%):       0.0000
    Fitting Condition:        1E-10

   => Auxiliary Basis Set <=

  Basis Set: (6-311G* AUX)
    Blend: CC-PVTZ-JKFIT
    Number of shells: 90
    Number of basis function: 278
    Number of Cartesian functions: 332
    Spherical Harmonics?: true
    Max angular momentum: 4

  Minimum eigenvalue in the overlap matrix is 1.0615147754E-02.
  Using Symmetric Orthogonalization.

  SCF Guess: Orbitals guess was supplied from a previous computation.

  ==> Iterations <==

                           Total Energy        Delta E     RMS |[F,P]|

   @DF-RHF iter   0:  -115.06414237509206   -1.15064e+02   2.31751e-03 
   @DF-RHF iter   1:  -115.06257433575831    1.56804e-03   5.74211e-04 DIIS
   @DF-RHF iter   2:  -115.06328077948226   -7.06444e-04   2.39231e-04 DIIS
   @DF-RHF iter   3:  -115.06344846488469   -1.67685e-04   1.07557e-04 DIIS
   @DF-RHF iter   4:  -115.06346923256316   -2.07677e-05   2.61147e-05 DIIS
   @DF-RHF iter   5:  -115.06347198436663   -2.75180e-06   5.12288e-06 DIIS
   @DF-RHF iter   6:  -115.06347207942922   -9.50626e-08   1.46965e-06 DIIS
   @DF-RHF iter   7:  -115.06347208493199   -5.50277e-09   3.26276e-07 DIIS
   @DF-RHF iter   8:  -115.06347208524835   -3.16362e-10   8.41394e-08 DIIS
   @DF-RHF iter   9:  -115.06347208527146   -2.31068e-11   1.24114e-08 DIIS
   @DF-RHF iter  10:  -115.06347208527177   -3.12639e-13   3.72892e-09 DIIS
  Energy and wave function converged.


  ==> Post-Iterations <==

    Orbital Energies [Eh]
    ---------------------

    Doubly Occupied:                                                      

       1A    -20.541545     2A    -11.264417     3A     -1.365531  
       4A     -0.928240     5A     -0.697310     6A     -0.623048  
       7A     -0.597256     8A     -0.499638     9A     -0.444952  

    Virtual:                                                              

      10A      0.154163    11A      0.189591    12A      0.227450  
      13A      0.234008    14A      0.346101    15A      0.462132  
      16A      0.482196    17A      0.597513    18A      0.701690  
      19A      0.737776    20A      0.791366    21A      0.805400  
      22A      0.946140    23A      1.065022    24A      1.079391  
      25A      1.177282    26A      1.546781    27A      1.597833  
      28A      1.691664    29A      1.766437    30A      1.770503  
      31A      2.001339    32A      2.370619    33A      2.621630  
      34A      2.708718    35A      2.724052    36A      3.163005  
      37A      3.257099    38A      3.378044    39A      3.411648  
      40A      3.535862    41A      3.580828    42A      3.825489  
      43A      4.275481    44A      5.385484    45A      5.547414  
      46A      5.929893    47A     24.568961    48A     51.528466  

    Final Occupation by Irrep:
              A 
    DOCC [     9 ]

  @DF-RHF Final Energy:  -115.06347208527177

   => Energetics <=

    Nuclear Repulsion Energy =             40.8891740557629859
    One-Electron Energy =                -237.9814175720104288
    Two-Electron Energy =                  82.0287714309756666
    Total Energy =                       -115.0634720852717692

Computation Completed


Properties will be evaluated at   0.000000,   0.000000,   0.000000 [a0]

Properties computed using the SCF density matrix

  Nuclear Dipole Moment: [e a0]
     X:    -2.1167      Y:    -0.5893      Z:    -0.4769

  Electronic Dipole Moment: [e a0]
     X:     1.7126      Y:     0.0647      Z:     0.0903

  Dipole Moment: [e a0]
     X:    -0.4041      Y:    -0.5246      Z:    -0.3866     Total:     0.7667

  Dipole Moment: [D]
     X:    -1.0270      Y:    -1.3333      Z:    -0.9826     Total:     1.9489


*** tstop() called on node37.bme.utexas.edu at Sun Dec 29 12:31:30 2019
Module time:
	user time   =       0.47 seconds =       0.01 minutes
	system time =       0.00 seconds =       0.00 minutes
	total time  =          1 seconds =       0.02 minutes
Total time:
	user time   =       2.82 seconds =       0.05 minutes
	system time =       0.05 seconds =       0.00 minutes
	total time  =          3 seconds =       0.05 minutes

*** tstart() called on node37.bme.utexas.edu
*** at Sun Dec 29 12:31:30 2019


         ------------------------------------------------------------
                                   SCF GRAD                          
                          Rob Parrish, Justin Turney,                
                       Andy Simmonett, and Alex Sokolov              
         ------------------------------------------------------------

  ==> Geometry <==

    Molecular point group: c1
    Full point group: C1

    Geometry (in Angstrom), charge = 0, multiplicity = 1:

       Center              X                  Y                   Z               Mass       
    ------------   -----------------  -----------------  -----------------  -----------------
         O            0.680349151885     0.031527486231     0.040726297924    15.994914619570
         C           -0.716924399677     0.010781847726    -0.011545607020    12.000000000000
         H           -1.069755358035     0.947474149419     0.393195808221     1.007825032230
         H           -1.129127818240    -0.799383504891     0.582696928682     1.007825032230
         H           -1.075439139660    -0.084538748137    -1.032116572939     1.007825032230
         H            1.012983564771    -0.692293595476    -0.452660501444     1.007825032230

  Nuclear repulsion =   40.889174055762986

  ==> Basis Set <==

  Basis Set: 6-311G*
    Blend: 6-311G*
    Number of shells: 28
    Number of basis function: 48
    Number of Cartesian functions: 50
    Spherical Harmonics?: true
    Max angular momentum: 2

  ==> DFJKGrad: Density-Fitted SCF Gradients <==

    Gradient:                    1
    J tasked:                  Yes
    K tasked:                  Yes
    wK tasked:                  No
    OpenMP threads:              1
    Integrals threads:           1
    Memory [MiB]:              500
    Schwarz Cutoff:          0E+00
    Fitting Condition:       1E-10

   => Auxiliary Basis Set <=

  Basis Set: (6-311G* AUX)
    Blend: CC-PVTZ-JKFIT
    Number of shells: 90
    Number of basis function: 278
    Number of Cartesian functions: 332
    Spherical Harmonics?: true
    Max angular momentum: 4


  -Total Gradient:
     Atom            X                  Y                   Z
    ------   -----------------  -----------------  -----------------
       1        0.001447091705    -0.000770156542     0.000708346940
       2       -0.001030282465    -0.000739734163    -0.000661930989
       3        0.000516485896    -0.000338347484    -0.000110370959
       4        0.000631041941     0.000716151041    -0.000073542765
       5        0.001471950197    -0.000617939756     0.000383093390
       6       -0.003036287275     0.001750026904    -0.000245595616


*** tstop() called on node37.bme.utexas.edu at Sun Dec 29 12:31:31 2019
Module time:
	user time   =       0.46 seconds =       0.01 minutes
	system time =       0.00 seconds =       0.00 minutes
	total time  =          1 seconds =       0.02 minutes
Total time:
	user time   =       3.28 seconds =       0.05 minutes
	system time =       0.05 seconds =       0.00 minutes
	total time  =          4 seconds =       0.07 minutes

			-----------------------------------------
			 OPTKING 2.0: for geometry optimizations 
			  - R.A. King,  Bethel University        
			-----------------------------------------

	Previous internal coordinate definitions found.
	---Fragment 1 Geometry and Gradient---
	 O           1.2856735668        0.0595783144        0.0769615492
	 C          -1.3547907680        0.0203747393       -0.0218180352
	 H          -2.0215446479        1.7904666534        0.7430323912
	 H          -2.1337423371       -1.5106158935        1.1011376094
	 H          -2.0322854386       -0.1597550810       -1.9504176524
	 H           1.9142615070       -1.3082452939       -0.8554043755
	             0.0014470917       -0.0007701565        0.0007083469
	            -0.0010302825       -0.0007397342       -0.0006619310
	             0.0005164859       -0.0003383475       -0.0001103710
	             0.0006310419        0.0007161510       -0.0000735428
	             0.0014719502       -0.0006179398        0.0003830934
	            -0.0030362873        0.0017500269       -0.0002455956

	---Fragment 1 Intrafragment Coordinates---
	 - Coordinate -           - BOHR/RAD -       - ANG/DEG -
	 R(1,2)           =         2.642602	       1.398405
	 R(1,6)           =         1.770698	       0.937013
	 R(2,3)           =         2.040290	       1.079675
	 R(2,4)           =         2.052249	       1.086004
	 R(2,5)           =         2.052058	       1.085902
	 B(1,2,3)         =         1.875118	     107.436350
	 B(1,2,4)         =         1.949662	     111.707384
	 B(1,2,5)         =         1.945847	     111.488821
	 B(2,1,6)         =         1.900291	     108.878663
	 B(3,2,4)         =         1.894468	     108.545015
	 B(3,2,5)         =         1.897141	     108.698182
	 B(4,2,5)         =         1.900185	     108.872601
	 D(3,2,1,6)       =        -2.952415	    -169.160929
	 D(4,2,1,6)       =         1.254929	      71.902136
	 D(5,2,1,6)       =        -0.875515	     -50.163329

	Current energy   :      -115.0634720853

	Energy change for the previous step:
		Projected    :        -0.0000206673
		Actual       :        -0.0000213112
	Energy ratio indicates good step: Trust radius increased to 1.000e+00.


	Performing BFGS update.
	Previous computed or guess Hessian on step 1.
	Steps to be used in Hessian update: 2 1
	Taking RFO optimization step.
	Going to follow RFO solution 1.
	Using RFO vector 1.
	Norm of target step-size    0.56182
	Projected energy change by RFO approximation:        -0.0001088194

	Back-transformation to cartesian coordinates...
	Successfully converged to displaced geometry.

	--- Internal Coordinate Step in ANG or DEG, aJ/ANG or AJ/DEG ---
	 ---------------------------------------------------------------------------
	   Coordinate                Previous        Force       Change         New 
	   ----------                --------       ------       ------       ------
	    1 R(1,2)          =      1.398405     0.012820    -0.013206     1.385198
	    2 R(1,6)          =      0.937013     0.018952    -0.004151     0.932862
	    3 R(2,3)          =      1.079675     0.004150     0.001922     1.081597
	    4 R(2,4)          =      1.086004     0.006706    -0.000662     1.085342
	    5 R(2,5)          =      1.085902     0.006523    -0.000252     1.085651
	    6 B(1,2,3)        =    107.436350     0.000004     1.249673   108.686024
	    7 B(1,2,4)        =    111.707384     0.000017    -0.210944   111.496440
	    8 B(1,2,5)        =    111.488821     0.000131    -0.195672   111.293149
	    9 B(2,1,6)        =    108.878663     0.000324    -1.154534   107.724129
	   10 B(3,2,4)        =    108.545015    -0.000023    -0.311794   108.233221
	   11 B(3,2,5)        =    108.698182    -0.000083    -0.299701   108.398480
	   12 B(4,2,5)        =    108.872601    -0.000052    -0.234444   108.638157
	   13 D(3,2,1,6)      =   -169.160929    -0.000010   -18.538374  -187.699303
	   14 D(4,2,1,6)      =     71.902136    -0.000007   -18.823057    53.079078
	   15 D(5,2,1,6)      =    -50.163329    -0.000016   -18.233902   -68.397231
	 ---------------------------------------------------------------------------
	Successfully symmetrized geometry.

  ==> Convergence Check <==

  Measures of convergence in internal coordinates in au.
  Criteria marked as inactive (o), active & met (*), and active & unmet ( ).
  ---------------------------------------------------------------------------------------------
   Step     Total Energy     Delta E     MAX Force     RMS Force      MAX Disp      RMS Disp   
  ---------------------------------------------------------------------------------------------
    Convergence Criteria    1.00e-06 *    3.00e-04 *             o    1.20e-03 *             o
  ---------------------------------------------------------------------------------------------
      3    -115.06347209   -2.13e-05      4.25e-03      1.49e-03 o    3.29e-01      1.45e-01 o  ~
  ---------------------------------------------------------------------------------------------

	Writing optimization data to binary file.
	Structure for next step:
	Cartesian Geometry (in Angstrom)
	    O     0.6803871917   0.0560792773  -0.0368624102
	    C    -0.7045763052   0.0308415581  -0.0331713219
	    H    -1.0664655540   0.9386004972   0.4303603168
	    H    -1.0854584386  -0.8140508182   0.5316754574
	    H    -1.1006534495  -0.0198263705  -1.0427223555
	    H     0.9788525657  -0.7780765068  -0.3289833313
			--------------------------
			 OPTKING Finished Execution 
			--------------------------

    Structure for next step:
    Molecular point group: c1
    Full point group: C1

    Geometry (in Angstrom), charge = 0, multiplicity = 1:

    O            0.676131226803     0.037704962989     0.006868719771
    C           -0.708832275499     0.012467243693     0.010559808138
    H           -1.070721525683     0.920226186338     0.474091448639
    H           -1.089714410371    -0.832425135930     0.575406589651
    H           -1.104909421413    -0.038200685093    -0.998991229459
    H            0.974596601969    -0.796450824456    -0.285252202506

gradient() will perform analytic gradient computation.

*** tstart() called on node37.bme.utexas.edu
*** at Sun Dec 29 12:31:31 2019

   => Loading Basis Set <=

    Name: 6-311G*
    Role: ORBITAL
    Keyword: BASIS
    atoms 1   entry O          line   152 file /home/bdw2292/miniconda3/envs/p4env/share/psi4/basis/6-311gs.gbs 
    atoms 2   entry C          line   114 file /home/bdw2292/miniconda3/envs/p4env/share/psi4/basis/6-311gs.gbs 
    atoms 3-6 entry H          line    37 file /home/bdw2292/miniconda3/envs/p4env/share/psi4/basis/6-311gs.gbs 


         ---------------------------------------------------------
                                   SCF
               by Justin Turney, Rob Parrish, Andy Simmonett
                          and Daniel G. A. Smith
                              RHF Reference
                        1 Threads,    667 MiB Core
         ---------------------------------------------------------

  ==> Geometry <==

    Molecular point group: c1
    Full point group: C1

    Geometry (in Angstrom), charge = 0, multiplicity = 1:

       Center              X                  Y                   Z               Mass       
    ------------   -----------------  -----------------  -----------------  -----------------
         O            0.676131226803     0.037704962989     0.006868719771    15.994914619570
         C           -0.708832275499     0.012467243693     0.010559808138    12.000000000000
         H           -1.070721525683     0.920226186338     0.474091448639     1.007825032230
         H           -1.089714410371    -0.832425135930     0.575406589651     1.007825032230
         H           -1.104909421413    -0.038200685093    -0.998991229459     1.007825032230
         H            0.974596601969    -0.796450824456    -0.285252202506     1.007825032230

  Running in c1 symmetry.

  Rotational constants: A =      4.38617  B =      0.86571  C =      0.83531 [cm^-1]
  Rotational constants: A = 131494.15569  B =  25953.46120  C =  25042.03281 [MHz]
  Nuclear repulsion =   41.135283472057814

  Charge       = 0
  Multiplicity = 1
  Electrons    = 18
  Nalpha       = 9
  Nbeta        = 9

  ==> Algorithm <==

  SCF Algorithm Type is DF.
  DIIS enabled.
  MOM disabled.
  Fractional occupation disabled.
  Guess Type is READ.
  Energy threshold   = 1.00e-08
  Density threshold  = 1.00e-08
  Integral threshold = 0.00e+00

  ==> Primary Basis <==

  Basis Set: 6-311G*
    Blend: 6-311G*
    Number of shells: 28
    Number of basis function: 48
    Number of Cartesian functions: 50
    Spherical Harmonics?: true
    Max angular momentum: 2

   => Loading Basis Set <=

    Name: (6-311G* AUX)
    Role: JKFIT
    Keyword: DF_BASIS_SCF
    atoms 1   entry O          line   229 file /home/bdw2292/miniconda3/envs/p4env/share/psi4/basis/cc-pvtz-jkfit.gbs 
    atoms 2   entry C          line   125 file /home/bdw2292/miniconda3/envs/p4env/share/psi4/basis/cc-pvtz-jkfit.gbs 
    atoms 3-6 entry H          line    51 file /home/bdw2292/miniconda3/envs/p4env/share/psi4/basis/cc-pvtz-jkfit.gbs 

   => Loading Basis Set <=

    Name: 6-311G*
    Role: ORBITAL
    Keyword: BASIS
    atoms 1   entry O          line   152 file /home/bdw2292/miniconda3/envs/p4env/share/psi4/basis/6-311gs.gbs 
    atoms 2   entry C          line   114 file /home/bdw2292/miniconda3/envs/p4env/share/psi4/basis/6-311gs.gbs 
    atoms 3-6 entry H          line    37 file /home/bdw2292/miniconda3/envs/p4env/share/psi4/basis/6-311gs.gbs 

  Reading orbitals from file 180, no projection.

  ==> Pre-Iterations <==

   -------------------------------------------------------
    Irrep   Nso     Nmo     Nalpha   Nbeta   Ndocc  Nsocc
   -------------------------------------------------------
     A         48      48       0       0       0       0
   -------------------------------------------------------
    Total      48      48       9       9       9       0
   -------------------------------------------------------

  ==> Integral Setup <==

  DFHelper Memory: AOs need 0.006 GiB; user supplied 0.489 GiB. Using in-core AOs.

  ==> MemDFJK: Density-Fitted J/K Matrices <==

    J tasked:                   Yes
    K tasked:                   Yes
    wK tasked:                   No
    OpenMP threads:               1
    Memory [MiB]:               500
    Algorithm:                 Core
    Schwarz Cutoff:           1E-12
    Mask sparsity (%):       0.0000
    Fitting Condition:        1E-10

   => Auxiliary Basis Set <=

  Basis Set: (6-311G* AUX)
    Blend: CC-PVTZ-JKFIT
    Number of shells: 90
    Number of basis function: 278
    Number of Cartesian functions: 332
    Spherical Harmonics?: true
    Max angular momentum: 4

  Minimum eigenvalue in the overlap matrix is 1.0380007973E-02.
  Using Symmetric Orthogonalization.

  SCF Guess: Orbitals guess was supplied from a previous computation.

  ==> Iterations <==

                           Total Energy        Delta E     RMS |[F,P]|

   @DF-RHF iter   0:  -115.05747691706458   -1.15057e+02   3.00296e-03 
   @DF-RHF iter   1:  -115.06185319669041   -4.37628e-03   7.13283e-04 DIIS
   @DF-RHF iter   2:  -115.06290727858337   -1.05408e-03   2.90601e-04 DIIS
   @DF-RHF iter   3:  -115.06313957028593   -2.32292e-04   1.29858e-04 DIIS
   @DF-RHF iter   4:  -115.06316958455611   -3.00143e-05   3.14945e-05 DIIS
   @DF-RHF iter   5:  -115.06317344280842   -3.85825e-06   8.67299e-06 DIIS
   @DF-RHF iter   6:  -115.06317365143745   -2.08629e-07   2.39863e-06 DIIS
   @DF-RHF iter   7:  -115.06317366981681   -1.83794e-08   3.97349e-07 DIIS
   @DF-RHF iter   8:  -115.06317367037416   -5.57350e-10   9.97873e-08 DIIS
   @DF-RHF iter   9:  -115.06317367040690   -3.27418e-11   1.46189e-08 DIIS
   @DF-RHF iter  10:  -115.06317367040766   -7.67386e-13   3.51974e-09 DIIS
  Energy and wave function converged.


  ==> Post-Iterations <==

    Orbital Energies [Eh]
    ---------------------

    Doubly Occupied:                                                      

       1A    -20.541982     2A    -11.263422     3A     -1.372762  
       4A     -0.927800     5A     -0.701096     6A     -0.625879  
       7A     -0.601025     8A     -0.499406     9A     -0.443967  

    Virtual:                                                              

      10A      0.154002    11A      0.190140    12A      0.227428  
      13A      0.234723    14A      0.348794    15A      0.463933  
      16A      0.482152    17A      0.595819    18A      0.711035  
      19A      0.740316    20A      0.790947    21A      0.806048  
      22A      0.945176    23A      1.064139    24A      1.078019  
      25A      1.176445    26A      1.548135    27A      1.593113  
      28A      1.689509    29A      1.765645    30A      1.769567  
      31A      2.013069    32A      2.373271    33A      2.619993  
      34A      2.710311    35A      2.722130    36A      3.160348  
      37A      3.279819    38A      3.392744    39A      3.417098  
      40A      3.540282    41A      3.591813    42A      3.826655  
      43A      4.279428    44A      5.385696    45A      5.555393  
      46A      5.942930    47A     24.581681    48A     51.531418  

    Final Occupation by Irrep:
              A 
    DOCC [     9 ]

  @DF-RHF Final Energy:  -115.06317367040766

   => Energetics <=

    Nuclear Repulsion Energy =             41.1352834720578144
    One-Electron Energy =                -238.4422383864727522
    Two-Electron Energy =                  82.2437812440072804
    Total Energy =                       -115.0631736704076644

Computation Completed


Properties will be evaluated at   0.000000,   0.000000,   0.000000 [a0]

Properties computed using the SCF density matrix

  Nuclear Dipole Moment: [e a0]
     X:    -2.1443      Y:    -0.7000      Z:    -0.2200

  Electronic Dipole Moment: [e a0]
     X:     1.7359      Y:     0.0897      Z:     0.0200

  Dipole Moment: [e a0]
     X:    -0.4083      Y:    -0.6103      Z:    -0.2000     Total:     0.7611

  Dipole Moment: [D]
     X:    -1.0379      Y:    -1.5512      Z:    -0.5084     Total:     1.9344


*** tstop() called on node37.bme.utexas.edu at Sun Dec 29 12:31:31 2019
Module time:
	user time   =       0.47 seconds =       0.01 minutes
	system time =       0.01 seconds =       0.00 minutes
	total time  =          0 seconds =       0.00 minutes
Total time:
	user time   =       3.76 seconds =       0.06 minutes
	system time =       0.07 seconds =       0.00 minutes
	total time  =          4 seconds =       0.07 minutes

*** tstart() called on node37.bme.utexas.edu
*** at Sun Dec 29 12:31:31 2019


         ------------------------------------------------------------
                                   SCF GRAD                          
                          Rob Parrish, Justin Turney,                
                       Andy Simmonett, and Alex Sokolov              
         ------------------------------------------------------------

  ==> Geometry <==

    Molecular point group: c1
    Full point group: C1

    Geometry (in Angstrom), charge = 0, multiplicity = 1:

       Center              X                  Y                   Z               Mass       
    ------------   -----------------  -----------------  -----------------  -----------------
         O            0.676131226803     0.037704962989     0.006868719771    15.994914619570
         C           -0.708832275499     0.012467243693     0.010559808138    12.000000000000
         H           -1.070721525683     0.920226186338     0.474091448639     1.007825032230
         H           -1.089714410371    -0.832425135930     0.575406589651     1.007825032230
         H           -1.104909421413    -0.038200685093    -0.998991229459     1.007825032230
         H            0.974596601969    -0.796450824456    -0.285252202506     1.007825032230

  Nuclear repulsion =   41.135283472057814

  ==> Basis Set <==

  Basis Set: 6-311G*
    Blend: 6-311G*
    Number of shells: 28
    Number of basis function: 48
    Number of Cartesian functions: 50
    Spherical Harmonics?: true
    Max angular momentum: 2

  ==> DFJKGrad: Density-Fitted SCF Gradients <==

    Gradient:                    1
    J tasked:                  Yes
    K tasked:                  Yes
    wK tasked:                  No
    OpenMP threads:              1
    Integrals threads:           1
    Memory [MiB]:              500
    Schwarz Cutoff:          0E+00
    Fitting Condition:       1E-10

   => Auxiliary Basis Set <=

  Basis Set: (6-311G* AUX)
    Blend: CC-PVTZ-JKFIT
    Number of shells: 90
    Number of basis function: 278
    Number of Cartesian functions: 332
    Spherical Harmonics?: true
    Max angular momentum: 4


  -Total Gradient:
     Atom            X                  Y                   Z
    ------   -----------------  -----------------  -----------------
       1       -0.005215926321    -0.004085114641    -0.002963362523
       2        0.009655405614    -0.001523826729     0.000166424740
       3       -0.001576677361    -0.000007027146     0.000320538226
       4        0.002061503941     0.000716996886    -0.001149676008
       5        0.002279324461    -0.000042436676     0.000980673739
       6       -0.007203630333     0.004941408305     0.002645401825


*** tstop() called on node37.bme.utexas.edu at Sun Dec 29 12:31:32 2019
Module time:
	user time   =       0.47 seconds =       0.01 minutes
	system time =       0.00 seconds =       0.00 minutes
	total time  =          1 seconds =       0.02 minutes
Total time:
	user time   =       4.23 seconds =       0.07 minutes
	system time =       0.07 seconds =       0.00 minutes
	total time  =          5 seconds =       0.08 minutes

			-----------------------------------------
			 OPTKING 2.0: for geometry optimizations 
			  - R.A. King,  Bethel University        
			-----------------------------------------

	Previous internal coordinate definitions found.
	---Fragment 1 Geometry and Gradient---
	 O           1.2777028435        0.0712520536        0.0129799992
	 C          -1.3394988696        0.0235596761        0.0199551453
	 H          -2.0233704402        1.7389754657        0.8959029963
	 H          -2.0592617906       -1.5730555269        1.0873608652
	 H          -2.0879761999       -0.0721888326       -1.8878198254
	 H           1.8417206605       -1.5050739306       -0.5390485394
	            -0.0052159263       -0.0040851146       -0.0029633625
	             0.0096554056       -0.0015238267        0.0001664247
	            -0.0015766774       -0.0000070271        0.0003205382
	             0.0020615039        0.0007169969       -0.0011496760
	             0.0022793245       -0.0000424367        0.0009806737
	            -0.0072036303        0.0049414083        0.0026454018

	---Fragment 1 Intrafragment Coordinates---
	 - Coordinate -           - BOHR/RAD -       - ANG/DEG -
	 R(1,2)           =         2.617646	       1.385198
	 R(1,6)           =         1.762854	       0.932862
	 R(2,3)           =         2.043922	       1.081597
	 R(2,4)           =         2.050998	       1.085342
	 R(2,5)           =         2.051583	       1.085651
	 B(1,2,3)         =         1.896929	     108.686024
	 B(1,2,4)         =         1.945980	     111.496440
	 B(1,2,5)         =         1.942432	     111.293149
	 B(2,1,6)         =         1.880141	     107.724129
	 B(3,2,4)         =         1.889026	     108.233221
	 B(3,2,5)         =         1.891910	     108.398480
	 B(4,2,5)         =         1.896094	     108.638157
	 D(3,2,1,6)       =         3.007214	     172.300697
	 D(4,2,1,6)       =         0.926405	      53.079078
	 D(5,2,1,6)       =        -1.193757	     -68.397231

	Current energy   :      -115.0631736704

	Energy change for the previous step:
		Projected    :        -0.0001088194
		Actual       :         0.0002984149

	Performing BFGS update.
	Previous computed or guess Hessian on step 1.
	Steps to be used in Hessian update: 3 2
	Taking RFO optimization step.
	Going to follow RFO solution 1.
	Using RFO vector 1.
	Norm of target step-size    0.21744
	Projected energy change by RFO approximation:        -0.0021717744

	Back-transformation to cartesian coordinates...
	Successfully converged to displaced geometry.

	--- Internal Coordinate Step in ANG or DEG, aJ/ANG or AJ/DEG ---
	 ---------------------------------------------------------------------------
	   Coordinate                Previous        Force       Change         New 
	   ----------                --------       ------       ------       ------
	    1 R(1,2)          =      1.385198     0.102168     0.013073     1.398272
	    2 R(1,6)          =      0.932862     0.062217     0.004541     0.937403
	    3 R(2,3)          =      1.081597    -0.005429    -0.001690     1.079907
	    4 R(2,4)          =      1.085342     0.015488     0.001046     1.086387
	    5 R(2,5)          =      1.085651     0.014348     0.000705     1.086356
	    6 B(1,2,3)        =    108.686024    -0.000258    -1.226505   107.459518
	    7 B(1,2,4)        =    111.496440     0.000177     0.405001   111.901441
	    8 B(1,2,5)        =    111.293149     0.000214     0.353758   111.646907
	    9 B(2,1,6)        =    107.724129     0.000679     2.977096   110.701225
	   10 B(3,2,4)        =    108.233221    -0.000027     0.154976   108.388198
	   11 B(3,2,5)        =    108.398480    -0.000038     0.185681   108.584161
	   12 B(4,2,5)        =    108.638157    -0.000079     0.114535   108.752692
	   13 D(3,2,1,6)      =    172.300697     0.000007     6.844133   179.144829
	   14 D(4,2,1,6)      =     53.079078     0.000028     7.193500    60.272578
	   15 D(5,2,1,6)      =    -68.397231    -0.000011     6.506364   -61.890867
	 ---------------------------------------------------------------------------
	Successfully symmetrized geometry.

  ==> Convergence Check <==

  Measures of convergence in internal coordinates in au.
  Criteria marked as inactive (o), active & met (*), and active & unmet ( ).
  ---------------------------------------------------------------------------------------------
   Step     Total Energy     Delta E     MAX Force     RMS Force      MAX Disp      RMS Disp   
  ---------------------------------------------------------------------------------------------
    Convergence Criteria    1.00e-06 *    3.00e-04 *             o    1.20e-03 *             o
  ---------------------------------------------------------------------------------------------
      4    -115.06317367    2.98e-04      1.24e-02      4.67e-03 o    1.26e-01      5.59e-02 o  ~
  ---------------------------------------------------------------------------------------------

	Writing optimization data to binary file.
	Structure for next step:
	Cartesian Geometry (in Angstrom)
	    O     0.6771416426   0.0195394943   0.0117766467
	    C    -0.7210146035   0.0054230306   0.0228865257
	    H    -1.0509232910   0.9343678333   0.4638185950
	    H    -1.1132759283  -0.8146410093   0.6177504355
	    H    -1.1290555021  -0.0652588930  -0.9814417571
	    H     1.0136778873  -0.7761087056  -0.3521073108
			--------------------------
			 OPTKING Finished Execution 
			--------------------------

    Structure for next step:
    Molecular point group: c1
    Full point group: C1

    Geometry (in Angstrom), charge = 0, multiplicity = 1:

    O            0.680850078559     0.030458010073     0.005249088590
    C           -0.717306173114     0.016341546292     0.016358967691
    H           -1.047214861906     0.945286352672     0.457291038741
    H           -1.109567499429    -0.803722496779     0.611222879853
    H           -1.125347073291    -0.054340377603    -0.987969319051
    H            1.017386324543    -0.765190192993    -0.358634870337

gradient() will perform analytic gradient computation.

*** tstart() called on node37.bme.utexas.edu
*** at Sun Dec 29 12:31:32 2019

   => Loading Basis Set <=

    Name: 6-311G*
    Role: ORBITAL
    Keyword: BASIS
    atoms 1   entry O          line   152 file /home/bdw2292/miniconda3/envs/p4env/share/psi4/basis/6-311gs.gbs 
    atoms 2   entry C          line   114 file /home/bdw2292/miniconda3/envs/p4env/share/psi4/basis/6-311gs.gbs 
    atoms 3-6 entry H          line    37 file /home/bdw2292/miniconda3/envs/p4env/share/psi4/basis/6-311gs.gbs 


         ---------------------------------------------------------
                                   SCF
               by Justin Turney, Rob Parrish, Andy Simmonett
                          and Daniel G. A. Smith
                              RHF Reference
                        1 Threads,    667 MiB Core
         ---------------------------------------------------------

  ==> Geometry <==

    Molecular point group: c1
    Full point group: C1

    Geometry (in Angstrom), charge = 0, multiplicity = 1:

       Center              X                  Y                   Z               Mass       
    ------------   -----------------  -----------------  -----------------  -----------------
         O            0.680850078559     0.030458010073     0.005249088590    15.994914619570
         C           -0.717306173114     0.016341546292     0.016358967691    12.000000000000
         H           -1.047214861906     0.945286352672     0.457291038741     1.007825032230
         H           -1.109567499429    -0.803722496779     0.611222879853     1.007825032230
         H           -1.125347073291    -0.054340377603    -0.987969319051     1.007825032230
         H            1.017386324543    -0.765190192993    -0.358634870337     1.007825032230

  Running in c1 symmetry.

  Rotational constants: A =      4.40521  B =      0.84855  C =      0.82034 [cm^-1]
  Rotational constants: A = 132064.82414  B =  25438.77684  C =  24593.26378 [MHz]
  Nuclear repulsion =   40.857611452826717

  Charge       = 0
  Multiplicity = 1
  Electrons    = 18
  Nalpha       = 9
  Nbeta        = 9

  ==> Algorithm <==

  SCF Algorithm Type is DF.
  DIIS enabled.
  MOM disabled.
  Fractional occupation disabled.
  Guess Type is READ.
  Energy threshold   = 1.00e-08
  Density threshold  = 1.00e-08
  Integral threshold = 0.00e+00

  ==> Primary Basis <==

  Basis Set: 6-311G*
    Blend: 6-311G*
    Number of shells: 28
    Number of basis function: 48
    Number of Cartesian functions: 50
    Spherical Harmonics?: true
    Max angular momentum: 2

   => Loading Basis Set <=

    Name: (6-311G* AUX)
    Role: JKFIT
    Keyword: DF_BASIS_SCF
    atoms 1   entry O          line   229 file /home/bdw2292/miniconda3/envs/p4env/share/psi4/basis/cc-pvtz-jkfit.gbs 
    atoms 2   entry C          line   125 file /home/bdw2292/miniconda3/envs/p4env/share/psi4/basis/cc-pvtz-jkfit.gbs 
    atoms 3-6 entry H          line    51 file /home/bdw2292/miniconda3/envs/p4env/share/psi4/basis/cc-pvtz-jkfit.gbs 

   => Loading Basis Set <=

    Name: 6-311G*
    Role: ORBITAL
    Keyword: BASIS
    atoms 1   entry O          line   152 file /home/bdw2292/miniconda3/envs/p4env/share/psi4/basis/6-311gs.gbs 
    atoms 2   entry C          line   114 file /home/bdw2292/miniconda3/envs/p4env/share/psi4/basis/6-311gs.gbs 
    atoms 3-6 entry H          line    37 file /home/bdw2292/miniconda3/envs/p4env/share/psi4/basis/6-311gs.gbs 

  Reading orbitals from file 180, no projection.

  ==> Pre-Iterations <==

   -------------------------------------------------------
    Irrep   Nso     Nmo     Nalpha   Nbeta   Ndocc  Nsocc
   -------------------------------------------------------
     A         48      48       0       0       0       0
   -------------------------------------------------------
    Total      48      48       9       9       9       0
   -------------------------------------------------------

  ==> Integral Setup <==

  DFHelper Memory: AOs need 0.006 GiB; user supplied 0.489 GiB. Using in-core AOs.

  ==> MemDFJK: Density-Fitted J/K Matrices <==

    J tasked:                   Yes
    K tasked:                   Yes
    wK tasked:                   No
    OpenMP threads:               1
    Memory [MiB]:               500
    Algorithm:                 Core
    Schwarz Cutoff:           1E-12
    Mask sparsity (%):       0.0000
    Fitting Condition:        1E-10

   => Auxiliary Basis Set <=

  Basis Set: (6-311G* AUX)
    Blend: CC-PVTZ-JKFIT
    Number of shells: 90
    Number of basis function: 278
    Number of Cartesian functions: 332
    Spherical Harmonics?: true
    Max angular momentum: 4

  Minimum eigenvalue in the overlap matrix is 1.0676371784E-02.
  Using Symmetric Orthogonalization.

  SCF Guess: Orbitals guess was supplied from a previous computation.

  ==> Iterations <==

                           Total Energy        Delta E     RMS |[F,P]|

   @DF-RHF iter   0:  -115.05551609369773   -1.15056e+02   1.27216e-03 
   @DF-RHF iter   1:  -115.06346691194886   -7.95082e-03   2.98447e-04 DIIS
   @DF-RHF iter   2:  -115.06364377347363   -1.76862e-04   1.30950e-04 DIIS
   @DF-RHF iter   3:  -115.06367859454841   -3.48211e-05   6.98185e-05 DIIS
   @DF-RHF iter   4:  -115.06368785686924   -9.26232e-06   1.23426e-05 DIIS
   @DF-RHF iter   5:  -115.06368850599674   -6.49128e-07   3.06502e-06 DIIS
   @DF-RHF iter   6:  -115.06368854609917   -4.01024e-08   6.60124e-07 DIIS
   @DF-RHF iter   7:  -115.06368854765006   -1.55089e-09   1.81836e-07 DIIS
   @DF-RHF iter   8:  -115.06368854772042   -7.03579e-11   4.85221e-08 DIIS
   @DF-RHF iter   9:  -115.06368854772695   -6.53699e-12   7.46850e-09 DIIS
  Energy and wave function converged.


  ==> Post-Iterations <==

    Orbital Energies [Eh]
    ---------------------

    Doubly Occupied:                                                      

       1A    -20.540830     2A    -11.264628     3A     -1.363982  
       4A     -0.928957     5A     -0.696962     6A     -0.622323  
       7A     -0.597870     8A     -0.497353     9A     -0.444670  

    Virtual:                                                              

      10A      0.154888    11A      0.189105    12A      0.227437  
      13A      0.234202    14A      0.345996    15A      0.461973  
      16A      0.483798    17A      0.597998    18A      0.700001  
      19A      0.737301    20A      0.791561    21A      0.806257  
      22A      0.946215    23A      1.065318    24A      1.079796  
      25A      1.175804    26A      1.547438    27A      1.602967  
      28A      1.697665    29A      1.764707    30A      1.770749  
      31A      2.002423    32A      2.367730    33A      2.620048  
      34A      2.707371    35A      2.725146    36A      3.165547  
      37A      3.257257    38A      3.379695    39A      3.419804  
      40A      3.512276    41A      3.579680    42A      3.836960  
      43A      4.273648    44A      5.386438    45A      5.542883  
      46A      5.936257    47A     24.568023    48A     51.528257  

    Final Occupation by Irrep:
              A 
    DOCC [     9 ]

  @DF-RHF Final Energy:  -115.06368854772695

   => Energetics <=

[...]
    C           -0.716740086925     0.016153282258     0.015752980915
    H           -1.043536892634     0.950559283636     0.448300657404
    H           -1.110847510167    -0.798018860218     0.619069261639
    H           -1.129592336248    -0.061069337022    -0.987134328238
    H            1.008232144477    -0.767956134034    -0.364017149302

gradient() will perform analytic gradient computation.

*** tstart() called on node37.bme.utexas.edu
*** at Sun Dec 29 12:31:35 2019

   => Loading Basis Set <=

    Name: 6-311G*
    Role: ORBITAL
    Keyword: BASIS
    atoms 1   entry O          line   152 file /home/bdw2292/miniconda3/envs/p4env/share/psi4/basis/6-311gs.gbs 
    atoms 2   entry C          line   114 file /home/bdw2292/miniconda3/envs/p4env/share/psi4/basis/6-311gs.gbs 
    atoms 3-6 entry H          line    37 file /home/bdw2292/miniconda3/envs/p4env/share/psi4/basis/6-311gs.gbs 


         ---------------------------------------------------------
                                   SCF
               by Justin Turney, Rob Parrish, Andy Simmonett
                          and Daniel G. A. Smith
                              RHF Reference
                        1 Threads,    667 MiB Core
         ---------------------------------------------------------

  ==> Geometry <==

    Molecular point group: c1
    Full point group: C1

    Geometry (in Angstrom), charge = 0, multiplicity = 1:

       Center              X                  Y                   Z               Mass       
    ------------   -----------------  -----------------  -----------------  -----------------
         O            0.681118572470     0.030505894495     0.006062326037    15.994914619570
         C           -0.716740086925     0.016153282258     0.015752980915    12.000000000000
         H           -1.043536892634     0.950559283636     0.448300657404     1.007825032230
         H           -1.110847510167    -0.798018860218     0.619069261639     1.007825032230
         H           -1.129592336248    -0.061069337022    -0.987134328238     1.007825032230
         H            1.008232144477    -0.767956134034    -0.364017149302     1.007825032230

  Running in c1 symmetry.

  Rotational constants: A =      4.39246  B =      0.84929  C =      0.82075 [cm^-1]
  Rotational constants: A = 131682.65564  B =  25460.96788  C =  24605.52808 [MHz]
  Nuclear repulsion =   40.852726967832680

  Charge       = 0
  Multiplicity = 1
  Electrons    = 18
  Nalpha       = 9
  Nbeta        = 9

  ==> Algorithm <==

  SCF Algorithm Type is DF.
  DIIS enabled.
  MOM disabled.
  Fractional occupation disabled.
  Guess Type is READ.
  Energy threshold   = 1.00e-08
  Density threshold  = 1.00e-08
  Integral threshold = 0.00e+00

  ==> Primary Basis <==

  Basis Set: 6-311G*
    Blend: 6-311G*
    Number of shells: 28
    Number of basis function: 48
    Number of Cartesian functions: 50
    Spherical Harmonics?: true
    Max angular momentum: 2

   => Loading Basis Set <=

    Name: (6-311G* AUX)
    Role: JKFIT
    Keyword: DF_BASIS_SCF
    atoms 1   entry O          line   229 file /home/bdw2292/miniconda3/envs/p4env/share/psi4/basis/cc-pvtz-jkfit.gbs 
    atoms 2   entry C          line   125 file /home/bdw2292/miniconda3/envs/p4env/share/psi4/basis/cc-pvtz-jkfit.gbs 
    atoms 3-6 entry H          line    51 file /home/bdw2292/miniconda3/envs/p4env/share/psi4/basis/cc-pvtz-jkfit.gbs 

   => Loading Basis Set <=

    Name: 6-311G*
    Role: ORBITAL
    Keyword: BASIS
    atoms 1   entry O          line   152 file /home/bdw2292/miniconda3/envs/p4env/share/psi4/basis/6-311gs.gbs 
    atoms 2   entry C          line   114 file /home/bdw2292/miniconda3/envs/p4env/share/psi4/basis/6-311gs.gbs 
    atoms 3-6 entry H          line    37 file /home/bdw2292/miniconda3/envs/p4env/share/psi4/basis/6-311gs.gbs 

  Reading orbitals from file 180, no projection.

  ==> Pre-Iterations <==

   -------------------------------------------------------
    Irrep   Nso     Nmo     Nalpha   Nbeta   Ndocc  Nsocc
   -------------------------------------------------------
     A         48      48       0       0       0       0
   -------------------------------------------------------
    Total      48      48       9       9       9       0
   -------------------------------------------------------

  ==> Integral Setup <==

  DFHelper Memory: AOs need 0.006 GiB; user supplied 0.489 GiB. Using in-core AOs.

  ==> MemDFJK: Density-Fitted J/K Matrices <==

    J tasked:                   Yes
    K tasked:                   Yes
    wK tasked:                   No
    OpenMP threads:               1
    Memory [MiB]:               500
    Algorithm:                 Core
    Schwarz Cutoff:           1E-12
    Mask sparsity (%):       0.0000
    Fitting Condition:        1E-10

   => Auxiliary Basis Set <=

  Basis Set: (6-311G* AUX)
    Blend: CC-PVTZ-JKFIT
    Number of shells: 90
    Number of basis function: 278
    Number of Cartesian functions: 332
    Spherical Harmonics?: true
    Max angular momentum: 4

  Minimum eigenvalue in the overlap matrix is 1.0676764979E-02.
  Using Symmetric Orthogonalization.

  SCF Guess: Orbitals guess was supplied from a previous computation.

  ==> Iterations <==

                           Total Energy        Delta E     RMS |[F,P]|

   @DF-RHF iter   0:  -115.06370905174182   -1.15064e+02   1.75680e-05 
   @DF-RHF iter   1:  -115.06371466766417   -5.61592e-06   4.41304e-06 DIIS
   @DF-RHF iter   2:  -115.06371471120111   -4.35369e-08   1.83932e-06 DIIS
   @DF-RHF iter   3:  -115.06371472278235   -1.15812e-08   4.42960e-07 DIIS
   @DF-RHF iter   4:  -115.06371472335206   -5.69713e-10   1.93665e-07 DIIS
   @DF-RHF iter   5:  -115.06371472344773   -9.56675e-11   3.24958e-08 DIIS
   @DF-RHF iter   6:  -115.06371472345118   -3.45324e-12   9.31415e-09 DIIS
  Energy and wave function converged.


  ==> Post-Iterations <==

    Orbital Energies [Eh]
    ---------------------

    Doubly Occupied:                                                      

       1A    -20.541661     2A    -11.264800     3A     -1.364464  
       4A     -0.928359     5A     -0.697005     6A     -0.622295  
       7A     -0.597335     8A     -0.498097     9A     -0.444927  

    Virtual:                                                              

      10A      0.154641    11A      0.189145    12A      0.227343  
      13A      0.234008    14A      0.346236    15A      0.461384  
      16A      0.484062    17A      0.596245    18A      0.700412  
      19A      0.737277    20A      0.791096    21A      0.805901  
      22A      0.946313    23A      1.064724    24A      1.080030  
      25A      1.175339    26A      1.547058    27A      1.602378  
      28A      1.695659    29A      1.764281    30A      1.770923  
      31A      2.002503    32A      2.368216    33A      2.619168  
      34A      2.706068    35A      2.725009    36A      3.165145  
      37A      3.258041    38A      3.378725    39A      3.421394  
      40A      3.516538    41A      3.577496    42A      3.830246  
      43A      4.273880    44A      5.386408    45A      5.542669  
      46A      5.932796    47A     24.568180    48A     51.527648  

    Final Occupation by Irrep:
              A 
    DOCC [     9 ]

  @DF-RHF Final Energy:  -115.06371472345118

   => Energetics <=

    Nuclear Repulsion Energy =             40.8527269678326803
    One-Electron Energy =                -237.9149932411942245
    Two-Electron Energy =                  81.9985515499103741
    Total Energy =                       -115.0637147234511843

Computation Completed


Properties will be evaluated at   0.000000,   0.000000,   0.000000 [a0]

Properties computed using the SCF density matrix

  Nuclear Dipole Moment: [e a0]
     X:    -2.1302      Y:    -0.6340      Z:    -0.2660

  Electronic Dipole Moment: [e a0]
     X:     1.7209      Y:     0.0539      Z:     0.0047

  Dipole Moment: [e a0]
     X:    -0.4093      Y:    -0.5801      Z:    -0.2613     Total:     0.7565

  Dipole Moment: [D]
     X:    -1.0403      Y:    -1.4745      Z:    -0.6643     Total:     1.9229


*** tstop() called on node37.bme.utexas.edu at Sun Dec 29 12:31:36 2019
Module time:
	user time   =       0.45 seconds =       0.01 minutes
	system time =       0.01 seconds =       0.00 minutes
	total time  =          1 seconds =       0.02 minutes
Total time:
	user time   =       7.53 seconds =       0.13 minutes
	system time =       0.11 seconds =       0.00 minutes
	total time  =          9 seconds =       0.15 minutes

*** tstart() called on node37.bme.utexas.edu
*** at Sun Dec 29 12:31:36 2019


         ------------------------------------------------------------
                                   SCF GRAD                          
                          Rob Parrish, Justin Turney,                
                       Andy Simmonett, and Alex Sokolov              
         ------------------------------------------------------------

  ==> Geometry <==

    Molecular point group: c1
    Full point group: C1

    Geometry (in Angstrom), charge = 0, multiplicity = 1:

       Center              X                  Y                   Z               Mass       
    ------------   -----------------  -----------------  -----------------  -----------------
         O            0.681118572470     0.030505894495     0.006062326037    15.994914619570
         C           -0.716740086925     0.016153282258     0.015752980915    12.000000000000
         H           -1.043536892634     0.950559283636     0.448300657404     1.007825032230
         H           -1.110847510167    -0.798018860218     0.619069261639     1.007825032230
         H           -1.129592336248    -0.061069337022    -0.987134328238     1.007825032230
         H            1.008232144477    -0.767956134034    -0.364017149302     1.007825032230

  Nuclear repulsion =   40.852726967832680

  ==> Basis Set <==

  Basis Set: 6-311G*
    Blend: 6-311G*
    Number of shells: 28
    Number of basis function: 48
    Number of Cartesian functions: 50
    Spherical Harmonics?: true
    Max angular momentum: 2

  ==> DFJKGrad: Density-Fitted SCF Gradients <==

    Gradient:                    1
    J tasked:                  Yes
    K tasked:                  Yes
    wK tasked:                  No
    OpenMP threads:              1
    Integrals threads:           1
    Memory [MiB]:              500
    Schwarz Cutoff:          0E+00
    Fitting Condition:       1E-10

   => Auxiliary Basis Set <=

  Basis Set: (6-311G* AUX)
    Blend: CC-PVTZ-JKFIT
    Number of shells: 90
    Number of basis function: 278
    Number of Cartesian functions: 332
    Spherical Harmonics?: true
    Max angular momentum: 4


  -Total Gradient:
     Atom            X                  Y                   Z
    ------   -----------------  -----------------  -----------------
       1       -0.000006577856    -0.000001436882     0.000002402314
       2       -0.000001602057     0.000000595629    -0.000004924996
       3        0.000003552272    -0.000001160858     0.000001260753
       4        0.000004607800     0.000001024641     0.000001049092
       5       -0.000000182634     0.000000153086    -0.000000748356
       6        0.000000202474     0.000000824385     0.000000961193


*** tstop() called on node37.bme.utexas.edu at Sun Dec 29 12:31:36 2019
Module time:
	user time   =       0.46 seconds =       0.01 minutes
	system time =       0.00 seconds =       0.00 minutes
	total time  =          0 seconds =       0.00 minutes
Total time:
	user time   =       7.99 seconds =       0.13 minutes
	system time =       0.11 seconds =       0.00 minutes
	total time  =          9 seconds =       0.15 minutes

			-----------------------------------------
			 OPTKING 2.0: for geometry optimizations 
			  - R.A. King,  Bethel University        
			-----------------------------------------

	Previous internal coordinate definitions found.
	---Fragment 1 Geometry and Gradient---
	 O           1.2871275609        0.0576477858        0.0114561359
	 C          -1.3544424674        0.0305252795        0.0297688196
	 H          -1.9719989289        1.7962967121        0.8471654644
	 H          -2.0991975614       -1.5080370888        1.1698713572
	 H          -2.1346201489       -0.1154043216       -1.8654135294
	 H           1.9052826239       -1.4512267697       -0.6878927172
	            -0.0000065779       -0.0000014369        0.0000024023
	            -0.0000016021        0.0000005956       -0.0000049250
	             0.0000035523       -0.0000011609        0.0000012608
	             0.0000046078        0.0000010246        0.0000010491
	            -0.0000001826        0.0000001531       -0.0000007484
	             0.0000002025        0.0000008244        0.0000009612

	---Fragment 1 Intrafragment Coordinates---
	 - Coordinate -           - BOHR/RAD -       - ANG/DEG -
	 R(1,2)           =         2.641773	       1.397966
	 R(1,6)           =         1.774234	       0.938884
	 R(2,3)           =         2.041436	       1.080282
	 R(2,4)           =         2.054670	       1.087284
	 R(2,5)           =         2.054675	       1.087287
	 B(1,2,3)         =         1.871699	     107.240470
	 B(1,2,4)         =         1.954089	     111.961037
	 B(1,2,5)         =         1.954131	     111.963431
	 B(2,1,6)         =         1.920246	     110.022009
	 B(3,2,4)         =         1.892169	     108.413279
	 B(3,2,5)         =         1.892189	     108.414457
	 B(4,2,5)         =         1.897577	     108.723130
	 D(3,2,1,6)       =         3.141494	     179.994369
	 D(4,2,1,6)       =         1.068060	      61.195326
	 D(5,2,1,6)       =        -1.068207	     -61.203770

	Current energy   :      -115.0637147235

	Energy change for the previous step:
		Projected    :        -0.0000000823
		Actual       :        -0.0000000203
	Energy ratio indicates iffy step: Trust radius decreased to 1.562e-02.


	Performing BFGS update.
	Previous computed or guess Hessian on step 1.
	Denominators (dg)(dq) or (dq)(dq) are very small.
	 Skipping Hessian update for step 7.
	Steps to be used in Hessian update: 6 5
	Taking RFO optimization step.
	Going to follow RFO solution 1.
	Using RFO vector 1.
	Norm of target step-size    0.00015
	Projected energy change by RFO approximation:        -0.0000000005

	Back-transformation to cartesian coordinates...
	Successfully converged to displaced geometry.
	First geometry is closer to target in internal coordinates, so am using that one.
	First geometry has RMS(Delta(q)) = 3.11e-07

	--- Internal Coordinate Step in ANG or DEG, aJ/ANG or AJ/DEG ---
	 ---------------------------------------------------------------------------
	   Coordinate                Previous        Force       Change         New 
	   ----------                --------       ------       ------       ------
	    1 R(1,2)          =      1.397966     0.000053     0.000009     1.397974
	    2 R(1,6)          =      0.938884     0.000008     0.000001     0.938886
	    3 R(2,3)          =      1.080282     0.000013     0.000003     1.080284
	    4 R(2,4)          =      1.087284     0.000015     0.000003     1.087287
	    5 R(2,5)          =      1.087287    -0.000006    -0.000001     1.087286
	    6 B(1,2,3)        =    107.240470     0.000000     0.001668   107.242138
	    7 B(1,2,4)        =    111.961037     0.000000     0.002219   111.963256
	    8 B(1,2,5)        =    111.963431    -0.000000    -0.001115   111.962316
	    9 B(2,1,6)        =    110.022009    -0.000000    -0.000923   110.021086
	   10 B(3,2,4)        =    108.413279    -0.000000     0.000020   108.413299
	   11 B(3,2,5)        =    108.414457    -0.000000    -0.001414   108.413043
	   12 B(4,2,5)        =    108.723130    -0.000000    -0.001415   108.721714
	   13 D(3,2,1,6)      =    179.994369     0.000000     0.005631   180.000000
	   14 D(4,2,1,6)      =     61.195326    -0.000000     0.003346    61.198672
	   15 D(5,2,1,6)      =    -61.203770     0.000000     0.004382   -61.199388
	 ---------------------------------------------------------------------------
	Successfully symmetrized geometry.

  ==> Convergence Check <==

  Measures of convergence in internal coordinates in au.
  Criteria marked as inactive (o), active & met (*), and active & unmet ( ).
  ---------------------------------------------------------------------------------------------
   Step     Total Energy     Delta E     MAX Force     RMS Force      MAX Disp      RMS Disp   
  ---------------------------------------------------------------------------------------------
    Convergence Criteria    1.00e-06 *    3.00e-04 *             o    1.20e-03 *             o
  ---------------------------------------------------------------------------------------------
      8    -115.06371472   -2.03e-08 *    6.40e-06 *    3.08e-06 o    9.83e-05 *    3.95e-05 o  ~
  ---------------------------------------------------------------------------------------------


  **** Optimization is complete! (in 8 steps) ****

  ==> Optimization Summary <==

  Measures of convergence in internal coordinates in au.
  --------------------------------------------------------------------------------------------------------------- ~
   Step         Total Energy             Delta E       MAX Force       RMS Force        MAX Disp        RMS Disp  ~
  --------------------------------------------------------------------------------------------------------------- ~
      1    -115.059845633521   -115.059845633521      0.03736434      0.01259195      0.11077890      0.05318962  ~
      2    -115.063450774035     -0.003605140514      0.01014601      0.00314199      0.27055004      0.11758787  ~
      3    -115.063472085272     -0.000021311237      0.00425309      0.00149311      0.32852432      0.14504580  ~
      4    -115.063173670408      0.000298414864      0.01240100      0.00466745      0.12555025      0.05591358  ~
      5    -115.063688547727     -0.000514877319      0.00250352      0.00092818      0.01404001      0.00538292  ~
      6    -115.063710223205     -0.000021675478      0.00093702      0.00041486      0.01252049      0.00533863  ~
      7    -115.063714703144     -0.000004479938      0.00003151      0.00001410      0.00183538      0.00079624  ~
      8    -115.063714723451     -0.000000020308      0.00000640      0.00000308      0.00009829      0.00003954  ~
  --------------------------------------------------------------------------------------------------------------- ~

	Writing optimization data to binary file.
	Final energy is   -115.0637147234512
	Final (previous) structure:
	Cartesian Geometry (in Angstrom)
	    O     0.6811185698   0.0305058944   0.0060623260
	    C    -0.7167400841   0.0161532822   0.0157529809
	    H    -1.0435368885   0.9505592799   0.4483006556
	    H    -1.1108475058  -0.7980188571   0.6190692592
	    H    -1.1295923318  -0.0610693368  -0.9871343244
	    H     1.0082321405  -0.7679561310  -0.3640171479
	Saving final (previous) structure.
			--------------------------
			 OPTKING Finished Execution 
			--------------------------

    Final optimized geometry and variables:
    Molecular point group: c1
    Full point group: C1

    Geometry (in Angstrom), charge = 0, multiplicity = 1:

    O            0.681118572470     0.030505894495     0.006062326037
    C           -0.716740086925     0.016153282258     0.015752980915
    H           -1.043536892634     0.950559283636     0.448300657404
    H           -1.110847510167    -0.798018860218     0.619069261639
    H           -1.129592336248    -0.061069337022    -0.987134328238
    H            1.008232144477    -0.767956134034    -0.364017149302

	Removing binary optimization data file.
	Cleaning optimization helper files.

    Psi4 stopped on: Sunday, 29 December 2019 12:31PM
    Psi4 wall time for execution: 0:00:09.27

*** Psi4 exiting successfully. Buy a developer a beer!
