
    -----------------------------------------------------------------------
          Psi4: An Open-Source Ab Initio Electronic Structure Package
                               Psi4 1.3.2 release

                         Git: Rev {HEAD} ecbda83 


    R. M. Parrish, L. A. Burns, D. G. A. Smith, A. C. Simmonett,
    A. E. DePrince III, E. G. Hohenstein, U. Bozkaya, A. Yu. Sokolov,
    R. Di Remigio, R. M. Richard, J. F. Gonthier, A. M. James,
    H. R. McAlexander, A. Kumar, M. Saitow, X. Wang, B. P. Pritchard,
    P. Verma, H. F. Schaefer III, K. Patkowski, R. A. King, E. F. Valeev,
    F. A. Evangelista, J. M. Turney, T. D. Crawford, and C. D. Sherrill,
    J. Chem. Theory Comput. 13(7) pp 3185--3197 (2017).
    (doi: 10.1021/acs.jctc.7b00174)


                         Additional Contributions by
    P. Kraus, H. Kruse, M. H. Lechner, M. C. Schieber, R. A. Shaw,
    A. Alenaizan, R. Galvelis, Z. L. Glick, S. Lehtola, and J. P. Misiewicz

    -----------------------------------------------------------------------


    Psi4 started on: Sunday, 29 December 2019 12:37PM

    Process ID: 44881
    Host:       node37.bme.utexas.edu
    PSIDATADIR: /home/bdw2292/miniconda3/envs/p4env/share/psi4
    Memory:     500.0 MiB
    Threads:    1
    
  ==> Input File <==

--------------------------------------------------------------------------
molecule { 
0 1
 O    0.705384    0.140466   -0.092313
 C   -0.730544    0.104195   -0.080908
 H   -1.097454    0.639165   -0.961069
 H   -1.081377    0.559080    0.849502
 H   -1.050596   -0.940856   -0.124179
 H    0.994351   -0.741158   -0.392569
}
set {
 basis 6-311++G(2d,2p)
 e_convergence 10 
 d_convergence 10 
 scf_type pk
 pcm true
  pcm_scf_type total 
}
pcm = {
 Units = Angstrom
 Medium {
 SolverType = IEFPCM
 Solvent = Water
 }
 Cavity {
 RadiiSet = UFF
 Type = GePol
 Scaling = False
 Area = 0.3
 Mode = Implicit
 }
}
memory 700MB
set_num_threads(1)
psi4_io.set_default_path("/scratch/bdw2292")
set freeze_core True
E, wfn = energy('mp2/6-311++G(2d,2p)',return_wfn=True)
clean()
--------------------------------------------------------------------------

  Memory set to 667.572 MiB by Python driver.
  Threads set to 1 by Python driver.

*** tstart() called on node37.bme.utexas.edu
*** at Sun Dec 29 12:37:17 2019

   => Loading Basis Set <=

    Name: 6-311++G(2D,2P)
    Role: ORBITAL
    Keyword: BASIS
    atoms 1   entry O          line   176 file /home/bdw2292/miniconda3/envs/p4env/share/psi4/basis/6-311ppg_2d_2p_.gbs 
    atoms 2   entry C          line   130 file /home/bdw2292/miniconda3/envs/p4env/share/psi4/basis/6-311ppg_2d_2p_.gbs 
    atoms 3-6 entry H          line    45 file /home/bdw2292/miniconda3/envs/p4env/share/psi4/basis/6-311ppg_2d_2p_.gbs 


         ---------------------------------------------------------
                                   SCF
               by Justin Turney, Rob Parrish, Andy Simmonett
                          and Daniel G. A. Smith
                              RHF Reference
                        1 Threads,    667 MiB Core
         ---------------------------------------------------------

  ==> Geometry <==

    Molecular point group: c1
    Full point group: C1

    Geometry (in Angstrom), charge = 0, multiplicity = 1:

       Center              X                  Y                   Z               Mass       
    ------------   -----------------  -----------------  -----------------  -----------------
         O            0.697157510721     0.046495257826     0.003879015279    15.994914619570
         C           -0.738770489279     0.010224257826     0.015284015279    12.000000000000
         H           -1.105680489279     0.545194257826    -0.864876984721     1.007825032230
         H           -1.089603489279     0.465109257826     0.945694015279     1.007825032230
         H           -1.058822489279    -1.034826742174    -0.027986984721     1.007825032230
         H            0.986124510721    -0.835128742174    -0.296376984721     1.007825032230

  Running in c1 symmetry.

  Rotational constants: A =      4.15064  B =      0.82095  C =      0.79165 [cm^-1]
  Rotational constants: A = 124432.98318  B =  24611.54615  C =  23732.96039 [MHz]
  Nuclear repulsion =   40.061492977588209

  Charge       = 0
  Multiplicity = 1
  Electrons    = 18
  Nalpha       = 9
  Nbeta        = 9

  ==> Algorithm <==

  SCF Algorithm Type is PK.
  DIIS enabled.
  MOM disabled.
  Fractional occupation disabled.
  Guess Type is SAD.
  Energy threshold   = 1.00e-10
  Density threshold  = 1.00e-10
  Integral threshold = 0.00e+00

  ==> Primary Basis <==

  Basis Set: 6-311++G(2D,2P)
    Blend: 6-311++G(2D,2P)
    Number of shells: 46
    Number of basis function: 94
    Number of Cartesian functions: 98
    Spherical Harmonics?: true
    Max angular momentum: 2

  **PSI4:PCMSOLVER Interface Active**

-----------------------------------------------------------------------
   PCMSolver: An Open Source API for the Polarizable Continuum Model
                   PCMSolver 1.2.1+fa7c826

           Git: Branch {HEAD}, Revision {fa7c826}

 R. Di Remigio, A. H. Steindal, K. Mozgawa, V. Weijo, H. Cao, and
 L. Frediani, Int. J. Quantum Chem., to be submitted

 Source repository: https://github.com/PCMSolver/pcmsolver
 Documentation: https://pcmsolver.readthedocs.io/
 PCMSolver initialized on: Sunday, 29 December 2019 12:37 PM
-----------------------------------------------------------------------

~~~~~~~~~~ PCMSolver ~~~~~~~~~~
Using CODATA 2010 set of constants.
Input parsing done API-side
========== Cavity 
Atomic radii set: 
Cavity type: GePol
Average tesserae area = 0.3 Ang^2
Solvent probe radius = 1.385 Ang
Number of spheres = 6 [initial = 6; added = 0]
Number of finite elements = 318
Number of irreducible finite elements = 318
============ Spheres list (in Angstrom)
 Sphere   on   Radius   Alpha       X            Y            Z     
-------- ---- -------- ------- -----------  -----------  -----------
   1      O    1.7500   1.00     0.697158     0.046495     0.003879
   2      C    1.9255   1.00     -0.738770     0.010224     0.015284
   3      H    1.4430   1.00     -1.105680     0.545194     -0.864877
   4      H    1.4430   1.00     -1.089603     0.465109     0.945694
   5      H    1.4430   1.00     -1.058822     -1.034827     -0.027987
   6      H    1.4430   1.00     0.986125     -0.835129     -0.296377
========== Static solver 
Solver Type: IEFPCM, isotropic
PCM matrix hermitivitized
============ Medium 
Medium initialized from solvent built-in data.
Solvent name:          Water
Static  permittivity = 78.39
Optical permittivity = 1.78
Solvent radius =       1.39 Ang
.... Inside 
Green's function type: vacuum
.... Outside 
Green's function type: uniform dielectric
Permittivity = 78.39

  PCM does not make use of molecular symmetry: further calculations in C1 point group.
  ==> Pre-Iterations <==

   -------------------------------------------------------
    Irrep   Nso     Nmo     Nalpha   Nbeta   Ndocc  Nsocc
   -------------------------------------------------------
     A         94      94       0       0       0       0
   -------------------------------------------------------
    Total      94      94       9       9       9       0
   -------------------------------------------------------

  ==> Integral Setup <==

  Using in-core PK algorithm.
   Calculation information:
      Number of atoms:                   6
      Number of AO shells:              46
      Number of primitives:             72
      Number of atomic orbitals:        98
      Number of basis functions:        94

      Integral cutoff                 1.00e-12
      Number of threads:                 1

  Performing in-core PK
  Using 19940690 doubles for integral storage.
  We computed 584409 shell quartets total.
  Whereas there are 584821 unique shell quartets.

  ==> DiskJK: Disk-Based J/K Matrices <==

    J tasked:                  Yes
    K tasked:                  Yes
    wK tasked:                  No
    Memory [MiB]:              500
    Schwarz Cutoff:          1E-12

    OpenMP threads:              1

  Minimum eigenvalue in the overlap matrix is 7.9688977830E-04.
  Using Symmetric Orthogonalization.

  SCF Guess: Superposition of Atomic Densities via on-the-fly atomic UHF.

  ==> Iterations <==

                        Total Energy        Delta E     RMS |[F,P]|

   @RHF iter SAD:  -114.34759728380089   -1.14348e+02   0.00000e+00 
   @RHF iter   1:  -115.00871921663872   -6.61122e-01   4.36993e-03 DIIS
   @RHF iter   2:  -115.06946548104634   -6.07463e-02   2.50079e-03 DIIS
   @RHF iter   3:  -115.08812688365488   -1.86614e-02   3.84256e-04 DIIS
   @RHF iter   4:  -115.08904627310112   -9.19389e-04   1.12888e-04 DIIS
   @RHF iter   5:  -115.08912749814300   -8.12250e-05   2.50249e-05 DIIS
   @RHF iter   6:  -115.08913233094485   -4.83280e-06   5.67872e-06 DIIS
   @RHF iter   7:  -115.08913270335995   -3.72415e-07   1.39913e-06 DIIS
   @RHF iter   8:  -115.08913272888577   -2.55258e-08   2.84157e-07 DIIS
   @RHF iter   9:  -115.08913272989655   -1.01078e-09   3.87205e-08 DIIS
   @RHF iter  10:  -115.08913272991634   -1.97957e-11   9.80211e-09 DIIS
   @RHF iter  11:  -115.08913272991734   -9.94760e-13   2.21835e-09 DIIS
   @RHF iter  12:  -115.08913272991779   -4.54747e-13   5.32355e-10 DIIS
   @RHF iter  13:  -115.08913272991707    7.24754e-13   1.10938e-10 DIIS
   @RHF iter  14:  -115.08913272991764   -5.68434e-13   3.90563e-11 DIIS
  Energy and wave function converged.


  ==> Post-Iterations <==

    Orbital Energies [Eh]
    ---------------------

    Doubly Occupied:                                                      

       1A    -20.562535     2A    -11.268746     3A     -1.355023  
       4A     -0.919652     5A     -0.687882     6A     -0.621393  
       7A     -0.591760     8A     -0.505557     9A     -0.454738  

    Virtual:                                                              

      10A      0.045275    11A      0.069407    12A      0.077653  
      13A      0.081073    14A      0.127744    15A      0.155530  
      16A      0.157803    17A      0.187400    18A      0.251977  
      19A      0.272452    20A      0.286149    21A      0.304847  
      22A      0.310388    23A      0.334503    24A      0.346380  
      25A      0.389624    26A      0.463236    27A      0.565349  
      28A      0.570297    29A      0.669660    30A      0.711528  
      31A      0.727475    32A      0.750706    33A      0.768448  
      34A      0.783239    35A      0.791076    36A      0.895989  
      37A      0.984077    38A      1.051943    39A      1.108963  
      40A      1.146733    41A      1.215890    42A      1.218403  
      43A      1.253283    44A      1.298582    45A      1.310490  
      46A      1.339826    47A      1.392892    48A      1.498524  
      49A      1.535006    50A      1.545759    51A      1.656224  
      52A      1.670362    53A      1.684402    54A      1.768750  
      55A      1.823820    56A      2.115702    57A      2.249930  
      58A      2.292754    59A      2.524698    60A      2.545977  
      61A      2.885523    62A      2.913991    63A      3.092456  
      64A      3.196347    65A      3.497258    66A      3.510831  
      67A      3.655731    68A      3.672658    69A      3.798887  
      70A      3.943023    71A      3.979535    72A      4.014511  
      73A      4.130299    74A      4.153682    75A      4.200073  
      76A      4.318513    77A      4.407773    78A      4.454327  
      79A      4.459779    80A      4.481208    81A      4.584916  
      82A      4.771324    83A      5.441310    84A      5.453828  
      85A      5.595301    86A      5.973094    87A      6.452955  
      88A      7.463073    89A      7.558650    90A      7.640811  
      91A      7.707266    92A      8.004130    93A     25.119876  
      94A     51.636835  

    Final Occupation by Irrep:
              A 
    DOCC [     9 ]

  @RHF Final Energy:  -115.08913272991764

   => Energetics <=

    Nuclear Repulsion Energy =             40.0614929775882089
    One-Electron Energy =                -236.4364383411204358
    Two-Electron Energy =                  81.2954334940333752
    PCM Polarization Energy =              -0.0096208604187893
    Total Energy =                       -115.0891327299176368

Computation Completed


Properties will be evaluated at   0.000000,   0.000000,   0.000000 [a0]

Properties computed using the SCF density matrix

  Nuclear Dipole Moment: [e a0]
     X:    -2.1228      Y:    -0.8057      Z:    -0.2283

  Electronic Dipole Moment: [e a0]
     X:     1.5381      Y:     0.0732      Z:     0.0030

  Dipole Moment: [e a0]
     X:    -0.5847      Y:    -0.7325      Z:    -0.2253     Total:     0.9639

  Dipole Moment: [D]
     X:    -1.4861      Y:    -1.8618      Z:    -0.5726     Total:     2.4501


*** tstop() called on node37.bme.utexas.edu at Sun Dec 29 12:37:39 2019
Module time:
	user time   =      20.07 seconds =       0.33 minutes
	system time =       0.14 seconds =       0.00 minutes
	total time  =         22 seconds =       0.37 minutes
Total time:
	user time   =      20.07 seconds =       0.33 minutes
	system time =       0.14 seconds =       0.00 minutes
	total time  =         22 seconds =       0.37 minutes

*** tstart() called on node37.bme.utexas.edu
*** at Sun Dec 29 12:37:39 2019


  //>>>>>>>>>>>>>>>>>>>>>>>>>>>>>>>>>>>//
  //               DFMP2               //
  //<<<<<<<<<<<<<<<<<<<<<<<<<<<<<<<<<<<//

   => Loading Basis Set <=

    Name: (6-311++G(2D,2P) AUX)
    Role: RIFIT
    Keyword: DF_BASIS_MP2
    atoms 1   entry O          line   264 file /home/bdw2292/miniconda3/envs/p4env/share/psi4/basis/aug-cc-pvtz-ri.gbs 
    atoms 2   entry C          line   148 file /home/bdw2292/miniconda3/envs/p4env/share/psi4/basis/aug-cc-pvtz-ri.gbs 
    atoms 3-6 entry H          line    30 file /home/bdw2292/miniconda3/envs/p4env/share/psi4/basis/aug-cc-pvtz-ri.gbs 

	 --------------------------------------------------------
	                          DF-MP2                         
	      2nd-Order Density-Fitted Moller-Plesset Theory     
	              RMP2 Wavefunction,   1 Threads             
	                                                         
	        Rob Parrish, Justin Turney, Andy Simmonett,      
	           Ed Hohenstein, and C. David Sherrill          
	 --------------------------------------------------------

   => Auxiliary Basis Set <=

  Basis Set: (6-311++G(2D,2P) AUX)
    Blend: AUG-CC-PVTZ-RI
    Number of shells: 112
    Number of basis function: 396
    Number of Cartesian functions: 492
    Spherical Harmonics?: true
    Max angular momentum: 4

	 --------------------------------------------------------
	                 NBF =    94, NAUX =   396
	 --------------------------------------------------------
	   CLASS    FOCC     OCC    AOCC    AVIR     VIR    FVIR
	   PAIRS       2       9       7      85      85       0
	 --------------------------------------------------------

	-----------------------------------------------------------
	 ==================> DF-MP2 Energies <==================== 
	-----------------------------------------------------------
	 Reference Energy          =    -115.0891327299176368 [Eh]
	 Singles Energy            =      -0.0000000000000000 [Eh]
	 Same-Spin Energy          =      -0.0930623837291643 [Eh]
	 Opposite-Spin Energy      =      -0.2991493932334044 [Eh]
	 Correlation Energy        =      -0.3922117769625688 [Eh]
	 Total Energy              =    -115.4813445068802054 [Eh]
	-----------------------------------------------------------
	 ================> DF-SCS-MP2 Energies <================== 
	-----------------------------------------------------------
	 SCS Same-Spin Scale       =       0.3333333333333333 [-]
	 SCS Opposite-Spin Scale   =       1.2000000000000000 [-]
	 SCS Same-Spin Energy      =      -0.0310207945763881 [Eh]
	 SCS Opposite-Spin Energy  =      -0.3589792718800853 [Eh]
	 SCS Correlation Energy    =      -0.3900000664564734 [Eh]
	 SCS Total Energy          =    -115.4791327963741168 [Eh]
	-----------------------------------------------------------


*** tstop() called on node37.bme.utexas.edu at Sun Dec 29 12:37:39 2019
Module time:
	user time   =       0.41 seconds =       0.01 minutes
	system time =       0.01 seconds =       0.00 minutes
	total time  =          0 seconds =       0.00 minutes
Total time:
	user time   =      20.48 seconds =       0.34 minutes
	system time =       0.15 seconds =       0.00 minutes
	total time  =         22 seconds =       0.37 minutes

    Psi4 stopped on: Sunday, 29 December 2019 12:37PM
    Psi4 wall time for execution: 0:00:21.66

*** Psi4 exiting successfully. Buy a developer a beer!
