
    -----------------------------------------------------------------------
          Psi4: An Open-Source Ab Initio Electronic Structure Package
                               Psi4 1.3.2 release

                         Git: Rev {HEAD} ecbda83 


    R. M. Parrish, L. A. Burns, D. G. A. Smith, A. C. Simmonett,
    A. E. DePrince III, E. G. Hohenstein, U. Bozkaya, A. Yu. Sokolov,
    R. Di Remigio, R. M. Richard, J. F. Gonthier, A. M. James,
    H. R. McAlexander, A. Kumar, M. Saitow, X. Wang, B. P. Pritchard,
    P. Verma, H. F. Schaefer III, K. Patkowski, R. A. King, E. F. Valeev,
    F. A. Evangelista, J. M. Turney, T. D. Crawford, and C. D. Sherrill,
    J. Chem. Theory Comput. 13(7) pp 3185--3197 (2017).
    (doi: 10.1021/acs.jctc.7b00174)


                         Additional Contributions by
    P. Kraus, H. Kruse, M. H. Lechner, M. C. Schieber, R. A. Shaw,
    A. Alenaizan, R. Galvelis, Z. L. Glick, S. Lehtola, and J. P. Misiewicz

    -----------------------------------------------------------------------


    Psi4 started on: Sunday, 29 December 2019 12:33PM

    Process ID: 44692
    Host:       node37.bme.utexas.edu
    PSIDATADIR: /home/bdw2292/miniconda3/envs/p4env/share/psi4
    Memory:     500.0 MiB
    Threads:    1
    
  ==> Input File <==

--------------------------------------------------------------------------
molecule { 
0 1
 O    0.698561    0.045532    0.015638
 C   -0.736761    0.031930    0.009941
 H   -1.081086   -0.741225    0.702101
 H   -1.079853   -0.154751   -1.011273
 H   -1.083293    1.013798    0.345775
 H    0.971182   -0.840526   -0.287455
}
set {
 basis 6-311++G(2d,2p)
 e_convergence 10 
 d_convergence 10 
 scf_type pk
 pcm true
  pcm_scf_type total 
}
pcm = {
 Units = Angstrom
 Medium {
 SolverType = IEFPCM
 Solvent = Water
 }
 Cavity {
 RadiiSet = UFF
 Type = GePol
 Scaling = False
 Area = 0.3
 Mode = Implicit
 }
}
memory 700MB
set_num_threads(1)
psi4_io.set_default_path("/scratch/bdw2292")
set freeze_core True
E, wfn = energy('mp2/6-311++G(2d,2p)',return_wfn=True)
clean()
--------------------------------------------------------------------------

  Memory set to 667.572 MiB by Python driver.
  Threads set to 1 by Python driver.

*** tstart() called on node37.bme.utexas.edu
*** at Sun Dec 29 12:33:20 2019

   => Loading Basis Set <=

    Name: 6-311++G(2D,2P)
    Role: ORBITAL
    Keyword: BASIS
    atoms 1   entry O          line   176 file /home/bdw2292/miniconda3/envs/p4env/share/psi4/basis/6-311ppg_2d_2p_.gbs 
    atoms 2   entry C          line   130 file /home/bdw2292/miniconda3/envs/p4env/share/psi4/basis/6-311ppg_2d_2p_.gbs 
    atoms 3-6 entry H          line    45 file /home/bdw2292/miniconda3/envs/p4env/share/psi4/basis/6-311ppg_2d_2p_.gbs 


         ---------------------------------------------------------
                                   SCF
               by Justin Turney, Rob Parrish, Andy Simmonett
                          and Daniel G. A. Smith
                              RHF Reference
                        1 Threads,    667 MiB Core
         ---------------------------------------------------------

  ==> Geometry <==

    Molecular point group: c1
    Full point group: C1

    Geometry (in Angstrom), charge = 0, multiplicity = 1:

       Center              X                  Y                   Z               Mass       
    ------------   -----------------  -----------------  -----------------  -----------------
         O            0.697266595951     0.033570509285     0.011997059266    15.994914619570
         C           -0.738055404049     0.019968509285     0.006300059266    12.000000000000
         H           -1.082380404049    -0.753186490715     0.698460059266     1.007825032230
         H           -1.081147404049    -0.166712490715    -1.014913940734     1.007825032230
         H           -1.084587404049     1.001836509285     0.342134059266     1.007825032230
         H            0.969887595951    -0.852487490715    -0.291095940734     1.007825032230

  Running in c1 symmetry.

  Rotational constants: A =      4.14527  B =      0.82257  C =      0.79310 [cm^-1]
  Rotational constants: A = 124271.93311  B =  24660.10749  C =  23776.67873 [MHz]
  Nuclear repulsion =   40.079802192016039

  Charge       = 0
  Multiplicity = 1
  Electrons    = 18
  Nalpha       = 9
  Nbeta        = 9

  ==> Algorithm <==

  SCF Algorithm Type is PK.
  DIIS enabled.
  MOM disabled.
  Fractional occupation disabled.
  Guess Type is SAD.
  Energy threshold   = 1.00e-10
  Density threshold  = 1.00e-10
  Integral threshold = 0.00e+00

  ==> Primary Basis <==

  Basis Set: 6-311++G(2D,2P)
    Blend: 6-311++G(2D,2P)
    Number of shells: 46
    Number of basis function: 94
    Number of Cartesian functions: 98
    Spherical Harmonics?: true
    Max angular momentum: 2

  **PSI4:PCMSOLVER Interface Active**

-----------------------------------------------------------------------
   PCMSolver: An Open Source API for the Polarizable Continuum Model
                   PCMSolver 1.2.1+fa7c826

           Git: Branch {HEAD}, Revision {fa7c826}

 R. Di Remigio, A. H. Steindal, K. Mozgawa, V. Weijo, H. Cao, and
 L. Frediani, Int. J. Quantum Chem., to be submitted

 Source repository: https://github.com/PCMSolver/pcmsolver
 Documentation: https://pcmsolver.readthedocs.io/
 PCMSolver initialized on: Sunday, 29 December 2019 12:33 PM
-----------------------------------------------------------------------

~~~~~~~~~~ PCMSolver ~~~~~~~~~~
Using CODATA 2010 set of constants.
Input parsing done API-side
========== Cavity 
Atomic radii set: 
Cavity type: GePol
Average tesserae area = 0.3 Ang^2
Solvent probe radius = 1.385 Ang
Number of spheres = 6 [initial = 6; added = 0]
Number of finite elements = 316
Number of irreducible finite elements = 316
============ Spheres list (in Angstrom)
 Sphere   on   Radius   Alpha       X            Y            Z     
-------- ---- -------- ------- -----------  -----------  -----------
   1      O    1.7500   1.00     0.697267     0.033571     0.011997
   2      C    1.9255   1.00     -0.738055     0.019969     0.006300
   3      H    1.4430   1.00     -1.082380     -0.753186     0.698460
   4      H    1.4430   1.00     -1.081147     -0.166712     -1.014914
   5      H    1.4430   1.00     -1.084587     1.001837     0.342134
   6      H    1.4430   1.00     0.969888     -0.852487     -0.291096
========== Static solver 
Solver Type: IEFPCM, isotropic
PCM matrix hermitivitized
============ Medium 
Medium initialized from solvent built-in data.
Solvent name:          Water
Static  permittivity = 78.39
Optical permittivity = 1.78
Solvent radius =       1.39 Ang
.... Inside 
Green's function type: vacuum
.... Outside 
Green's function type: uniform dielectric
Permittivity = 78.39

  PCM does not make use of molecular symmetry: further calculations in C1 point group.
  ==> Pre-Iterations <==

   -------------------------------------------------------
    Irrep   Nso     Nmo     Nalpha   Nbeta   Ndocc  Nsocc
   -------------------------------------------------------
     A         94      94       0       0       0       0
   -------------------------------------------------------
    Total      94      94       9       9       9       0
   -------------------------------------------------------

  ==> Integral Setup <==

  Using in-core PK algorithm.
   Calculation information:
      Number of atoms:                   6
      Number of AO shells:              46
      Number of primitives:             72
      Number of atomic orbitals:        98
      Number of basis functions:        94

      Integral cutoff                 1.00e-12
      Number of threads:                 1

  Performing in-core PK
  Using 19940690 doubles for integral storage.
  We computed 584416 shell quartets total.
  Whereas there are 584821 unique shell quartets.

  ==> DiskJK: Disk-Based J/K Matrices <==

    J tasked:                  Yes
    K tasked:                  Yes
    wK tasked:                  No
    Memory [MiB]:              500
    Schwarz Cutoff:          1E-12

    OpenMP threads:              1

  Minimum eigenvalue in the overlap matrix is 8.4675229486E-04.
  Using Symmetric Orthogonalization.

  SCF Guess: Superposition of Atomic Densities via on-the-fly atomic UHF.

  ==> Iterations <==

                        Total Energy        Delta E     RMS |[F,P]|

   @RHF iter SAD:  -114.34816883167721   -1.14348e+02   0.00000e+00 
   @RHF iter   1:  -115.01011104276726   -6.61942e-01   4.36350e-03 DIIS
   @RHF iter   2:  -115.07093690049767   -6.08259e-02   2.49355e-03 DIIS
   @RHF iter   3:  -115.08950302707814   -1.85661e-02   3.85845e-04 DIIS
   @RHF iter   4:  -115.09044125224089   -9.38225e-04   1.14449e-04 DIIS
   @RHF iter   5:  -115.09052599691267   -8.47447e-05   2.58192e-05 DIIS
   @RHF iter   6:  -115.09053129655179   -5.29964e-06   6.00224e-06 DIIS
   @RHF iter   7:  -115.09053172369893   -4.27147e-07   1.47050e-06 DIIS
   @RHF iter   8:  -115.09053175169602   -2.79971e-08   2.90810e-07 DIIS
   @RHF iter   9:  -115.09053175272203   -1.02601e-09   3.81396e-08 DIIS
   @RHF iter  10:  -115.09053175274077   -1.87441e-11   9.50529e-09 DIIS
   @RHF iter  11:  -115.09053175274163   -8.52651e-13   2.25531e-09 DIIS
   @RHF iter  12:  -115.09053175274168   -5.68434e-14   5.48758e-10 DIIS
   @RHF iter  13:  -115.09053175274181   -1.27898e-13   1.06909e-10 DIIS
   @RHF iter  14:  -115.09053175274165    1.56319e-13   3.67544e-11 DIIS
  Energy and wave function converged.


  ==> Post-Iterations <==

    Orbital Energies [Eh]
    ---------------------

    Doubly Occupied:                                                      

       1A    -20.563282     2A    -11.268674     3A     -1.355734  
       4A     -0.919651     5A     -0.685840     6A     -0.622731  
       7A     -0.592324     8A     -0.506758     9A     -0.454787  

    Virtual:                                                              

      10A      0.045298    11A      0.068560    12A      0.077496  
      13A      0.081642    14A      0.126443    15A      0.156726  
      16A      0.159415    17A      0.187582    18A      0.265832  
      19A      0.282919    20A      0.286595    21A      0.294063  
      22A      0.305306    23A      0.320769    24A      0.344389  
      25A      0.387132    26A      0.461844    27A      0.565238  
      28A      0.571865    29A      0.681164    30A      0.731889  
      31A      0.740090    32A      0.757552    33A      0.780759  
      34A      0.781438    35A      0.794446    36A      0.881993  
      37A      0.949946    38A      1.049961    39A      1.053752  
      40A      1.150795    41A      1.207615    42A      1.215809  
      43A      1.289736    44A      1.305038    45A      1.341101  
      46A      1.348495    47A      1.409051    48A      1.510498  
      49A      1.534496    50A      1.555921    51A      1.639091  
      52A      1.668601    53A      1.697212    54A      1.777852  
      55A      1.812956    56A      2.105175    57A      2.238511  
      58A      2.251726    59A      2.538070    60A      2.549008  
      61A      2.891249    62A      2.935864    63A      3.102951  
      64A      3.268291    65A      3.507275    66A      3.540324  
      67A      3.656823    68A      3.663091    69A      3.700314  
      70A      3.944952    71A      3.976058    72A      3.999637  
      73A      4.131525    74A      4.166319    75A      4.259722  
      76A      4.308834    77A      4.416623    78A      4.455639  
      79A      4.457170    80A      4.493706    81A      4.575641  
      82A      4.773722    83A      5.437429    84A      5.450387  
      85A      5.590713    86A      5.976477    87A      6.448327  
      88A      7.463185    89A      7.560452    90A      7.611527  
      91A      7.724230    92A      8.010779    93A     25.114359  
      94A     51.633226  

    Final Occupation by Irrep:
              A 
    DOCC [     9 ]

  @RHF Final Energy:  -115.09053175274165

   => Energetics <=

    Nuclear Repulsion Energy =             40.0798021920160394
    One-Electron Energy =                -236.4689582375212353
    Two-Electron Energy =                  81.3081987413732747
    PCM Polarization Energy =              -0.0095744486097334
    Total Energy =                       -115.0905317527416543

Computation Completed


Properties will be evaluated at   0.000000,   0.000000,   0.000000 [a0]

Properties computed using the SCF density matrix

  Nuclear Dipole Moment: [e a0]
     X:    -2.1324      Y:    -0.7222      Z:    -0.2488

  Electronic Dipole Moment: [e a0]
     X:     1.5351      Y:     0.0300      Z:     0.0114

  Dipole Moment: [e a0]
     X:    -0.5973      Y:    -0.6922      Z:    -0.2374     Total:     0.9446

  Dipole Moment: [D]
     X:    -1.5181      Y:    -1.7594      Z:    -0.6033     Total:     2.4009


*** tstop() called on node37.bme.utexas.edu at Sun Dec 29 12:33:41 2019
Module time:
	user time   =      19.89 seconds =       0.33 minutes
	system time =       0.11 seconds =       0.00 minutes
	total time  =         21 seconds =       0.35 minutes
Total time:
	user time   =      19.89 seconds =       0.33 minutes
	system time =       0.11 seconds =       0.00 minutes
	total time  =         21 seconds =       0.35 minutes

*** tstart() called on node37.bme.utexas.edu
*** at Sun Dec 29 12:33:41 2019


  //>>>>>>>>>>>>>>>>>>>>>>>>>>>>>>>>>>>//
  //               DFMP2               //
  //<<<<<<<<<<<<<<<<<<<<<<<<<<<<<<<<<<<//

   => Loading Basis Set <=

    Name: (6-311++G(2D,2P) AUX)
    Role: RIFIT
    Keyword: DF_BASIS_MP2
    atoms 1   entry O          line   264 file /home/bdw2292/miniconda3/envs/p4env/share/psi4/basis/aug-cc-pvtz-ri.gbs 
    atoms 2   entry C          line   148 file /home/bdw2292/miniconda3/envs/p4env/share/psi4/basis/aug-cc-pvtz-ri.gbs 
    atoms 3-6 entry H          line    30 file /home/bdw2292/miniconda3/envs/p4env/share/psi4/basis/aug-cc-pvtz-ri.gbs 

	 --------------------------------------------------------
	                          DF-MP2                         
	      2nd-Order Density-Fitted Moller-Plesset Theory     
	              RMP2 Wavefunction,   1 Threads             
	                                                         
	        Rob Parrish, Justin Turney, Andy Simmonett,      
	           Ed Hohenstein, and C. David Sherrill          
	 --------------------------------------------------------

   => Auxiliary Basis Set <=

  Basis Set: (6-311++G(2D,2P) AUX)
    Blend: AUG-CC-PVTZ-RI
    Number of shells: 112
    Number of basis function: 396
    Number of Cartesian functions: 492
    Spherical Harmonics?: true
    Max angular momentum: 4

	 --------------------------------------------------------
	                 NBF =    94, NAUX =   396
	 --------------------------------------------------------
	   CLASS    FOCC     OCC    AOCC    AVIR     VIR    FVIR
	   PAIRS       2       9       7      85      85       0
	 --------------------------------------------------------

	-----------------------------------------------------------
	 ==================> DF-MP2 Energies <==================== 
	-----------------------------------------------------------
	 Reference Energy          =    -115.0905317527416543 [Eh]
	 Singles Energy            =      -0.0000000000000000 [Eh]
	 Same-Spin Energy          =      -0.0930141386364654 [Eh]
	 Opposite-Spin Energy      =      -0.2990779287251285 [Eh]
	 Correlation Energy        =      -0.3920920673615939 [Eh]
	 Total Energy              =    -115.4826238201032425 [Eh]
	-----------------------------------------------------------
	 ================> DF-SCS-MP2 Energies <================== 
	-----------------------------------------------------------
	 SCS Same-Spin Scale       =       0.3333333333333333 [-]
	 SCS Opposite-Spin Scale   =       1.2000000000000000 [-]
	 SCS Same-Spin Energy      =      -0.0310047128788218 [Eh]
	 SCS Opposite-Spin Energy  =      -0.3588935144701541 [Eh]
	 SCS Correlation Energy    =      -0.3898982273489759 [Eh]
	 SCS Total Energy          =    -115.4804299800906335 [Eh]
	-----------------------------------------------------------


*** tstop() called on node37.bme.utexas.edu at Sun Dec 29 12:33:41 2019
Module time:
	user time   =       0.41 seconds =       0.01 minutes
	system time =       0.02 seconds =       0.00 minutes
	total time  =          0 seconds =       0.00 minutes
Total time:
	user time   =      20.30 seconds =       0.34 minutes
	system time =       0.13 seconds =       0.00 minutes
	total time  =         21 seconds =       0.35 minutes

    Psi4 stopped on: Sunday, 29 December 2019 12:33PM
    Psi4 wall time for execution: 0:00:21.19

*** Psi4 exiting successfully. Buy a developer a beer!
