
    -----------------------------------------------------------------------
          Psi4: An Open-Source Ab Initio Electronic Structure Package
                               Psi4 1.3.2 release

                         Git: Rev {HEAD} ecbda83 


    R. M. Parrish, L. A. Burns, D. G. A. Smith, A. C. Simmonett,
    A. E. DePrince III, E. G. Hohenstein, U. Bozkaya, A. Yu. Sokolov,
    R. Di Remigio, R. M. Richard, J. F. Gonthier, A. M. James,
    H. R. McAlexander, A. Kumar, M. Saitow, X. Wang, B. P. Pritchard,
    P. Verma, H. F. Schaefer III, K. Patkowski, R. A. King, E. F. Valeev,
    F. A. Evangelista, J. M. Turney, T. D. Crawford, and C. D. Sherrill,
    J. Chem. Theory Comput. 13(7) pp 3185--3197 (2017).
    (doi: 10.1021/acs.jctc.7b00174)


                         Additional Contributions by
    P. Kraus, H. Kruse, M. H. Lechner, M. C. Schieber, R. A. Shaw,
    A. Alenaizan, R. Galvelis, Z. L. Glick, S. Lehtola, and J. P. Misiewicz

    -----------------------------------------------------------------------


    Psi4 started on: Sunday, 29 December 2019 12:34PM

    Process ID: 44726
    Host:       node37.bme.utexas.edu
    PSIDATADIR: /home/bdw2292/miniconda3/envs/p4env/share/psi4
    Memory:     500.0 MiB
    Threads:    1
    
  ==> Input File <==

--------------------------------------------------------------------------
molecule { 
0 1
 O    0.707385    0.072303    0.191652
 C   -0.728205    0.040952    0.153218
 H   -1.105588    0.204639    1.166307
 H   -1.054693   -0.922165   -0.248021
 H   -1.063214    0.847629   -0.505465
 H    1.003361   -0.815900   -0.080978
}
set {
 basis 6-311++G(2d,2p)
 e_convergence 10 
 d_convergence 10 
 scf_type pk
 pcm true
  pcm_scf_type total 
}
pcm = {
 Units = Angstrom
 Medium {
 SolverType = IEFPCM
 Solvent = Water
 }
 Cavity {
 RadiiSet = UFF
 Type = GePol
 Scaling = False
 Area = 0.3
 Mode = Implicit
 }
}
memory 700MB
set_num_threads(1)
psi4_io.set_default_path("/scratch/bdw2292")
set freeze_core True
E, wfn = energy('mp2/6-311++G(2d,2p)',return_wfn=True)
clean()
--------------------------------------------------------------------------

  Memory set to 667.572 MiB by Python driver.
  Threads set to 1 by Python driver.

*** tstart() called on node37.bme.utexas.edu
*** at Sun Dec 29 12:34:03 2019

   => Loading Basis Set <=

    Name: 6-311++G(2D,2P)
    Role: ORBITAL
    Keyword: BASIS
    atoms 1   entry O          line   176 file /home/bdw2292/miniconda3/envs/p4env/share/psi4/basis/6-311ppg_2d_2p_.gbs 
    atoms 2   entry C          line   130 file /home/bdw2292/miniconda3/envs/p4env/share/psi4/basis/6-311ppg_2d_2p_.gbs 
    atoms 3-6 entry H          line    45 file /home/bdw2292/miniconda3/envs/p4env/share/psi4/basis/6-311ppg_2d_2p_.gbs 


         ---------------------------------------------------------
                                   SCF
               by Justin Turney, Rob Parrish, Andy Simmonett
                          and Daniel G. A. Smith
                              RHF Reference
                        1 Threads,    667 MiB Core
         ---------------------------------------------------------

  ==> Geometry <==

    Molecular point group: c1
    Full point group: C1

    Geometry (in Angstrom), charge = 0, multiplicity = 1:

       Center              X                  Y                   Z               Mass       
    ------------   -----------------  -----------------  -----------------  -----------------
         O            0.696812534265     0.042429318841     0.028082464856    15.994914619570
         C           -0.738777465735     0.011078318841    -0.010351535144    12.000000000000
         H           -1.116160465735     0.174765318841     1.002737464856     1.007825032230
         H           -1.065265465735    -0.952038681159    -0.411590535144     1.007825032230
         H           -1.073786465735     0.817755318841    -0.669034535144     1.007825032230
         H            0.992788534265    -0.845773681159    -0.244547535144     1.007825032230

  Running in c1 symmetry.

  Rotational constants: A =      4.15254  B =      0.82193  C =      0.79036 [cm^-1]
  Rotational constants: A = 124489.90607  B =  24640.88949  C =  23694.45400 [MHz]
  Nuclear repulsion =   40.059543735448550

  Charge       = 0
  Multiplicity = 1
  Electrons    = 18
  Nalpha       = 9
  Nbeta        = 9

  ==> Algorithm <==

  SCF Algorithm Type is PK.
  DIIS enabled.
  MOM disabled.
  Fractional occupation disabled.
  Guess Type is SAD.
  Energy threshold   = 1.00e-10
  Density threshold  = 1.00e-10
  Integral threshold = 0.00e+00

  ==> Primary Basis <==

  Basis Set: 6-311++G(2D,2P)
    Blend: 6-311++G(2D,2P)
    Number of shells: 46
    Number of basis function: 94
    Number of Cartesian functions: 98
    Spherical Harmonics?: true
    Max angular momentum: 2

  **PSI4:PCMSOLVER Interface Active**

-----------------------------------------------------------------------
   PCMSolver: An Open Source API for the Polarizable Continuum Model
                   PCMSolver 1.2.1+fa7c826

           Git: Branch {HEAD}, Revision {fa7c826}

 R. Di Remigio, A. H. Steindal, K. Mozgawa, V. Weijo, H. Cao, and
 L. Frediani, Int. J. Quantum Chem., to be submitted

 Source repository: https://github.com/PCMSolver/pcmsolver
 Documentation: https://pcmsolver.readthedocs.io/
 PCMSolver initialized on: Sunday, 29 December 2019 12:34 PM
-----------------------------------------------------------------------

~~~~~~~~~~ PCMSolver ~~~~~~~~~~
Using CODATA 2010 set of constants.
Input parsing done API-side
========== Cavity 
Atomic radii set: 
Cavity type: GePol
Average tesserae area = 0.3 Ang^2
Solvent probe radius = 1.385 Ang
Number of spheres = 6 [initial = 6; added = 0]
Number of finite elements = 316
Number of irreducible finite elements = 316
============ Spheres list (in Angstrom)
 Sphere   on   Radius   Alpha       X            Y            Z     
-------- ---- -------- ------- -----------  -----------  -----------
   1      O    1.7500   1.00     0.696813     0.042429     0.028082
   2      C    1.9255   1.00     -0.738777     0.011078     -0.010352
   3      H    1.4430   1.00     -1.116160     0.174765     1.002737
   4      H    1.4430   1.00     -1.065265     -0.952039     -0.411591
   5      H    1.4430   1.00     -1.073786     0.817755     -0.669035
   6      H    1.4430   1.00     0.992789     -0.845774     -0.244548
========== Static solver 
Solver Type: IEFPCM, isotropic
PCM matrix hermitivitized
============ Medium 
Medium initialized from solvent built-in data.
Solvent name:          Water
Static  permittivity = 78.39
Optical permittivity = 1.78
Solvent radius =       1.39 Ang
.... Inside 
Green's function type: vacuum
.... Outside 
Green's function type: uniform dielectric
Permittivity = 78.39

  PCM does not make use of molecular symmetry: further calculations in C1 point group.
  ==> Pre-Iterations <==

   -------------------------------------------------------
    Irrep   Nso     Nmo     Nalpha   Nbeta   Ndocc  Nsocc
   -------------------------------------------------------
     A         94      94       0       0       0       0
   -------------------------------------------------------
    Total      94      94       9       9       9       0
   -------------------------------------------------------

  ==> Integral Setup <==

  Using in-core PK algorithm.
   Calculation information:
      Number of atoms:                   6
      Number of AO shells:              46
      Number of primitives:             72
      Number of atomic orbitals:        98
      Number of basis functions:        94

      Integral cutoff                 1.00e-12
      Number of threads:                 1

  Performing in-core PK
  Using 19940690 doubles for integral storage.
  We computed 584418 shell quartets total.
  Whereas there are 584821 unique shell quartets.

  ==> DiskJK: Disk-Based J/K Matrices <==

    J tasked:                  Yes
    K tasked:                  Yes
    wK tasked:                  No
    Memory [MiB]:              500
    Schwarz Cutoff:          1E-12

    OpenMP threads:              1

  Minimum eigenvalue in the overlap matrix is 7.8784137288E-04.
  Using Symmetric Orthogonalization.

  SCF Guess: Superposition of Atomic Densities via on-the-fly atomic UHF.

  ==> Iterations <==

                        Total Energy        Delta E     RMS |[F,P]|

   @RHF iter SAD:  -114.34720084007354   -1.14347e+02   0.00000e+00 
   @RHF iter   1:  -115.00857933028014   -6.61378e-01   4.37037e-03 DIIS
   @RHF iter   2:  -115.06932846602581   -6.07491e-02   2.50097e-03 DIIS
   @RHF iter   3:  -115.08798895489757   -1.86605e-02   3.84061e-04 DIIS
   @RHF iter   4:  -115.08890549455013   -9.16540e-04   1.12717e-04 DIIS
   @RHF iter   5:  -115.08898627869014   -8.07841e-05   2.48936e-05 DIIS
   @RHF iter   6:  -115.08899102537239   -4.74668e-06   5.60366e-06 DIIS
   @RHF iter   7:  -115.08899138613154   -3.60759e-07   1.37747e-06 DIIS
   @RHF iter   8:  -115.08899141091383   -2.47823e-08   2.81148e-07 DIIS
   @RHF iter   9:  -115.08899141190794   -9.94106e-10   3.78936e-08 DIIS
   @RHF iter  10:  -115.08899141192636   -1.84173e-11   9.49832e-09 DIIS
   @RHF iter  11:  -115.08899141192774   -1.37845e-12   2.12850e-09 DIIS
   @RHF iter  12:  -115.08899141192758    1.56319e-13   5.15105e-10 DIIS
   @RHF iter  13:  -115.08899141192781   -2.27374e-13   1.05160e-10 DIIS
   @RHF iter  14:  -115.08899141192795   -1.42109e-13   3.69966e-11 DIIS
  Energy and wave function converged.


  ==> Post-Iterations <==

    Orbital Energies [Eh]
    ---------------------

    Doubly Occupied:                                                      

       1A    -20.562531     2A    -11.268700     3A     -1.355017  
       4A     -0.919781     5A     -0.688349     6A     -0.619354  
       7A     -0.592469     8A     -0.507488     9A     -0.453461  

    Virtual:                                                              

      10A      0.045293    11A      0.069337    12A      0.078100  
      13A      0.080649    14A      0.128073    15A      0.155031  
      16A      0.157930    17A      0.187411    18A      0.248960  
      19A      0.273052    20A      0.286494    21A      0.305201  
      22A      0.310320    23A      0.335626    24A      0.347958  
      25A      0.390572    26A      0.463591    27A      0.565127  
      28A      0.571289    29A      0.668715    30A      0.705641  
      31A      0.721378    32A      0.751324    33A      0.769206  
      34A      0.782586    35A      0.790543    36A      0.905238  
      37A      0.982568    38A      1.054249    39A      1.122143  
      40A      1.148278    41A      1.217642    42A      1.223241  
      43A      1.229598    44A      1.296275    45A      1.305835  
      46A      1.347053    47A      1.390426    48A      1.498708  
      49A      1.533490    50A      1.545085    51A      1.657934  
      52A      1.667044    53A      1.684212    54A      1.767804  
      55A      1.823711    56A      2.113046    57A      2.243065  
      58A      2.310433    59A      2.524965    60A      2.548101  
      61A      2.888264    62A      2.899506    63A      3.088413  
      64A      3.192378    65A      3.498220    66A      3.510292  
      67A      3.654114    68A      3.668274    69A      3.816344  
      70A      3.948821    71A      3.973712    72A      4.016905  
      73A      4.119327    74A      4.155822    75A      4.194865  
      76A      4.319996    77A      4.411443    78A      4.450245  
      79A      4.452334    80A      4.480187    81A      4.594122  
      82A      4.771159    83A      5.438105    84A      5.459904  
      85A      5.594653    86A      5.971668    87A      6.456413  
      88A      7.457798    89A      7.563162    90A      7.646037  
      91A      7.703676    92A      8.004088    93A     25.120870  
      94A     51.637274  

    Final Occupation by Irrep:
              A 
    DOCC [     9 ]

  @RHF Final Energy:  -115.08899141192795

   => Energetics <=

    Nuclear Repulsion Energy =             40.0595437354485497
    One-Electron Energy =                -236.4330581439567140
    Two-Electron Energy =                  81.2941176323493977
    PCM Polarization Energy =              -0.0095946357691831
    Total Energy =                       -115.0889914119279496

Computation Completed


Properties will be evaluated at   0.000000,   0.000000,   0.000000 [a0]

Properties computed using the SCF density matrix

  Nuclear Dipole Moment: [e a0]
     X:    -2.1176      Y:    -0.7547      Z:    -0.3021

  Electronic Dipole Moment: [e a0]
     X:     1.5401      Y:     0.0246      Z:     0.0563

  Dipole Moment: [e a0]
     X:    -0.5775      Y:    -0.7302      Z:    -0.2458     Total:     0.9629

  Dipole Moment: [D]
     X:    -1.4679      Y:    -1.8559      Z:    -0.6248     Total:     2.4474


*** tstop() called on node37.bme.utexas.edu at Sun Dec 29 12:34:24 2019
Module time:
	user time   =      19.49 seconds =       0.32 minutes
	system time =       0.14 seconds =       0.00 minutes
	total time  =         21 seconds =       0.35 minutes
Total time:
	user time   =      19.49 seconds =       0.32 minutes
	system time =       0.14 seconds =       0.00 minutes
	total time  =         21 seconds =       0.35 minutes

*** tstart() called on node37.bme.utexas.edu
*** at Sun Dec 29 12:34:24 2019


  //>>>>>>>>>>>>>>>>>>>>>>>>>>>>>>>>>>>//
  //               DFMP2               //
  //<<<<<<<<<<<<<<<<<<<<<<<<<<<<<<<<<<<//

   => Loading Basis Set <=

    Name: (6-311++G(2D,2P) AUX)
    Role: RIFIT
    Keyword: DF_BASIS_MP2
    atoms 1   entry O          line   264 file /home/bdw2292/miniconda3/envs/p4env/share/psi4/basis/aug-cc-pvtz-ri.gbs 
    atoms 2   entry C          line   148 file /home/bdw2292/miniconda3/envs/p4env/share/psi4/basis/aug-cc-pvtz-ri.gbs 
    atoms 3-6 entry H          line    30 file /home/bdw2292/miniconda3/envs/p4env/share/psi4/basis/aug-cc-pvtz-ri.gbs 

	 --------------------------------------------------------
	                          DF-MP2                         
	      2nd-Order Density-Fitted Moller-Plesset Theory     
	              RMP2 Wavefunction,   1 Threads             
	                                                         
	        Rob Parrish, Justin Turney, Andy Simmonett,      
	           Ed Hohenstein, and C. David Sherrill          
	 --------------------------------------------------------

   => Auxiliary Basis Set <=

  Basis Set: (6-311++G(2D,2P) AUX)
    Blend: AUG-CC-PVTZ-RI
    Number of shells: 112
    Number of basis function: 396
    Number of Cartesian functions: 492
    Spherical Harmonics?: true
    Max angular momentum: 4

	 --------------------------------------------------------
	                 NBF =    94, NAUX =   396
	 --------------------------------------------------------
	   CLASS    FOCC     OCC    AOCC    AVIR     VIR    FVIR
	   PAIRS       2       9       7      85      85       0
	 --------------------------------------------------------

	-----------------------------------------------------------
	 ==================> DF-MP2 Energies <==================== 
	-----------------------------------------------------------
	 Reference Energy          =    -115.0889914119279496 [Eh]
	 Singles Energy            =      -0.0000000000000000 [Eh]
	 Same-Spin Energy          =      -0.0930720949844825 [Eh]
	 Opposite-Spin Energy      =      -0.2991643771488670 [Eh]
	 Correlation Energy        =      -0.3922364721333494 [Eh]
	 Total Energy              =    -115.4812278840612976 [Eh]
	-----------------------------------------------------------
	 ================> DF-SCS-MP2 Energies <================== 
	-----------------------------------------------------------
	 SCS Same-Spin Scale       =       0.3333333333333333 [-]
	 SCS Opposite-Spin Scale   =       1.2000000000000000 [-]
	 SCS Same-Spin Energy      =      -0.0310240316614942 [Eh]
	 SCS Opposite-Spin Energy  =      -0.3589972525786403 [Eh]
	 SCS Correlation Energy    =      -0.3900212842401345 [Eh]
	 SCS Total Energy          =    -115.4790126961680841 [Eh]
	-----------------------------------------------------------


*** tstop() called on node37.bme.utexas.edu at Sun Dec 29 12:34:24 2019
Module time:
	user time   =       0.38 seconds =       0.01 minutes
	system time =       0.02 seconds =       0.00 minutes
	total time  =          0 seconds =       0.00 minutes
Total time:
	user time   =      19.87 seconds =       0.33 minutes
	system time =       0.16 seconds =       0.00 minutes
	total time  =         21 seconds =       0.35 minutes

    Psi4 stopped on: Sunday, 29 December 2019 12:34PM
    Psi4 wall time for execution: 0:00:20.70

*** Psi4 exiting successfully. Buy a developer a beer!
