ModifiedRes Gaussian SP Calculation on g2-node38.bme.utexas.edu         
FOpt      RMP2-FC                                                     6-31G(d)            
Number of atoms                            I               18
Info1-9                                    I   N=           9
          29          29           0           0           0         100
           2           2           1
Charge                                     I                0
Multiplicity                               I                1
Number of electrons                        I               90
Number of alpha electrons                  I               45
Number of beta electrons                   I               45
Number of basis functions                  I              183
Number of independent functions            I              183
Number of point charges in /Mol/           I                0
Number of translation vectors              I                0
Atomic numbers                             I   N=          18
           6           8           7           1           6           1
           6           8           1           1           6          16
           6           7           7           1           1           1
Nuclear charges                            R   N=          18
  6.00000000E+00  8.00000000E+00  7.00000000E+00  1.00000000E+00  6.00000000E+00
  1.00000000E+00  6.00000000E+00  8.00000000E+00  1.00000000E+00  1.00000000E+00
  6.00000000E+00  1.60000000E+01  6.00000000E+00  7.00000000E+00  7.00000000E+00
  1.00000000E+00  1.00000000E+00  1.00000000E+00
Current cartesian coordinates              R   N=          54
  3.62456428E+00 -3.39178477E+00  8.74453112E-01  4.87154737E+00 -3.38362512E+00
 -1.09380239E+00  1.76208308E+00 -1.70035191E+00  1.40823325E+00  1.03199936E+00
 -1.65735382E+00  3.18137670E+00  1.10693070E+00  3.15989458E-01 -3.54341626E-01
  1.32624213E+00 -4.78325472E-01 -2.25386596E+00  2.90707654E+00  2.57820968E+00
 -4.27045726E-02  2.26302032E+00  4.50651045E+00  1.08951281E+00 -1.79809346E+00
  2.07592060E+00  1.90625849E+00 -2.10805323E+00  2.55884403E+00 -1.39026925E+00
 -1.59663318E+00  1.18244599E+00  5.82350479E-02 -3.66744466E+00 -1.58056111E+00
 -1.88335124E-01 -6.46865909E+00 -2.00276254E-02 -2.42033855E-01 -8.45640718E+00
  1.01490536E+00 -2.82864631E-01  5.20108508E+00  2.20949689E+00 -1.12883514E+00
  3.89693445E+00 -4.81414435E+00  2.37019274E+00  5.70479029E+00  4.54127648E-01
 -1.72051462E+00  6.56175096E+00  3.50947775E+00 -7.82882456E-01
Force Field                                I                0
Int Atom Types                             I   N=          18
           0           0           0           0           0           0
           0           0           0           0           0           0
           0           0           0           0           0           0
MM charges                                 R   N=          18
  0.00000000E+00  0.00000000E+00  0.00000000E+00  0.00000000E+00  0.00000000E+00
  0.00000000E+00  0.00000000E+00  0.00000000E+00  0.00000000E+00  0.00000000E+00
  0.00000000E+00  0.00000000E+00  0.00000000E+00  0.00000000E+00  0.00000000E+00
  0.00000000E+00  0.00000000E+00  0.00000000E+00
Integer atomic weights                     I   N=          18
          12          16          14           1          12           1
          12          16           1           1          12          32
          12          14          14           1           1           1
Real atomic weights                        R   N=          18
  1.20000000E+01  1.59949146E+01  1.40030740E+01  1.00782504E+00  1.20000000E+01
  1.00782504E+00  1.20000000E+01  1.59949146E+01  1.00782504E+00  1.00782504E+00
  1.20000000E+01  3.19720718E+01  1.20000000E+01  1.40030740E+01  1.40030740E+01
  1.00782504E+00  1.00782504E+00  1.00782504E+00
Atom fragment info                         I   N=          18
           0           0           0           0           0           0
           0           0           0           0           0           0
           0           0           0           0           0           0
Atom residue num                           I   N=          18
           0           0           0           0           0           0
           0           0           0           0           0           0
           0           0           0           0           0           0
Nuclear spins                              I   N=          18
           0           0           2           1           0           1
           0           0           1           1           0           0
           0           2           2           1           1           1
Nuclear ZEff                               R   N=          18
 -3.60000000E+00 -5.60000000E+00 -4.55000000E+00 -1.00000000E+00 -3.60000000E+00
 -1.00000000E+00 -3.60000000E+00 -5.60000000E+00 -1.00000000E+00 -1.00000000E+00
 -3.60000000E+00 -1.36000000E+01 -3.60000000E+00 -4.55000000E+00 -4.55000000E+00
 -1.00000000E+00 -1.00000000E+00 -1.00000000E+00
Nuclear QMom                               R   N=          18
  0.00000000E+00  0.00000000E+00  2.04400000E+00  0.00000000E+00  0.00000000E+00
  0.00000000E+00  0.00000000E+00  0.00000000E+00  0.00000000E+00  0.00000000E+00
  0.00000000E+00  0.00000000E+00  0.00000000E+00  2.04400000E+00  2.04400000E+00
  0.00000000E+00  0.00000000E+00  0.00000000E+00
Nuclear GFac                               R   N=          18
  0.00000000E+00  0.00000000E+00  4.03761000E-01  2.79284600E+00  0.00000000E+00
  2.79284600E+00  0.00000000E+00  0.00000000E+00  2.79284600E+00  2.79284600E+00
  0.00000000E+00  0.00000000E+00  0.00000000E+00  4.03761000E-01  4.03761000E-01
  2.79284600E+00  2.79284600E+00  2.79284600E+00
MicOpt                                     I   N=          18
          -1          -1          -1          -1          -1          -1
          -1          -1          -1          -1          -1          -1
          -1          -1          -1          -1          -1          -1
Number of contracted shells                I               59
Number of primitive shells                 I              155
Pure/Cartesian d shells                    I                1
Pure/Cartesian f shells                    I                0
Highest angular momentum                   I                2
Largest degree of contraction              I                6
Shell types                                I   N=          59
           0          -1          -1           2           0          -1
          -1           2           0          -1          -1           2
           0           0           0          -1          -1           2
           0           0           0          -1          -1           2
           0          -1          -1           2           0           0
           0           0           0          -1          -1           2
           0          -1          -1          -1           2           0
          -1          -1           2           0          -1          -1
           2           0          -1          -1           2           0
           0           0           0           0           0
Number of primitives per shell             I   N=          59
           6           3           1           1           6           3
           1           1           6           3           1           1
           3           1           6           3           1           1
           3           1           6           3           1           1
           6           3           1           1           3           1
           3           1           6           3           1           1
           6           6           3           1           1           6
           3           1           1           6           3           1
           1           6           3           1           1           3
           1           3           1           3           1
Shell to atom map                          I   N=          59
           1           1           1           1           2           2
           2           2           3           3           3           3
           4           4           5           5           5           5
           6           6           7           7           7           7
           8           8           8           8           9           9
          10          10          11          11          11          11
          12          12          12          12          12          13
          13          13          13          14          14          14
          14          15          15          15          15          16
          16          17          17          18          18
Primitive exponents                        R   N=         155
  3.04752488E+03  4.57369518E+02  1.03948685E+02  2.92101553E+01  9.28666296E+00
  3.16392696E+00  7.86827235E+00  1.88128854E+00  5.44249258E-01  1.68714478E-01
  8.00000000E-01  5.48467166E+03  8.25234946E+02  1.88046958E+02  5.29645000E+01
  1.68975704E+01  5.79963534E+00  1.55396162E+01  3.59993359E+00  1.01376175E+00
  2.70005823E-01  8.00000000E-01  4.17351146E+03  6.27457911E+02  1.42902093E+02
  4.02343293E+01  1.28202129E+01  4.39043701E+00  1.16263619E+01  2.71627981E+00
  7.72218397E-01  2.12031498E-01  8.00000000E-01  1.87311370E+01  2.82539436E+00
  6.40121692E-01  1.61277759E-01  3.04752488E+03  4.57369518E+02  1.03948685E+02
  2.92101553E+01  9.28666296E+00  3.16392696E+00  7.86827235E+00  1.88128854E+00
  5.44249258E-01  1.68714478E-01  8.00000000E-01  1.87311370E+01  2.82539436E+00
  6.40121692E-01  1.61277759E-01  3.04752488E+03  4.57369518E+02  1.03948685E+02
  2.92101553E+01  9.28666296E+00  3.16392696E+00  7.86827235E+00  1.88128854E+00
  5.44249258E-01  1.68714478E-01  8.00000000E-01  5.48467166E+03  8.25234946E+02
  1.88046958E+02  5.29645000E+01  1.68975704E+01  5.79963534E+00  1.55396162E+01
  3.59993359E+00  1.01376175E+00  2.70005823E-01  8.00000000E-01  1.87311370E+01
  2.82539436E+00  6.40121692E-01  1.61277759E-01  1.87311370E+01  2.82539436E+00
  6.40121692E-01  1.61277759E-01  3.04752488E+03  4.57369518E+02  1.03948685E+02
  2.92101553E+01  9.28666296E+00  3.16392696E+00  7.86827235E+00  1.88128854E+00
  5.44249258E-01  1.68714478E-01  8.00000000E-01  2.19171000E+04  3.30149000E+03
  7.54146000E+02  2.12711000E+02  6.79896000E+01  2.30515000E+01  4.23735000E+02
  1.00710000E+02  3.21599000E+01  1.18079000E+01  4.63110000E+00  1.87025000E+00
  2.61584000E+00  9.22167000E-01  3.41287000E-01  1.17167000E-01  6.50000000E-01
  3.04752488E+03  4.57369518E+02  1.03948685E+02  2.92101553E+01  9.28666296E+00
  3.16392696E+00  7.86827235E+00  1.88128854E+00  5.44249258E-01  1.68714478E-01
  8.00000000E-01  4.17351146E+03  6.27457911E+02  1.42902093E+02  4.02343293E+01
  1.28202129E+01  4.39043701E+00  1.16263619E+01  2.71627981E+00  7.72218397E-01
  2.12031498E-01  8.00000000E-01  4.17351146E+03  6.27457911E+02  1.42902093E+02
  4.02343293E+01  1.28202129E+01  4.39043701E+00  1.16263619E+01  2.71627981E+00
  7.72218397E-01  2.12031498E-01  8.00000000E-01  1.87311370E+01  2.82539436E+00
  6.40121692E-01  1.61277759E-01  1.87311370E+01  2.82539436E+00  6.40121692E-01
  1.61277759E-01  1.87311370E+01  2.82539436E+00  6.40121692E-01  1.61277759E-01
Contraction coefficients                   R   N=         155
  1.83473713E-03  1.40373228E-02  6.88426223E-02  2.32184443E-01  4.67941348E-01
  3.62311985E-01 -1.19332420E-01 -1.60854152E-01  1.14345644E+00  1.00000000E+00
  1.00000000E+00  1.83107443E-03  1.39501722E-02  6.84450781E-02  2.32714336E-01
  4.70192898E-01  3.58520853E-01 -1.10777550E-01 -1.48026263E-01  1.13076702E+00
  1.00000000E+00  1.00000000E+00  1.83477216E-03  1.39946270E-02  6.85865518E-02
  2.32240873E-01  4.69069948E-01  3.60455199E-01 -1.14961182E-01 -1.69117479E-01
  1.14585195E+00  1.00000000E+00  1.00000000E+00  3.34946043E-02  2.34726953E-01
  8.13757326E-01  1.00000000E+00  1.83473713E-03  1.40373228E-02  6.88426223E-02
  2.32184443E-01  4.67941348E-01  3.62311985E-01 -1.19332420E-01 -1.60854152E-01
  1.14345644E+00  1.00000000E+00  1.00000000E+00  3.34946043E-02  2.34726953E-01
  8.13757326E-01  1.00000000E+00  1.83473713E-03  1.40373228E-02  6.88426223E-02
  2.32184443E-01  4.67941348E-01  3.62311985E-01 -1.19332420E-01 -1.60854152E-01
  1.14345644E+00  1.00000000E+00  1.00000000E+00  1.83107443E-03  1.39501722E-02
  6.84450781E-02  2.32714336E-01  4.70192898E-01  3.58520853E-01 -1.10777550E-01
 -1.48026263E-01  1.13076702E+00  1.00000000E+00  1.00000000E+00  3.34946043E-02
  2.34726953E-01  8.13757326E-01  1.00000000E+00  3.34946043E-02  2.34726953E-01
  8.13757326E-01  1.00000000E+00  1.83473713E-03  1.40373228E-02  6.88426223E-02
  2.32184443E-01  4.67941348E-01  3.62311985E-01 -1.19332420E-01 -1.60854152E-01
  1.14345644E+00  1.00000000E+00  1.00000000E+00  1.86924085E-03  1.42303065E-02
  6.96962317E-02  2.38487108E-01  4.83307220E-01  3.38074154E-01 -2.37677050E-03
 -3.16930067E-02 -1.13317024E-01  5.60900118E-02  5.92255124E-01  4.55006095E-01
 -2.50373114E-01  6.69567631E-02  1.05450627E+00  1.00000000E+00  1.00000000E+00
  1.83473713E-03  1.40373228E-02  6.88426223E-02  2.32184443E-01  4.67941348E-01
  3.62311985E-01 -1.19332420E-01 -1.60854152E-01  1.14345644E+00  1.00000000E+00
  1.00000000E+00  1.83477216E-03  1.39946270E-02  6.85865518E-02  2.32240873E-01
  4.69069948E-01  3.60455199E-01 -1.14961182E-01 -1.69117479E-01  1.14585195E+00
  1.00000000E+00  1.00000000E+00  1.83477216E-03  1.39946270E-02  6.85865518E-02
  2.32240873E-01  4.69069948E-01  3.60455199E-01 -1.14961182E-01 -1.69117479E-01
  1.14585195E+00  1.00000000E+00  1.00000000E+00  3.34946043E-02  2.34726953E-01
  8.13757326E-01  1.00000000E+00  3.34946043E-02  2.34726953E-01  8.13757326E-01
  1.00000000E+00  3.34946043E-02  2.34726953E-01  8.13757326E-01  1.00000000E+00
P(S=P) Contraction coefficients            R   N=         155
  0.00000000E+00  0.00000000E+00  0.00000000E+00  0.00000000E+00  0.00000000E+00
  0.00000000E+00  6.89990666E-02  3.16423961E-01  7.44308291E-01  1.00000000E+00
  0.00000000E+00  0.00000000E+00  0.00000000E+00  0.00000000E+00  0.00000000E+00
  0.00000000E+00  0.00000000E+00  7.08742682E-02  3.39752839E-01  7.27158577E-01
  1.00000000E+00  0.00000000E+00  0.00000000E+00  0.00000000E+00  0.00000000E+00
  0.00000000E+00  0.00000000E+00  0.00000000E+00  6.75797439E-02  3.23907296E-01
  7.40895140E-01  1.00000000E+00  0.00000000E+00  0.00000000E+00  0.00000000E+00
  0.00000000E+00  0.00000000E+00  0.00000000E+00  0.00000000E+00  0.00000000E+00
  0.00000000E+00  0.00000000E+00  0.00000000E+00  6.89990666E-02  3.16423961E-01
  7.44308291E-01  1.00000000E+00  0.00000000E+00  0.00000000E+00  0.00000000E+00
  0.00000000E+00  0.00000000E+00  0.00000000E+00  0.00000000E+00  0.00000000E+00
  0.00000000E+00  0.00000000E+00  0.00000000E+00  6.89990666E-02  3.16423961E-01
  7.44308291E-01  1.00000000E+00  0.00000000E+00  0.00000000E+00  0.00000000E+00
  0.00000000E+00  0.00000000E+00  0.00000000E+00  0.00000000E+00  7.08742682E-02
  3.39752839E-01  7.27158577E-01  1.00000000E+00  0.00000000E+00  0.00000000E+00
  0.00000000E+00  0.00000000E+00  0.00000000E+00  0.00000000E+00  0.00000000E+00
  0.00000000E+00  0.00000000E+00  0.00000000E+00  0.00000000E+00  0.00000000E+00
  0.00000000E+00  0.00000000E+00  0.00000000E+00  6.89990666E-02  3.16423961E-01
  7.44308291E-01  1.00000000E+00  0.00000000E+00  0.00000000E+00  0.00000000E+00
  0.00000000E+00  0.00000000E+00  0.00000000E+00  0.00000000E+00  4.06100998E-03
  3.06812999E-02  1.30451999E-01  3.27204999E-01  4.52850998E-01  2.56041999E-01
 -1.45104895E-02  3.10262776E-01  7.54482456E-01  1.00000000E+00  0.00000000E+00
  0.00000000E+00  0.00000000E+00  0.00000000E+00  0.00000000E+00  0.00000000E+00
  0.00000000E+00  6.89990666E-02  3.16423961E-01  7.44308291E-01  1.00000000E+00
  0.00000000E+00  0.00000000E+00  0.00000000E+00  0.00000000E+00  0.00000000E+00
  0.00000000E+00  0.00000000E+00  6.75797439E-02  3.23907296E-01  7.40895140E-01
  1.00000000E+00  0.00000000E+00  0.00000000E+00  0.00000000E+00  0.00000000E+00
  0.00000000E+00  0.00000000E+00  0.00000000E+00  6.75797439E-02  3.23907296E-01
  7.40895140E-01  1.00000000E+00  0.00000000E+00  0.00000000E+00  0.00000000E+00
  0.00000000E+00  0.00000000E+00  0.00000000E+00  0.00000000E+00  0.00000000E+00
  0.00000000E+00  0.00000000E+00  0.00000000E+00  0.00000000E+00  0.00000000E+00
Coordinates of each shell                  R   N=         177
  3.62456428E+00 -3.39178477E+00  8.74453112E-01  3.62456428E+00 -3.39178477E+00
  8.74453112E-01  3.62456428E+00 -3.39178477E+00  8.74453112E-01  3.62456428E+00
 -3.39178477E+00  8.74453112E-01  4.87154737E+00 -3.38362512E+00 -1.09380239E+00
  4.87154737E+00 -3.38362512E+00 -1.09380239E+00  4.87154737E+00 -3.38362512E+00
 -1.09380239E+00  4.87154737E+00 -3.38362512E+00 -1.09380239E+00  1.76208308E+00
 -1.70035191E+00  1.40823325E+00  1.76208308E+00 -1.70035191E+00  1.40823325E+00
  1.76208308E+00 -1.70035191E+00  1.40823325E+00  1.76208308E+00 -1.70035191E+00
  1.40823325E+00  1.03199936E+00 -1.65735382E+00  3.18137670E+00  1.03199936E+00
 -1.65735382E+00  3.18137670E+00  1.10693070E+00  3.15989458E-01 -3.54341626E-01
  1.10693070E+00  3.15989458E-01 -3.54341626E-01  1.10693070E+00  3.15989458E-01
 -3.54341626E-01  1.10693070E+00  3.15989458E-01 -3.54341626E-01  1.32624213E+00
 -4.78325472E-01 -2.25386596E+00  1.32624213E+00 -4.78325472E-01 -2.25386596E+00
  2.90707654E+00  2.57820968E+00 -4.27045726E-02  2.90707654E+00  2.57820968E+00
 -4.27045726E-02  2.90707654E+00  2.57820968E+00 -4.27045726E-02  2.90707654E+00
  2.57820968E+00 -4.27045726E-02  2.26302032E+00  4.50651045E+00  1.08951281E+00
  2.26302032E+00  4.50651045E+00  1.08951281E+00  2.26302032E+00  4.50651045E+00
  1.08951281E+00  2.26302032E+00  4.50651045E+00  1.08951281E+00 -1.79809346E+00
  2.07592060E+00  1.90625849E+00 -1.79809346E+00  2.07592060E+00  1.90625849E+00
 -2.10805323E+00  2.55884403E+00 -1.39026925E+00 -2.10805323E+00  2.55884403E+00
 -1.39026925E+00 -1.59663318E+00  1.18244599E+00  5.82350479E-02 -1.59663318E+00
  1.18244599E+00  5.82350479E-02 -1.59663318E+00  1.18244599E+00  5.82350479E-02
 -1.59663318E+00  1.18244599E+00  5.82350479E-02 -3.66744466E+00 -1.58056111E+00
 -1.88335124E-01 -3.66744466E+00 -1.58056111E+00 -1.88335124E-01 -3.66744466E+00
 -1.58056111E+00 -1.88335124E-01 -3.66744466E+00 -1.58056111E+00 -1.88335124E-01
 -3.66744466E+00 -1.58056111E+00 -1.88335124E-01 -6.46865909E+00 -2.00276254E-02
 -2.42033855E-01 -6.46865909E+00 -2.00276254E-02 -2.42033855E-01 -6.46865909E+00
 -2.00276254E-02 -2.42033855E-01 -6.46865909E+00 -2.00276254E-02 -2.42033855E-01
 -8.45640718E+00  1.01490536E+00 -2.82864631E-01 -8.45640718E+00  1.01490536E+00
 -2.82864631E-01 -8.45640718E+00  1.01490536E+00 -2.82864631E-01 -8.45640718E+00
  1.01490536E+00 -2.82864631E-01  5.20108508E+00  2.20949689E+00 -1.12883514E+00
  5.20108508E+00  2.20949689E+00 -1.12883514E+00  5.20108508E+00  2.20949689E+00
 -1.12883514E+00  5.20108508E+00  2.20949689E+00 -1.12883514E+00  3.89693445E+00
 -4.81414435E+00  2.37019274E+00  3.89693445E+00 -4.81414435E+00  2.37019274E+00
  5.70479029E+00  4.54127648E-01 -1.72051462E+00  5.70479029E+00  4.54127648E-01
 -1.72051462E+00  6.56175096E+00  3.50947775E+00 -7.82882456E-01  6.56175096E+00
  3.50947775E+00 -7.82882456E-01
Constraint Structure                       R   N=          54
  3.23146338E+00 -3.50982093E+00  7.83116542E-01  5.26601650E+00 -3.60371002E+00
 -3.46551986E-01  1.43825137E+00 -1.79267009E+00  2.44923856E-01 -2.47549345E-01
 -2.02575386E+00  1.06565004E+00  1.72296828E+00  3.49053599E-01 -1.40425989E+00
  2.80855708E+00 -3.52466416E-01 -2.78192339E+00  3.07323362E+00  2.49975302E+00
 -1.40907311E-01  4.04473846E+00  4.18677492E+00 -1.41315881E+00 -1.54154030E+00
  2.06899547E+00  1.17459055E+00 -2.32607187E+00  2.42767938E+00 -2.09600050E+00
 -1.57179880E+00  1.14743649E+00 -6.67342411E-01 -3.56821214E+00 -1.61616224E+00
 -5.05771814E-01 -6.30642298E+00  1.44606232E-01  2.10246318E-01 -8.11325244E+00
  1.28177618E+00  6.79931033E-01  2.98999805E+00  2.62006176E+00  2.39877264E+00
  2.89010297E+00 -4.80302302E+00  2.20174514E+00  2.20170216E+00  1.24362188E+00
  3.37009564E+00  3.71851393E+00  4.08467790E+00  3.28536571E+00
Num ILSW                                   I              100
ILSW                                       I   N=         100
           0           1           0           0           2           0
           0           0           0           0           0 13421772800
           0           0           0           0           0           0
           0           0           0           0           1           0
           1           0           0           0           0           0
           0           0      100000           0          -1           0
           0           0           0           0           0           0
           0           0           0           1           0           0
           0           0           1           0           0           0
           0           0           4          40           0           0
           0           0           0           0           0           0
           0           0           0           0           0           0
           0           0           0           0           0           0
           0           0           0           0           0           0
           0           0           0           0           0           0
           0           0           0           0           0           0
           0           0           0           0
Num RLSW                                   I               40
RLSW                                       R   N=          40
  1.00000000E+00  1.00000000E+00  1.00000000E+00  1.00000000E+00  1.00000000E+00
  0.00000000E+00  0.00000000E+00  1.00000000E+00  0.00000000E+00  0.00000000E+00
  0.00000000E+00  0.00000000E+00  1.00000000E+00  0.00000000E+00  0.00000000E+00
  0.00000000E+00  0.00000000E+00  1.00000000E+00  0.00000000E+00  0.00000000E+00
  0.00000000E+00  0.00000000E+00  1.00000000E+00  0.00000000E+00  0.00000000E+00
  0.00000000E+00  0.00000000E+00  1.00000000E+00  0.00000000E+00  0.00000000E+00
  0.00000000E+00  0.00000000E+00  0.00000000E+00  0.00000000E+00  0.00000000E+00
  0.00000000E+00  0.00000000E+00  0.00000000E+00  1.00000000E+00  1.00000000E+00
MxBond                                     I                3
NBond                                      I   N=          18
           3           1           3           1           3           1
           3           1           1           1           3           2
           2           1           3           1           1           1
IBond                                      I   N=          54
           2           3          16           1           0           0
           1           4           5           3           0           0
           3           6           7           5           0           0
           5           8          15           7           0           0
          11           0           0          11           0           0
           9          10          12          11          13           0
          12          14           0          13           0           0
           7          17          18           1           0           0
          15           0           0          15           0           0
RBond                                      R   N=          54
  2.00000000E+00  1.41000000E+00  1.00000000E+00  2.00000000E+00  0.00000000E+00
  0.00000000E+00  1.41000000E+00  1.00000000E+00  1.00000000E+00  1.00000000E+00
  0.00000000E+00  0.00000000E+00  1.00000000E+00  1.00000000E+00  1.00000000E+00
  1.00000000E+00  0.00000000E+00  0.00000000E+00  1.00000000E+00  2.00000000E+00
  1.41000000E+00  2.00000000E+00  0.00000000E+00  0.00000000E+00  1.00000000E+00
  0.00000000E+00  0.00000000E+00  1.00000000E+00  0.00000000E+00  0.00000000E+00
  1.00000000E+00  1.00000000E+00  1.00000000E+00  1.00000000E+00  1.00000000E+00
  0.00000000E+00  1.00000000E+00  3.00000000E+00  0.00000000E+00  3.00000000E+00
  0.00000000E+00  0.00000000E+00  1.41000000E+00  1.00000000E+00  1.00000000E+00
  1.00000000E+00  0.00000000E+00  0.00000000E+00  1.00000000E+00  0.00000000E+00
  0.00000000E+00  1.00000000E+00  0.00000000E+00  0.00000000E+00
Virial Ratio                               R      2.002021953262165E+00
SCF Energy                                 R     -9.039991904868253E+02
MP2 Energy                                 R     -9.056035767253428E+02
Total Energy                               R     -9.056035767253428E+02
Post-SCF wavefunction norm                 R      1.240829982409103E+00
RMS Force                                  R      1.088730617185888E-05
RMS Density                                R      6.089895679748837E-09
External E-field                           R   N=          35
  0.00000000E+00  0.00000000E+00  0.00000000E+00  0.00000000E+00  0.00000000E+00
  0.00000000E+00  0.00000000E+00  0.00000000E+00  0.00000000E+00  0.00000000E+00
  0.00000000E+00  0.00000000E+00  0.00000000E+00  0.00000000E+00  0.00000000E+00
  0.00000000E+00  0.00000000E+00  0.00000000E+00  0.00000000E+00  0.00000000E+00
  0.00000000E+00  0.00000000E+00  0.00000000E+00  0.00000000E+00  0.00000000E+00
  0.00000000E+00  0.00000000E+00  0.00000000E+00  0.00000000E+00  0.00000000E+00
  0.00000000E+00  0.00000000E+00  0.00000000E+00  0.00000000E+00  0.00000000E+00
IOpCl                                      I                0
IROHF                                      I                0
Alpha Orbital Energies                     R   N=         183
 -9.20142419E+01 -2.05752081E+01 -2.05499450E+01 -1.56434426E+01 -1.56028296E+01
 -1.56011682E+01 -1.13981685E+01 -1.13790658E+01 -1.13264838E+01 -1.13139483E+01
 -1.13070538E+01 -9.02348501E+00 -6.70656768E+00 -6.70461266E+00 -6.70259981E+00
 -1.41717871E+00 -1.39411613E+00 -1.28387262E+00 -1.22458992E+00 -1.22018711E+00
 -1.12390979E+00 -1.03481803E+00 -9.12452013E-01 -8.72981792E-01 -8.13825508E-01
 -7.61546249E-01 -7.54212387E-01 -7.13518464E-01 -6.97321386E-01 -6.70692803E-01
 -6.40190692E-01 -6.22047448E-01 -6.16754907E-01 -5.86678523E-01 -5.76899172E-01
 -5.64655636E-01 -5.58542211E-01 -5.32856799E-01 -5.13193915E-01 -4.73866326E-01
 -4.65003906E-01 -4.53168847E-01 -4.27047567E-01 -4.18554121E-01 -3.85302857E-01
  1.21237310E-01  1.44745711E-01  1.65695535E-01  1.81685071E-01  1.97190665E-01
  2.06452558E-01  2.19371431E-01  2.29115961E-01  2.40456149E-01  2.66782753E-01
  2.75448250E-01  2.92811578E-01  3.27617661E-01  3.43547693E-01  3.74642914E-01
  3.91340076E-01  4.28305911E-01  4.39754798E-01  4.67871129E-01  4.99385158E-01
  5.10864055E-01  5.29995978E-01  5.68487519E-01  5.90320375E-01  6.50375923E-01
  6.95921749E-01  7.09249623E-01  7.36806552E-01  7.52647506E-01  7.67306094E-01
  7.82983135E-01  8.05430702E-01  8.14017350E-01  8.54771214E-01  8.69805599E-01
  8.84846493E-01  8.97079773E-01  9.02981840E-01  9.10015970E-01  9.30567732E-01
  9.60458693E-01  9.81862385E-01  9.94520401E-01  1.01417037E+00  1.01760956E+00
  1.04109428E+00  1.04954173E+00  1.07016610E+00  1.08273039E+00  1.09437553E+00
  1.11020824E+00  1.11230697E+00  1.11926259E+00  1.12953905E+00  1.14256860E+00
  1.15385959E+00  1.17736977E+00  1.18496880E+00  1.24251008E+00  1.24686697E+00
  1.26406104E+00  1.29607431E+00  1.31463028E+00  1.35548976E+00  1.37094202E+00
  1.39746712E+00  1.43717848E+00  1.44910579E+00  1.46344474E+00  1.49464503E+00
  1.50907727E+00  1.60850783E+00  1.63304983E+00  1.64553690E+00  1.64797440E+00
  1.70383770E+00  1.71170016E+00  1.75248113E+00  1.78357550E+00  1.79627844E+00
  1.80753531E+00  1.83254945E+00  1.88278767E+00  1.88969137E+00  1.90279332E+00
  1.94204683E+00  1.99596696E+00  2.03501664E+00  2.05896369E+00  2.10318038E+00
  2.12091873E+00  2.14069628E+00  2.16550157E+00  2.19160221E+00  2.22889348E+00
  2.24337487E+00  2.25197063E+00  2.26156812E+00  2.28417800E+00  2.29649669E+00
  2.36015368E+00  2.42664168E+00  2.44613905E+00  2.46890920E+00  2.51026470E+00
  2.53133372E+00  2.58330376E+00  2.61137971E+00  2.66791239E+00  2.73706809E+00
  2.76498283E+00  2.80189947E+00  2.86403297E+00  2.90129174E+00  2.90653539E+00
  2.92539709E+00  2.93779391E+00  2.95374884E+00  3.00364527E+00  3.04955116E+00
  3.12087363E+00  3.19158176E+00  3.26381667E+00  3.33804165E+00  3.35173406E+00
  3.40781899E+00  3.44350294E+00  4.20551434E+00  4.23328370E+00  4.27067679E+00
  4.32461246E+00  4.36458181E+00  4.52818993E+00  4.57051639E+00  4.64249008E+00
  4.68969330E+00  4.81963186E+00  4.99087498E+00
Alpha MO coefficients                      R   N=       33489
  4.46578361E-06  7.46864720E-06 -2.15053034E-05  5.12528086E-06 -4.05894163E-06
 -1.54337524E-04  1.15979402E-05 -7.02311933E-05  9.80375831E-05  1.96434239E-05
  1.08412052E-05  4.32767813E-06  5.17839146E-06  7.54431032E-06 -1.92177519E-06
 -6.79181357E-06 -2.79549979E-05  6.27064223E-06 -2.68847601E-08  3.60225150E-07
  1.75165088E-04 -5.29327821E-05  7.94681292E-06  3.28342075E-05 -1.27727231E-05
 -2.53941307E-05 -1.90515329E-05 -3.63059080E-07 -5.25712250E-06  2.10982266E-06
  3.94132579E-06  2.82506162E-05 -4.16925328E-06 -9.04395488E-06 -1.12163544E-05
 -3.44745261E-05  8.68242191E-05  1.75811575E-05  8.30079587E-05 -1.67252293E-05
  1.53588623E-05  7.31615863E-06 -1.45260699E-06 -5.11996799E-06  2.41909631E-06
  2.34383118E-05 -1.24657596E-04 -1.80630962E-06  2.61346071E-05  1.91670308E-05
  1.24812512E-05  8.66032609E-06 -2.09883678E-04  2.29720225E-04 -2.02819475E-04
 -1.21489910E-04 -4.24191166E-05 -1.37727649E-05 -1.43511908E-05 -1.44147327E-06
 -3.16887180E-06 -8.34644603E-06  1.18417123E-05 -1.97579979E-04 -2.30453310E-06
 -7.24933404E-06  2.83148454E-06  4.35443593E-06  6.57451769E-06  1.08363017E-04