ModifiedRes Gaussian SP Calculation on bme-nova.bme.utexas.edu          
FOpt      RMP2-FC                                                     6-31G(d)            
Number of atoms                            I               18
Info1-9                                    I   N=           9
          30          29           0           0           0         100
           2           2           1
Charge                                     I                0
Multiplicity                               I                1
Number of electrons                        I               90
Number of alpha electrons                  I               45
Number of beta electrons                   I               45
Number of basis functions                  I              183
Number of independent functions            I              183
Number of point charges in /Mol/           I                0
Number of translation vectors              I                0
Atomic numbers                             I   N=          18
           7           1           6           1           6           8
           6          16           6           7           1           1
           6           8           7           1           1           1
Nuclear charges                            R   N=          18
  7.00000000E+00  1.00000000E+00  6.00000000E+00  1.00000000E+00  6.00000000E+00
  8.00000000E+00  6.00000000E+00  1.60000000E+01  6.00000000E+00  7.00000000E+00
  1.00000000E+00  1.00000000E+00  6.00000000E+00  8.00000000E+00  7.00000000E+00
  1.00000000E+00  1.00000000E+00  1.00000000E+00
Current cartesian coordinates              R   N=          54
  1.76223857E+00 -1.70064461E+00  1.40791714E+00  1.03214967E+00 -1.65754257E+00
  3.18106051E+00  1.10691174E+00  3.15926469E-01 -3.54147876E-01  1.32565760E+00
 -4.77972375E-01 -2.25393688E+00  2.90698837E+00  2.57830183E+00 -4.25399949E-02
  2.26288093E+00  4.50647431E+00  1.08990233E+00 -1.59664597E+00  1.18221580E+00
  5.89796120E-02 -3.66748275E+00 -1.58062491E+00 -1.87521801E-01 -6.46864488E+00
 -2.00132420E-02 -2.42433125E-01 -8.45637819E+00  1.01491447E+00 -2.84182406E-01
 -1.79791839E+00  2.07584379E+00  1.90695007E+00 -2.10778375E+00  2.55873229E+00
 -1.38952537E+00  3.62480187E+00 -3.39192496E+00  8.74045437E-01  4.87188004E+00
 -3.38344248E+00 -1.09416198E+00  5.20072051E+00  2.20995324E+00 -1.12921731E+00
  3.89712659E+00 -4.81449350E+00  2.36958694E+00  5.70439251E+00  4.54687494E-01
 -1.72122740E+00  6.56147902E+00  3.50989179E+00 -7.83528079E-01
Force Field                                I                0
Int Atom Types                             I   N=          18
           0           0           0           0           0           0
           0           0           0           0           0           0
           0           0           0           0           0           0
MM charges                                 R   N=          18
  0.00000000E+00  0.00000000E+00  0.00000000E+00  0.00000000E+00  0.00000000E+00
  0.00000000E+00  0.00000000E+00  0.00000000E+00  0.00000000E+00  0.00000000E+00
  0.00000000E+00  0.00000000E+00  0.00000000E+00  0.00000000E+00  0.00000000E+00
  0.00000000E+00  0.00000000E+00  0.00000000E+00
Integer atomic weights                     I   N=          18
          14           1          12           1          12          16
          12          32          12          14           1           1
          12          16          14           1           1           1
Real atomic weights                        R   N=          18
  1.40030740E+01  1.00782504E+00  1.20000000E+01  1.00782504E+00  1.20000000E+01
  1.59949146E+01  1.20000000E+01  3.19720718E+01  1.20000000E+01  1.40030740E+01
  1.00782504E+00  1.00782504E+00  1.20000000E+01  1.59949146E+01  1.40030740E+01
  1.00782504E+00  1.00782504E+00  1.00782504E+00
Atom fragment info                         I   N=          18
           0           0           0           0           0           0
           0           0           0           0           0           0
           0           0           0           0           0           0
Atom residue num                           I   N=          18
           0           0           0           0           0           0
           0           0           0           0           0           0
           0           0           0           0           0           0
Nuclear spins                              I   N=          18
           2           1           0           1           0           0
           0           0           0           2           1           1
           0           0           2           1           1           1
Nuclear ZEff                               R   N=          18
 -4.55000000E+00 -1.00000000E+00 -3.60000000E+00 -1.00000000E+00 -3.60000000E+00
 -5.60000000E+00 -3.60000000E+00 -1.36000000E+01 -3.60000000E+00 -4.55000000E+00
 -1.00000000E+00 -1.00000000E+00 -3.60000000E+00 -5.60000000E+00 -4.55000000E+00
 -1.00000000E+00 -1.00000000E+00 -1.00000000E+00
Nuclear QMom                               R   N=          18
  2.04400000E+00  0.00000000E+00  0.00000000E+00  0.00000000E+00  0.00000000E+00
  0.00000000E+00  0.00000000E+00  0.00000000E+00  0.00000000E+00  2.04400000E+00
  0.00000000E+00  0.00000000E+00  0.00000000E+00  0.00000000E+00  2.04400000E+00
  0.00000000E+00  0.00000000E+00  0.00000000E+00
Nuclear GFac                               R   N=          18
  4.03761000E-01  2.79284600E+00  0.00000000E+00  2.79284600E+00  0.00000000E+00
  0.00000000E+00  0.00000000E+00  0.00000000E+00  0.00000000E+00  4.03761000E-01
  2.79284600E+00  2.79284600E+00  0.00000000E+00  0.00000000E+00  4.03761000E-01
  2.79284600E+00  2.79284600E+00  2.79284600E+00
MicOpt                                     I   N=          18
          -1          -1          -1          -1          -1          -1
          -1          -1          -1          -1          -1          -1
          -1          -1          -1          -1          -1          -1
Number of contracted shells                I               59
Number of primitive shells                 I              155
Pure/Cartesian d shells                    I                1
Pure/Cartesian f shells                    I                0
Highest angular momentum                   I                2
Largest degree of contraction              I                6
Shell types                                I   N=          59
           0          -1          -1           2           0           0
           0          -1          -1           2           0           0
           0          -1          -1           2           0          -1
          -1           2           0          -1          -1           2
           0          -1          -1          -1           2           0
          -1          -1           2           0          -1          -1
           2           0           0           0           0           0
          -1          -1           2           0          -1          -1
           2           0          -1          -1           2           0
           0           0           0           0           0
Number of primitives per shell             I   N=          59
           6           3           1           1           3           1
           6           3           1           1           3           1
           6           3           1           1           6           3
           1           1           6           3           1           1
           6           6           3           1           1           6
           3           1           1           6           3           1
           1           3           1           3           1           6
           3           1           1           6           3           1
           1           6           3           1           1           3
           1           3           1           3           1
Shell to atom map                          I   N=          59
           1           1           1           1           2           2
           3           3           3           3           4           4
           5           5           5           5           6           6
           6           6           7           7           7           7
           8           8           8           8           8           9
           9           9           9          10          10          10
          10          11          11          12          12          13
          13          13          13          14          14          14
          14          15          15          15          15          16
          16          17          17          18          18
Primitive exponents                        R   N=         155
  4.17351146E+03  6.27457911E+02  1.42902093E+02  4.02343293E+01  1.28202129E+01
  4.39043701E+00  1.16263619E+01  2.71627981E+00  7.72218397E-01  2.12031498E-01
  8.00000000E-01  1.87311370E+01  2.82539436E+00  6.40121692E-01  1.61277759E-01
  3.04752488E+03  4.57369518E+02  1.03948685E+02  2.92101553E+01  9.28666296E+00
  3.16392696E+00  7.86827235E+00  1.88128854E+00  5.44249258E-01  1.68714478E-01
  8.00000000E-01  1.87311370E+01  2.82539436E+00  6.40121692E-01  1.61277759E-01
  3.04752488E+03  4.57369518E+02  1.03948685E+02  2.92101553E+01  9.28666296E+00
  3.16392696E+00  7.86827235E+00  1.88128854E+00  5.44249258E-01  1.68714478E-01
  8.00000000E-01  5.48467166E+03  8.25234946E+02  1.88046958E+02  5.29645000E+01
  1.68975704E+01  5.79963534E+00  1.55396162E+01  3.59993359E+00  1.01376175E+00
  2.70005823E-01  8.00000000E-01  3.04752488E+03  4.57369518E+02  1.03948685E+02
  2.92101553E+01  9.28666296E+00  3.16392696E+00  7.86827235E+00  1.88128854E+00
  5.44249258E-01  1.68714478E-01  8.00000000E-01  2.19171000E+04  3.30149000E+03
  7.54146000E+02  2.12711000E+02  6.79896000E+01  2.30515000E+01  4.23735000E+02
  1.00710000E+02  3.21599000E+01  1.18079000E+01  4.63110000E+00  1.87025000E+00
  2.61584000E+00  9.22167000E-01  3.41287000E-01  1.17167000E-01  6.50000000E-01
  3.04752488E+03  4.57369518E+02  1.03948685E+02  2.92101553E+01  9.28666296E+00
  3.16392696E+00  7.86827235E+00  1.88128854E+00  5.44249258E-01  1.68714478E-01
  8.00000000E-01  4.17351146E+03  6.27457911E+02  1.42902093E+02  4.02343293E+01
  1.28202129E+01  4.39043701E+00  1.16263619E+01  2.71627981E+00  7.72218397E-01
  2.12031498E-01  8.00000000E-01  1.87311370E+01  2.82539436E+00  6.40121692E-01
  1.61277759E-01  1.87311370E+01  2.82539436E+00  6.40121692E-01  1.61277759E-01
  3.04752488E+03  4.57369518E+02  1.03948685E+02  2.92101553E+01  9.28666296E+00
  3.16392696E+00  7.86827235E+00  1.88128854E+00  5.44249258E-01  1.68714478E-01
  8.00000000E-01  5.48467166E+03  8.25234946E+02  1.88046958E+02  5.29645000E+01
  1.68975704E+01  5.79963534E+00  1.55396162E+01  3.59993359E+00  1.01376175E+00
  2.70005823E-01  8.00000000E-01  4.17351146E+03  6.27457911E+02  1.42902093E+02
  4.02343293E+01  1.28202129E+01  4.39043701E+00  1.16263619E+01  2.71627981E+00
  7.72218397E-01  2.12031498E-01  8.00000000E-01  1.87311370E+01  2.82539436E+00
  6.40121692E-01  1.61277759E-01  1.87311370E+01  2.82539436E+00  6.40121692E-01
  1.61277759E-01  1.87311370E+01  2.82539436E+00  6.40121692E-01  1.61277759E-01
Contraction coefficients                   R   N=         155
  1.83477216E-03  1.39946270E-02  6.85865518E-02  2.32240873E-01  4.69069948E-01
  3.60455199E-01 -1.14961182E-01 -1.69117479E-01  1.14585195E+00  1.00000000E+00
  1.00000000E+00  3.34946043E-02  2.34726953E-01  8.13757326E-01  1.00000000E+00
  1.83473713E-03  1.40373228E-02  6.88426223E-02  2.32184443E-01  4.67941348E-01
  3.62311985E-01 -1.19332420E-01 -1.60854152E-01  1.14345644E+00  1.00000000E+00
  1.00000000E+00  3.34946043E-02  2.34726953E-01  8.13757326E-01  1.00000000E+00
  1.83473713E-03  1.40373228E-02  6.88426223E-02  2.32184443E-01  4.67941348E-01
  3.62311985E-01 -1.19332420E-01 -1.60854152E-01  1.14345644E+00  1.00000000E+00
  1.00000000E+00  1.83107443E-03  1.39501722E-02  6.84450781E-02  2.32714336E-01
  4.70192898E-01  3.58520853E-01 -1.10777550E-01 -1.48026263E-01  1.13076702E+00
  1.00000000E+00  1.00000000E+00  1.83473713E-03  1.40373228E-02  6.88426223E-02
  2.32184443E-01  4.67941348E-01  3.62311985E-01 -1.19332420E-01 -1.60854152E-01
  1.14345644E+00  1.00000000E+00  1.00000000E+00  1.86924085E-03  1.42303065E-02
  6.96962317E-02  2.38487108E-01  4.83307220E-01  3.38074154E-01 -2.37677050E-03
 -3.16930067E-02 -1.13317024E-01  5.60900118E-02  5.92255124E-01  4.55006095E-01
 -2.50373114E-01  6.69567631E-02  1.05450627E+00  1.00000000E+00  1.00000000E+00
  1.83473713E-03  1.40373228E-02  6.88426223E-02  2.32184443E-01  4.67941348E-01
  3.62311985E-01 -1.19332420E-01 -1.60854152E-01  1.14345644E+00  1.00000000E+00
  1.00000000E+00  1.83477216E-03  1.39946270E-02  6.85865518E-02  2.32240873E-01
  4.69069948E-01  3.60455199E-01 -1.14961182E-01 -1.69117479E-01  1.14585195E+00
  1.00000000E+00  1.00000000E+00  3.34946043E-02  2.34726953E-01  8.13757326E-01
  1.00000000E+00  3.34946043E-02  2.34726953E-01  8.13757326E-01  1.00000000E+00
  1.83473713E-03  1.40373228E-02  6.88426223E-02  2.32184443E-01  4.67941348E-01
  3.62311985E-01 -1.19332420E-01 -1.60854152E-01  1.14345644E+00  1.00000000E+00
  1.00000000E+00  1.83107443E-03  1.39501722E-02  6.84450781E-02  2.32714336E-01
  4.70192898E-01  3.58520853E-01 -1.10777550E-01 -1.48026263E-01  1.13076702E+00
  1.00000000E+00  1.00000000E+00  1.83477216E-03  1.39946270E-02  6.85865518E-02
  2.32240873E-01  4.69069948E-01  3.60455199E-01 -1.14961182E-01 -1.69117479E-01
  1.14585195E+00  1.00000000E+00  1.00000000E+00  3.34946043E-02  2.34726953E-01
  8.13757326E-01  1.00000000E+00  3.34946043E-02  2.34726953E-01  8.13757326E-01
  1.00000000E+00  3.34946043E-02  2.34726953E-01  8.13757326E-01  1.00000000E+00
P(S=P) Contraction coefficients            R   N=         155
  0.00000000E+00  0.00000000E+00  0.00000000E+00  0.00000000E+00  0.00000000E+00
  0.00000000E+00  6.75797439E-02  3.23907296E-01  7.40895140E-01  1.00000000E+00
  0.00000000E+00  0.00000000E+00  0.00000000E+00  0.00000000E+00  0.00000000E+00
  0.00000000E+00  0.00000000E+00  0.00000000E+00  0.00000000E+00  0.00000000E+00
  0.00000000E+00  6.89990666E-02  3.16423961E-01  7.44308291E-01  1.00000000E+00
  0.00000000E+00  0.00000000E+00  0.00000000E+00  0.00000000E+00  0.00000000E+00
  0.00000000E+00  0.00000000E+00  0.00000000E+00  0.00000000E+00  0.00000000E+00
  0.00000000E+00  6.89990666E-02  3.16423961E-01  7.44308291E-01  1.00000000E+00
  0.00000000E+00  0.00000000E+00  0.00000000E+00  0.00000000E+00  0.00000000E+00
  0.00000000E+00  0.00000000E+00  7.08742682E-02  3.39752839E-01  7.27158577E-01
  1.00000000E+00  0.00000000E+00  0.00000000E+00  0.00000000E+00  0.00000000E+00
  0.00000000E+00  0.00000000E+00  0.00000000E+00  6.89990666E-02  3.16423961E-01
  7.44308291E-01  1.00000000E+00  0.00000000E+00  0.00000000E+00  0.00000000E+00
  0.00000000E+00  0.00000000E+00  0.00000000E+00  0.00000000E+00  4.06100998E-03
  3.06812999E-02  1.30451999E-01  3.27204999E-01  4.52850998E-01  2.56041999E-01
 -1.45104895E-02  3.10262776E-01  7.54482456E-01  1.00000000E+00  0.00000000E+00
  0.00000000E+00  0.00000000E+00  0.00000000E+00  0.00000000E+00  0.00000000E+00
  0.00000000E+00  6.89990666E-02  3.16423961E-01  7.44308291E-01  1.00000000E+00
  0.00000000E+00  0.00000000E+00  0.00000000E+00  0.00000000E+00  0.00000000E+00
  0.00000000E+00  0.00000000E+00  6.75797439E-02  3.23907296E-01  7.40895140E-01
  1.00000000E+00  0.00000000E+00  0.00000000E+00  0.00000000E+00  0.00000000E+00
  0.00000000E+00  0.00000000E+00  0.00000000E+00  0.00000000E+00  0.00000000E+00
  0.00000000E+00  0.00000000E+00  0.00000000E+00  0.00000000E+00  0.00000000E+00
  0.00000000E+00  6.89990666E-02  3.16423961E-01  7.44308291E-01  1.00000000E+00
  0.00000000E+00  0.00000000E+00  0.00000000E+00  0.00000000E+00  0.00000000E+00
  0.00000000E+00  0.00000000E+00  7.08742682E-02  3.39752839E-01  7.27158577E-01
  1.00000000E+00  0.00000000E+00  0.00000000E+00  0.00000000E+00  0.00000000E+00
  0.00000000E+00  0.00000000E+00  0.00000000E+00  6.75797439E-02  3.23907296E-01
  7.40895140E-01  1.00000000E+00  0.00000000E+00  0.00000000E+00  0.00000000E+00
  0.00000000E+00  0.00000000E+00  0.00000000E+00  0.00000000E+00  0.00000000E+00
  0.00000000E+00  0.00000000E+00  0.00000000E+00  0.00000000E+00  0.00000000E+00
Coordinates of each shell                  R   N=         177
  1.76223857E+00 -1.70064461E+00  1.40791714E+00  1.76223857E+00 -1.70064461E+00
  1.40791714E+00  1.76223857E+00 -1.70064461E+00  1.40791714E+00  1.76223857E+00
 -1.70064461E+00  1.40791714E+00  1.03214967E+00 -1.65754257E+00  3.18106051E+00
  1.03214967E+00 -1.65754257E+00  3.18106051E+00  1.10691174E+00  3.15926469E-01
 -3.54147876E-01  1.10691174E+00  3.15926469E-01 -3.54147876E-01  1.10691174E+00
  3.15926469E-01 -3.54147876E-01  1.10691174E+00  3.15926469E-01 -3.54147876E-01
  1.32565760E+00 -4.77972375E-01 -2.25393688E+00  1.32565760E+00 -4.77972375E-01
 -2.25393688E+00  2.90698837E+00  2.57830183E+00 -4.25399949E-02  2.90698837E+00
  2.57830183E+00 -4.25399949E-02  2.90698837E+00  2.57830183E+00 -4.25399949E-02
  2.90698837E+00  2.57830183E+00 -4.25399949E-02  2.26288093E+00  4.50647431E+00
  1.08990233E+00  2.26288093E+00  4.50647431E+00  1.08990233E+00  2.26288093E+00
  4.50647431E+00  1.08990233E+00  2.26288093E+00  4.50647431E+00  1.08990233E+00
 -1.59664597E+00  1.18221580E+00  5.89796120E-02 -1.59664597E+00  1.18221580E+00
  5.89796120E-02 -1.59664597E+00  1.18221580E+00  5.89796120E-02 -1.59664597E+00
  1.18221580E+00  5.89796120E-02 -3.66748275E+00 -1.58062491E+00 -1.87521801E-01
 -3.66748275E+00 -1.58062491E+00 -1.87521801E-01 -3.66748275E+00 -1.58062491E+00
 -1.87521801E-01 -3.66748275E+00 -1.58062491E+00 -1.87521801E-01 -3.66748275E+00
 -1.58062491E+00 -1.87521801E-01 -6.46864488E+00 -2.00132420E-02 -2.42433125E-01
 -6.46864488E+00 -2.00132420E-02 -2.42433125E-01 -6.46864488E+00 -2.00132420E-02
 -2.42433125E-01 -6.46864488E+00 -2.00132420E-02 -2.42433125E-01 -8.45637819E+00
  1.01491447E+00 -2.84182406E-01 -8.45637819E+00  1.01491447E+00 -2.84182406E-01
 -8.45637819E+00  1.01491447E+00 -2.84182406E-01 -8.45637819E+00  1.01491447E+00
 -2.84182406E-01 -1.79791839E+00  2.07584379E+00  1.90695007E+00 -1.79791839E+00
  2.07584379E+00  1.90695007E+00 -2.10778375E+00  2.55873229E+00 -1.38952537E+00
 -2.10778375E+00  2.55873229E+00 -1.38952537E+00  3.62480187E+00 -3.39192496E+00
  8.74045437E-01  3.62480187E+00 -3.39192496E+00  8.74045437E-01  3.62480187E+00
 -3.39192496E+00  8.74045437E-01  3.62480187E+00 -3.39192496E+00  8.74045437E-01
  4.87188004E+00 -3.38344248E+00 -1.09416198E+00  4.87188004E+00 -3.38344248E+00
 -1.09416198E+00  4.87188004E+00 -3.38344248E+00 -1.09416198E+00  4.87188004E+00
 -3.38344248E+00 -1.09416198E+00  5.20072051E+00  2.20995324E+00 -1.12921731E+00
  5.20072051E+00  2.20995324E+00 -1.12921731E+00  5.20072051E+00  2.20995324E+00
 -1.12921731E+00  5.20072051E+00  2.20995324E+00 -1.12921731E+00  3.89712659E+00
 -4.81449350E+00  2.36958694E+00  3.89712659E+00 -4.81449350E+00  2.36958694E+00
  5.70439251E+00  4.54687494E-01 -1.72122740E+00  5.70439251E+00  4.54687494E-01
 -1.72122740E+00  6.56147902E+00  3.50989179E+00 -7.83528079E-01  6.56147902E+00
  3.50989179E+00 -7.83528079E-01
Constraint Structure                       R   N=          54
  1.43787383E+00 -1.79234873E+00  2.45125830E-01 -2.47980446E-01 -2.02518805E+00
  1.06581137E+00  1.72289397E+00  3.49246377E-01 -1.40417252E+00  2.80844498E+00
 -3.52480110E-01 -2.78176065E+00  3.07337011E+00  2.49986098E+00 -1.40900881E-01
  4.04511293E+00  4.18669581E+00 -1.41321867E+00 -1.57180343E+00  1.14805689E+00
 -6.67406935E-01 -3.56854492E+00 -1.61529917E+00 -5.05740734E-01 -6.30657294E+00
  1.45830673E-01  2.10087765E-01 -8.11328456E+00  1.28323891E+00  6.79648777E-01
 -1.53855254E+00  2.05100023E+00  1.14150055E+00 -2.31314322E+00  2.40513917E+00
 -2.06736231E+00  3.23086788E+00 -3.50967801E+00  7.83475293E-01  5.26544626E+00
 -3.60387015E+00 -3.46122504E-01  2.99006709E+00  2.62032620E+00  2.39876944E+00
  2.88923581E+00 -4.80346118E+00  2.20218096E+00  2.20082070E+00  1.24360450E+00
  3.36998738E+00  3.71829188E+00  4.08515069E+00  3.28491923E+00
Num ILSW                                   I              100
ILSW                                       I   N=         100
           0           1           0           0           2           0
           0           0           0           0           0  6710886400
           0           0           0           0           0           0
           0           0           0           0           1           0
           1           0           0           0           0           0
           0           0      100000           0          -1           0
           0           0           0           0           0           0
           0           0           0           1           0           0
           0           0           1           0           0           0
           0           0           4          40           0           0
           0           0           0           0           0           0
           0           0           0           0           0           0
           0           0           0           0           0           0
           0           0           0           0           0           0
           0           0           0           0           0           0
           0           0           0           0           0           0
           0           0           0           0
Num RLSW                                   I               40
RLSW                                       R   N=          40
  1.00000000E+00  1.00000000E+00  1.00000000E+00  1.00000000E+00  1.00000000E+00
  0.00000000E+00  0.00000000E+00  1.00000000E+00  0.00000000E+00  0.00000000E+00
  0.00000000E+00  0.00000000E+00  1.00000000E+00  0.00000000E+00  0.00000000E+00
  0.00000000E+00  0.00000000E+00  1.00000000E+00  0.00000000E+00  0.00000000E+00
  0.00000000E+00  0.00000000E+00  1.00000000E+00  0.00000000E+00  0.00000000E+00
  0.00000000E+00  0.00000000E+00  1.00000000E+00  0.00000000E+00  0.00000000E+00
  0.00000000E+00  0.00000000E+00  0.00000000E+00  0.00000000E+00  0.00000000E+00
  0.00000000E+00  0.00000000E+00  0.00000000E+00  1.00000000E+00  1.00000000E+00
MxBond                                     I                3
NBond                                      I   N=          18
           3           1           3           1           3           1
           3           2           2           1           1           1
           3           1           3           1           1           1
IBond                                      I   N=          54
           2           3          13           1           0           0
           1           4           5           3           0           0
           3           6          15           5           0           0
           8          11          12           7           9           0
           8          10           0           9           0           0
           7           0           0           7           0           0
           1          14          16          13           0           0
           5          17          18          13           0           0
          15           0           0          15           0           0
RBond                                      R   N=          54
  1.00000000E+00  1.00000000E+00  1.41000000E+00  1.00000000E+00  0.00000000E+00
  0.00000000E+00  1.00000000E+00  1.00000000E+00  1.00000000E+00  1.00000000E+00
  0.00000000E+00  0.00000000E+00  1.00000000E+00  2.00000000E+00  1.41000000E+00
  2.00000000E+00  0.00000000E+00  0.00000000E+00  1.00000000E+00  1.00000000E+00
  1.00000000E+00  1.00000000E+00  1.00000000E+00  0.00000000E+00  1.00000000E+00
  3.00000000E+00  0.00000000E+00  3.00000000E+00  0.00000000E+00  0.00000000E+00
  1.00000000E+00  0.00000000E+00  0.00000000E+00  1.00000000E+00  0.00000000E+00
  0.00000000E+00  1.41000000E+00  2.00000000E+00  1.00000000E+00  2.00000000E+00
  0.00000000E+00  0.00000000E+00  1.41000000E+00  1.00000000E+00  1.00000000E+00
  1.00000000E+00  0.00000000E+00  0.00000000E+00  1.00000000E+00  0.00000000E+00
  0.00000000E+00  1.00000000E+00  0.00000000E+00  0.00000000E+00
Virial Ratio                               R      2.002021829687319E+00
SCF Energy                                 R     -9.039991904410463E+02
MP2 Energy                                 R     -9.056035767384323E+02
Total Energy                               R     -9.056035767384323E+02
Post-SCF wavefunction norm                 R      1.240829581292419E+00
RMS Force                                  R      9.201243478477227E-06
RMS Density                                R      6.241366346400442E-09
External E-field                           R   N=          35
  0.00000000E+00  0.00000000E+00  0.00000000E+00  0.00000000E+00  0.00000000E+00
  0.00000000E+00  0.00000000E+00  0.00000000E+00  0.00000000E+00  0.00000000E+00
  0.00000000E+00  0.00000000E+00  0.00000000E+00  0.00000000E+00  0.00000000E+00
  0.00000000E+00  0.00000000E+00  0.00000000E+00  0.00000000E+00  0.00000000E+00
  0.00000000E+00  0.00000000E+00  0.00000000E+00  0.00000000E+00  0.00000000E+00
  0.00000000E+00  0.00000000E+00  0.00000000E+00  0.00000000E+00  0.00000000E+00
  0.00000000E+00  0.00000000E+00  0.00000000E+00  0.00000000E+00  0.00000000E+00
IOpCl                                      I                0
IROHF                                      I                0
Alpha Orbital Energies                     R   N=         183
 -9.20142472E+01 -2.05752068E+01 -2.05499409E+01 -1.56434407E+01 -1.56028314E+01
 -1.56011764E+01 -1.13981687E+01 -1.13790667E+01 -1.13264785E+01 -1.13139502E+01
 -1.13070413E+01 -9.02349036E+00 -6.70657308E+00 -6.70461813E+00 -6.70260525E+00
 -1.41717331E+00 -1.39410995E+00 -1.28388473E+00 -1.22460611E+00 -1.22018789E+00
 -1.12391398E+00 -1.03481720E+00 -9.12446527E-01 -8.72998079E-01 -8.13828844E-01
 -7.61552158E-01 -7.54215327E-01 -7.13519162E-01 -6.97332541E-01 -6.70698383E-01
 -6.40184465E-01 -6.22033016E-01 -6.16754227E-01 -5.86664970E-01 -5.76896254E-01
 -5.64658024E-01 -5.58544059E-01 -5.32857619E-01 -5.13193010E-01 -4.73870567E-01
 -4.65005961E-01 -4.53173231E-01 -4.27049055E-01 -4.18548285E-01 -3.85305650E-01
  1.21243279E-01  1.44747010E-01  1.65693495E-01  1.81671275E-01  1.97199579E-01
  2.06459478E-01  2.19375161E-01  2.29123896E-01  2.40450263E-01  2.66770717E-01
  2.75446443E-01  2.92826765E-01  3.27607662E-01  3.43542895E-01  3.74640150E-01
  3.91330061E-01  4.28300324E-01  4.39757368E-01  4.67879696E-01  4.99396249E-01
  5.10873672E-01  5.29995110E-01  5.68492726E-01  5.90336964E-01  6.50374444E-01
  6.95910576E-01  7.09256788E-01  7.36803412E-01  7.52630055E-01  7.67301652E-01
  7.82969553E-01  8.05451061E-01  8.14026812E-01  8.54770039E-01  8.69801684E-01
  8.84843834E-01  8.97078896E-01  9.02992842E-01  9.10025431E-01  9.30586802E-01
  9.60455567E-01  9.81854105E-01  9.94521403E-01  1.01418073E+00  1.01760233E+00
  1.04110217E+00  1.04953337E+00  1.07017410E+00  1.08271342E+00  1.09437985E+00
  1.11020555E+00  1.11230633E+00  1.11923467E+00  1.12954462E+00  1.14256036E+00
  1.15386143E+00  1.17737718E+00  1.18497836E+00  1.24248123E+00  1.24685776E+00
  1.26403988E+00  1.29606438E+00  1.31465010E+00  1.35549869E+00  1.37093291E+00
  1.39746192E+00  1.43718068E+00  1.44910334E+00  1.46344238E+00  1.49463452E+00
  1.50899938E+00  1.60854026E+00  1.63305967E+00  1.64552087E+00  1.64797370E+00
  1.70383253E+00  1.71171304E+00  1.75248235E+00  1.78357426E+00  1.79630506E+00
  1.80753282E+00  1.83258220E+00  1.88278260E+00  1.88968016E+00  1.90278332E+00
  1.94204613E+00  1.99595740E+00  2.03500948E+00  2.05896175E+00  2.10317289E+00
  2.12092431E+00  2.14069182E+00  2.16551183E+00  2.19159930E+00  2.22893542E+00
  2.24337063E+00  2.25199059E+00  2.26157800E+00  2.28418325E+00  2.29651289E+00
  2.36014368E+00  2.42669174E+00  2.44609700E+00  2.46892728E+00  2.51027233E+00
  2.53129591E+00  2.58329046E+00  2.61139659E+00  2.66790827E+00  2.73704738E+00
  2.76500161E+00  2.80190959E+00  2.86404603E+00  2.90128176E+00  2.90653056E+00
  2.92538714E+00  2.93780295E+00  2.95375817E+00  3.00365975E+00  3.04953038E+00
  3.12085233E+00  3.19158520E+00  3.26380828E+00  3.33803077E+00  3.35172751E+00
  3.40785049E+00  3.44354019E+00  4.20551117E+00  4.23328193E+00  4.27066008E+00
  4.32459996E+00  4.36458742E+00  4.52815275E+00  4.57051949E+00  4.64248012E+00
  4.68970006E+00  4.81965066E+00  4.99086955E+00
Alpha MO coefficients                      R   N=       33489
  3.93896945E-06  2.82412106E-05 -4.16751852E-06 -9.04567030E-06 -1.12233223E-05
 -3.44074818E-05  8.67715994E-05  1.76693733E-05  8.30563737E-05 -1.67390614E-05
  1.53544189E-05  7.31829851E-06 -1.44895769E-06 -5.11293755E-06  2.41308536E-06
  2.34211674E-05 -1.24736660E-04 -1.80013208E-06  2.61691122E-05  1.91721262E-05
  1.24800513E-05  8.66953784E-06 -2.10074227E-04  2.29730409E-04 -2.02800914E-04
 -1.21698698E-04 -4.24209252E-05 -1.37667668E-05 -1.43447583E-05 -1.44052228E-06
 -3.16528636E-06 -8.33871784E-06  1.18305528E-05 -1.97598609E-04 -2.30320867E-06
 -7.24764551E-06  2.83400422E-06  4.35251727E-06  6.57588568E-06  1.08417656E-04
 -1.53071317E-04  2.92989354E-05  3.73714825E-05 -2.95504700E-06 -1.86741992E-06
 -6.59593486E-06  5.62294176E-06 -1.09812182E-06  2.37400464E-06  2.64133490E-06
  1.57799866E-05  7.41526131E-07 -4.03576122E-07 -4.77428431E-06 -1.08612650E-04
  7.45069471E-06  3.15299492E-05  3.01586148E-05  9.53583050E-06  3.82205210E-06
  3.90456959E-06 -1.62357155E-06 -2.85056595E-06 -3.79360847E-06 -1.20108122E-05
  4.12492583E-06 -6.01612228E-05 -6.84855248E-05 -1.66364426E-05  4.24597931E-04