ModifiedRes Gaussian SP Calculation on g2-node38.bme.utexas.edu         
SP        RMP2-FC                                                     6-311G(d,p)         
Number of atoms                            I               18
Info1-9                                    I   N=           9
          32          29           0           0           0         110
           1           2           1
Charge                                     I                0
Multiplicity                               I                1
Number of electrons                        I               90
Number of alpha electrons                  I               45
Number of beta electrons                   I               45
Number of basis functions                  I              248
Number of independent functions            I              248
Number of point charges in /Mol/           I                0
Number of translation vectors              I                0
Atomic numbers                             I   N=          18
           6           8           7           1           6           1
           6           8           1           1           6          16
           6           7           7           1           1           1
Nuclear charges                            R   N=          18
  6.00000000E+00  8.00000000E+00  7.00000000E+00  1.00000000E+00  6.00000000E+00
  1.00000000E+00  6.00000000E+00  8.00000000E+00  1.00000000E+00  1.00000000E+00
  6.00000000E+00  1.60000000E+01  6.00000000E+00  7.00000000E+00  7.00000000E+00
  1.00000000E+00  1.00000000E+00  1.00000000E+00
Current cartesian coordinates              R   N=          54
  3.62456464E+00 -3.39178440E+00  8.74453760E-01  4.87154767E+00 -3.38362456E+00
 -1.09380183E+00  1.76208269E+00 -1.70035101E+00  1.40823336E+00  1.03200023E+00
 -1.65735407E+00  3.18137662E+00  1.10692976E+00  3.15988666E-01 -3.54342547E-01
  1.32624193E+00 -4.78325589E-01 -2.25386502E+00  2.90707720E+00  2.57821005E+00
 -4.27040312E-02  2.26302074E+00  4.50651117E+00  1.08951215E+00 -1.79809331E+00
  2.07592085E+00  1.90625935E+00 -2.10805375E+00  2.55884414E+00 -1.39026963E+00
 -1.59663339E+00  1.18244511E+00  5.82356902E-02 -3.66744442E+00 -1.58056127E+00
 -1.88335776E-01 -6.46865916E+00 -2.00273176E-02 -2.42034233E-01 -8.45640728E+00
  1.01490577E+00 -2.82865546E-01  5.20108568E+00  2.20949614E+00 -1.12883546E+00
  3.89693465E+00 -4.81414346E+00  2.37019278E+00  5.70479029E+00  4.54127646E-01
 -1.72051439E+00  6.56175085E+00  3.50947843E+00 -7.82883301E-01
Force Field                                I                0
Int Atom Types                             I   N=          18
           0           0           0           0           0           0
           0           0           0           0           0           0
           0           0           0           0           0           0
MM charges                                 R   N=          18
  0.00000000E+00  0.00000000E+00  0.00000000E+00  0.00000000E+00  0.00000000E+00
  0.00000000E+00  0.00000000E+00  0.00000000E+00  0.00000000E+00  0.00000000E+00
  0.00000000E+00  0.00000000E+00  0.00000000E+00  0.00000000E+00  0.00000000E+00
  0.00000000E+00  0.00000000E+00  0.00000000E+00
Integer atomic weights                     I   N=          18
          12          16          14           1          12           1
          12          16           1           1          12          32
          12          14          14           1           1           1
Real atomic weights                        R   N=          18
  1.20000000E+01  1.59949146E+01  1.40030740E+01  1.00782504E+00  1.20000000E+01
  1.00782504E+00  1.20000000E+01  1.59949146E+01  1.00782504E+00  1.00782504E+00
  1.20000000E+01  3.19720718E+01  1.20000000E+01  1.40030740E+01  1.40030740E+01
  1.00782504E+00  1.00782504E+00  1.00782504E+00
Atom fragment info                         I   N=          18
           0           0           0           0           0           0
           0           0           0           0           0           0
           0           0           0           0           0           0
Atom residue num                           I   N=          18
           0           0           0           0           0           0
           0           0           0           0           0           0
           0           0           0           0           0           0
Nuclear spins                              I   N=          18
           0           0           2           1           0           1
           0           0           1           1           0           0
           0           2           2           1           1           1
Nuclear ZEff                               R   N=          18
 -3.60000000E+00 -5.60000000E+00 -4.55000000E+00 -1.00000000E+00 -3.60000000E+00
 -1.00000000E+00 -3.60000000E+00 -5.60000000E+00 -1.00000000E+00 -1.00000000E+00
 -3.60000000E+00 -1.36000000E+01 -3.60000000E+00 -4.55000000E+00 -4.55000000E+00
 -1.00000000E+00 -1.00000000E+00 -1.00000000E+00
Nuclear QMom                               R   N=          18
  0.00000000E+00  0.00000000E+00  2.04400000E+00  0.00000000E+00  0.00000000E+00
  0.00000000E+00  0.00000000E+00  0.00000000E+00  0.00000000E+00  0.00000000E+00
  0.00000000E+00  0.00000000E+00  0.00000000E+00  2.04400000E+00  2.04400000E+00
  0.00000000E+00  0.00000000E+00  0.00000000E+00
Nuclear GFac                               R   N=          18
  0.00000000E+00  0.00000000E+00  4.03761000E-01  2.79284600E+00  0.00000000E+00
  2.79284600E+00  0.00000000E+00  0.00000000E+00  2.79284600E+00  2.79284600E+00
  0.00000000E+00  0.00000000E+00  0.00000000E+00  4.03761000E-01  4.03761000E-01
  2.79284600E+00  2.79284600E+00  2.79284600E+00
MicOpt                                     I   N=          18
          -1          -1          -1          -1          -1          -1
          -1          -1          -1          -1          -1          -1
          -1          -1          -1          -1          -1          -1
Number of contracted shells                I               90
Number of primitive shells                 I              185
Pure/Cartesian d shells                    I                0
Pure/Cartesian f shells                    I                0
Highest angular momentum                   I                2
Largest degree of contraction              I                6
Shell types                                I   N=          90
           0          -1          -1          -1          -2           0
          -1          -1          -1          -2           0          -1
          -1          -1          -2           0           0           0
           1           0          -1          -1          -1          -2
           0           0           0           1           0          -1
          -1          -1          -2           0          -1          -1
          -1          -2           0           0           0           1
           0           0           0           1           0          -1
          -1          -1          -2           0           0           0
           0           0           0           1           1           1
           1           1          -2           0          -1          -1
          -1          -2           0          -1          -1          -1
          -2           0          -1          -1          -1          -2
           0           0           0           1           0           0
           0           1           0           0           0           1
Number of primitives per shell             I   N=          90
           6           3           1           1           1           6
           3           1           1           1           6           3
           1           1           1           3           1           1
           1           6           3           1           1           1
           3           1           1           1           6           3
           1           1           1           6           3           1
           1           1           3           1           1           1
           3           1           1           1           6           3
           1           1           1           6           3           1
           1           1           1           4           2           1
           1           1           1           6           3           1
           1           1           6           3           1           1
           1           6           3           1           1           1
           3           1           1           1           3           1
           1           1           3           1           1           1
Shell to atom map                          I   N=          90
           1           1           1           1           1           2
           2           2           2           2           3           3
           3           3           3           4           4           4
           4           5           5           5           5           5
           6           6           6           6           7           7
           7           7           7           8           8           8
           8           8           9           9           9           9
          10          10          10          10          11          11
          11          11          11          12          12          12
          12          12          12          12          12          12
          12          12          12          13          13          13
          13          13          14          14          14          14
          14          15          15          15          15          15
          16          16          16          16          17          17
          17          17          18          18          18          18
Primitive exponents                        R   N=         185
  4.56324000E+03  6.82024000E+02  1.54973000E+02  4.44553000E+01  1.30290000E+01
  1.82773000E+00  2.09642000E+01  4.80331000E+00  1.45933000E+00  4.83456000E-01
  1.45585000E-01  6.26000000E-01  8.58850000E+03  1.29723000E+03  2.99296000E+02
  8.73771000E+01  2.56789000E+01  3.74004000E+00  4.21175000E+01  9.62837000E+00
  2.85332000E+00  9.05661000E-01  2.55611000E-01  1.29200000E+00  6.29348000E+03
  9.49044000E+02  2.18776000E+02  6.36916000E+01  1.88282000E+01  2.72023000E+00
  3.06331000E+01  7.02614000E+00  2.11205000E+00  6.84009000E-01  2.00878000E-01
  9.13000000E-01  3.38650000E+01  5.09479000E+00  1.15879000E+00  3.25840000E-01
  1.02741000E-01  7.50000000E-01  4.56324000E+03  6.82024000E+02  1.54973000E+02
  4.44553000E+01  1.30290000E+01  1.82773000E+00  2.09642000E+01  4.80331000E+00
  1.45933000E+00  4.83456000E-01  1.45585000E-01  6.26000000E-01  3.38650000E+01
  5.09479000E+00  1.15879000E+00  3.25840000E-01  1.02741000E-01  7.50000000E-01
  4.56324000E+03  6.82024000E+02  1.54973000E+02  4.44553000E+01  1.30290000E+01
  1.82773000E+00  2.09642000E+01  4.80331000E+00  1.45933000E+00  4.83456000E-01
  1.45585000E-01  6.26000000E-01  8.58850000E+03  1.29723000E+03  2.99296000E+02
  8.73771000E+01  2.56789000E+01  3.74004000E+00  4.21175000E+01  9.62837000E+00
  2.85332000E+00  9.05661000E-01  2.55611000E-01  1.29200000E+00  3.38650000E+01
  5.09479000E+00  1.15879000E+00  3.25840000E-01  1.02741000E-01  7.50000000E-01
  3.38650000E+01  5.09479000E+00  1.15879000E+00  3.25840000E-01  1.02741000E-01
  7.50000000E-01  4.56324000E+03  6.82024000E+02  1.54973000E+02  4.44553000E+01
  1.30290000E+01  1.82773000E+00  2.09642000E+01  4.80331000E+00  1.45933000E+00
  4.83456000E-01  1.45585000E-01  6.26000000E-01  9.34134000E+04  1.39617000E+04
  3.16991000E+03  9.02456000E+02  2.97158000E+02  1.08702000E+02  1.08702000E+02
  4.31553000E+01  1.81079000E+01  5.56009000E+00  2.13183000E+00  4.20403000E-01
  1.36045000E-01  4.95040000E+02  1.17221000E+02  3.77749000E+01  1.40584000E+01
  5.56574000E+00  2.26297000E+00  8.07994000E-01  2.77460000E-01  7.71410000E-02
  6.50000000E-01  4.56324000E+03  6.82024000E+02  1.54973000E+02  4.44553000E+01
  1.30290000E+01  1.82773000E+00  2.09642000E+01  4.80331000E+00  1.45933000E+00
  4.83456000E-01  1.45585000E-01  6.26000000E-01  6.29348000E+03  9.49044000E+02
  2.18776000E+02  6.36916000E+01  1.88282000E+01  2.72023000E+00  3.06331000E+01
  7.02614000E+00  2.11205000E+00  6.84009000E-01  2.00878000E-01  9.13000000E-01
  6.29348000E+03  9.49044000E+02  2.18776000E+02  6.36916000E+01  1.88282000E+01
  2.72023000E+00  3.06331000E+01  7.02614000E+00  2.11205000E+00  6.84009000E-01
  2.00878000E-01  9.13000000E-01  3.38650000E+01  5.09479000E+00  1.15879000E+00
  3.25840000E-01  1.02741000E-01  7.50000000E-01  3.38650000E+01  5.09479000E+00
  1.15879000E+00  3.25840000E-01  1.02741000E-01  7.50000000E-01  3.38650000E+01
  5.09479000E+00  1.15879000E+00  3.25840000E-01  1.02741000E-01  7.50000000E-01
Contraction coefficients                   R   N=         185
  1.96665025E-03  1.52306019E-02  7.61269097E-02  2.60801033E-01  6.16462078E-01
  2.21006028E-01  1.14660081E-01  9.19999648E-01 -3.03068213E-03  1.00000000E+00
  1.00000000E+00  1.00000000E+00  1.89515008E-03  1.43859006E-02  7.07320031E-02
  2.40001011E-01  5.94797026E-01  2.80802012E-01  1.13889012E-01  9.20811101E-01
 -3.27447036E-03  1.00000000E+00  1.00000000E+00  1.00000000E+00  1.96978815E-03
  1.49612859E-02  7.35005308E-02  2.48936766E-01  6.02459433E-01  2.56201759E-01
  1.11906080E-01  9.21666655E-01 -2.56919183E-03  1.00000000E+00  1.00000000E+00
  1.00000000E+00  2.54938145E-02  1.90373109E-01  8.52161486E-01  1.00000000E+00
  1.00000000E+00  1.00000000E+00  1.96665025E-03  1.52306019E-02  7.61269097E-02
  2.60801033E-01  6.16462078E-01  2.21006028E-01  1.14660081E-01  9.19999648E-01
 -3.03068213E-03  1.00000000E+00  1.00000000E+00  1.00000000E+00  2.54938145E-02
  1.90373109E-01  8.52161486E-01  1.00000000E+00  1.00000000E+00  1.00000000E+00
  1.96665025E-03  1.52306019E-02  7.61269097E-02  2.60801033E-01  6.16462078E-01
  2.21006028E-01  1.14660081E-01  9.19999648E-01 -3.03068213E-03  1.00000000E+00
  1.00000000E+00  1.00000000E+00  1.89515008E-03  1.43859006E-02  7.07320031E-02
  2.40001011E-01  5.94797026E-01  2.80802012E-01  1.13889012E-01  9.20811101E-01
 -3.27447036E-03  1.00000000E+00  1.00000000E+00  1.00000000E+00  2.54938145E-02
  1.90373109E-01  8.52161486E-01  1.00000000E+00  1.00000000E+00  1.00000000E+00
  2.54938145E-02  1.90373109E-01  8.52161486E-01  1.00000000E+00  1.00000000E+00
  1.00000000E+00  1.96665025E-03  1.52306019E-02  7.61269097E-02  2.60801033E-01
  6.16462078E-01  2.21006028E-01  1.14660081E-01  9.19999648E-01 -3.03068213E-03
  1.00000000E+00  1.00000000E+00  1.00000000E+00  7.42999957E-04  5.79299966E-03
  2.99539983E-02  1.19027993E-01  3.68431979E-01  5.77298966E-01  1.43186060E-01
  6.24465262E-01  2.83366119E-01  1.00000000E+00  1.00000000E+00  1.00000000E+00
  1.00000000E+00  8.30900251E-03  6.40240194E-02  2.77614084E-01  7.45076225E-01
  6.13711672E-01  4.43817763E-01  1.00000000E+00  1.00000000E+00  1.00000000E+00
  1.00000000E+00  1.96665025E-03  1.52306019E-02  7.61269097E-02  2.60801033E-01
  6.16462078E-01  2.21006028E-01  1.14660081E-01  9.19999648E-01 -3.03068213E-03
  1.00000000E+00  1.00000000E+00  1.00000000E+00  1.96978815E-03  1.49612859E-02
  7.35005308E-02  2.48936766E-01  6.02459433E-01  2.56201759E-01  1.11906080E-01
  9.21666655E-01 -2.56919183E-03  1.00000000E+00  1.00000000E+00  1.00000000E+00
  1.96978815E-03  1.49612859E-02  7.35005308E-02  2.48936766E-01  6.02459433E-01
  2.56201759E-01  1.11906080E-01  9.21666655E-01 -2.56919183E-03  1.00000000E+00
  1.00000000E+00  1.00000000E+00  2.54938145E-02  1.90373109E-01  8.52161486E-01
  1.00000000E+00  1.00000000E+00  1.00000000E+00  2.54938145E-02  1.90373109E-01
  8.52161486E-01  1.00000000E+00  1.00000000E+00  1.00000000E+00  2.54938145E-02
  1.90373109E-01  8.52161486E-01  1.00000000E+00  1.00000000E+00  1.00000000E+00
P(S=P) Contraction coefficients            R   N=         185
  0.00000000E+00  0.00000000E+00  0.00000000E+00  0.00000000E+00  0.00000000E+00
  0.00000000E+00  4.02486927E-02  2.37593957E-01  8.15853851E-01  1.00000000E+00
  1.00000000E+00  0.00000000E+00  0.00000000E+00  0.00000000E+00  0.00000000E+00
  0.00000000E+00  0.00000000E+00  0.00000000E+00  3.65113974E-02  2.37152983E-01
  8.19701941E-01  1.00000000E+00  1.00000000E+00  0.00000000E+00  0.00000000E+00
  0.00000000E+00  0.00000000E+00  0.00000000E+00  0.00000000E+00  0.00000000E+00
  3.83119186E-02  2.37403116E-01  8.17592398E-01  1.00000000E+00  1.00000000E+00
  0.00000000E+00  0.00000000E+00  0.00000000E+00  0.00000000E+00  0.00000000E+00
  0.00000000E+00  0.00000000E+00  0.00000000E+00  0.00000000E+00  0.00000000E+00
  0.00000000E+00  0.00000000E+00  0.00000000E+00  4.02486927E-02  2.37593957E-01
  8.15853851E-01  1.00000000E+00  1.00000000E+00  0.00000000E+00  0.00000000E+00
  0.00000000E+00  0.00000000E+00  0.00000000E+00  0.00000000E+00  0.00000000E+00
  0.00000000E+00  0.00000000E+00  0.00000000E+00  0.00000000E+00  0.00000000E+00
  0.00000000E+00  4.02486927E-02  2.37593957E-01  8.15853851E-01  1.00000000E+00
  1.00000000E+00  0.00000000E+00  0.00000000E+00  0.00000000E+00  0.00000000E+00
  0.00000000E+00  0.00000000E+00  0.00000000E+00  3.65113974E-02  2.37152983E-01
  8.19701941E-01  1.00000000E+00  1.00000000E+00  0.00000000E+00  0.00000000E+00
  0.00000000E+00  0.00000000E+00  0.00000000E+00  0.00000000E+00  0.00000000E+00
  0.00000000E+00  0.00000000E+00  0.00000000E+00  0.00000000E+00  0.00000000E+00
  0.00000000E+00  0.00000000E+00  0.00000000E+00  0.00000000E+00  0.00000000E+00
  0.00000000E+00  0.00000000E+00  4.02486927E-02  2.37593957E-01  8.15853851E-01
  1.00000000E+00  1.00000000E+00  0.00000000E+00  0.00000000E+00  0.00000000E+00
  0.00000000E+00  0.00000000E+00  0.00000000E+00  0.00000000E+00  0.00000000E+00
  0.00000000E+00  0.00000000E+00  0.00000000E+00  0.00000000E+00  0.00000000E+00
  0.00000000E+00  0.00000000E+00  0.00000000E+00  0.00000000E+00  0.00000000E+00
  0.00000000E+00  0.00000000E+00  0.00000000E+00  0.00000000E+00  0.00000000E+00
  0.00000000E+00  0.00000000E+00  0.00000000E+00  0.00000000E+00  0.00000000E+00
  0.00000000E+00  0.00000000E+00  4.02486927E-02  2.37593957E-01  8.15853851E-01
  1.00000000E+00  1.00000000E+00  0.00000000E+00  0.00000000E+00  0.00000000E+00
  0.00000000E+00  0.00000000E+00  0.00000000E+00  0.00000000E+00  3.83119186E-02
  2.37403116E-01  8.17592398E-01  1.00000000E+00  1.00000000E+00  0.00000000E+00
  0.00000000E+00  0.00000000E+00  0.00000000E+00  0.00000000E+00  0.00000000E+00
  0.00000000E+00  3.83119186E-02  2.37403116E-01  8.17592398E-01  1.00000000E+00
  1.00000000E+00  0.00000000E+00  0.00000000E+00  0.00000000E+00  0.00000000E+00
  0.00000000E+00  0.00000000E+00  0.00000000E+00  0.00000000E+00  0.00000000E+00
  0.00000000E+00  0.00000000E+00  0.00000000E+00  0.00000000E+00  0.00000000E+00
  0.00000000E+00  0.00000000E+00  0.00000000E+00  0.00000000E+00  0.00000000E+00
Coordinates of each shell                  R   N=         270
  3.62456446E+00 -3.39178459E+00  8.74453928E-01  3.62456446E+00 -3.39178459E+00
  8.74453928E-01  3.62456446E+00 -3.39178459E+00  8.74453928E-01  3.62456446E+00
 -3.39178459E+00  8.74453928E-01  3.62456446E+00 -3.39178459E+00  8.74453928E-01
  4.87154749E+00 -3.38362478E+00 -1.09380166E+00  4.87154749E+00 -3.38362478E+00
 -1.09380166E+00  4.87154749E+00 -3.38362478E+00 -1.09380166E+00  4.87154749E+00
 -3.38362478E+00 -1.09380166E+00  4.87154749E+00 -3.38362478E+00 -1.09380166E+00
  1.76208255E+00 -1.70035115E+00  1.40823353E+00  1.76208255E+00 -1.70035115E+00
  1.40823353E+00  1.76208255E+00 -1.70035115E+00  1.40823353E+00  1.76208255E+00
 -1.70035115E+00  1.40823353E+00  1.76208255E+00 -1.70035115E+00  1.40823353E+00
  1.03200008E+00 -1.65735420E+00  3.18137679E+00  1.03200008E+00 -1.65735420E+00
  3.18137679E+00  1.03200008E+00 -1.65735420E+00  3.18137679E+00  1.03200008E+00
 -1.65735420E+00  3.18137679E+00  1.10692966E+00  3.15988535E-01 -3.54342379E-01
  1.10692966E+00  3.15988535E-01 -3.54342379E-01  1.10692966E+00  3.15988535E-01
 -3.54342379E-01  1.10692966E+00  3.15988535E-01 -3.54342379E-01  1.10692966E+00
  3.15988535E-01 -3.54342379E-01  1.32624181E+00 -4.78325725E-01 -2.25386485E+00
  1.32624181E+00 -4.78325725E-01 -2.25386485E+00  1.32624181E+00 -4.78325725E-01
 -2.25386485E+00  1.32624181E+00 -4.78325725E-01 -2.25386485E+00  2.90707716E+00
  2.57820988E+00 -4.27038632E-02  2.90707716E+00  2.57820988E+00 -4.27038632E-02
  2.90707716E+00  2.57820988E+00 -4.27038632E-02  2.90707716E+00  2.57820988E+00
 -4.27038632E-02  2.90707716E+00  2.57820988E+00 -4.27038632E-02  2.26302074E+00
  4.50651101E+00  1.08951232E+00  2.26302074E+00  4.50651101E+00  1.08951232E+00
  2.26302074E+00  4.50651101E+00  1.08951232E+00  2.26302074E+00  4.50651101E+00
  1.08951232E+00  2.26302074E+00  4.50651101E+00  1.08951232E+00 -1.79809337E+00
  2.07592079E+00  1.90625951E+00 -1.79809337E+00  2.07592079E+00  1.90625951E+00
 -1.79809337E+00  2.07592079E+00  1.90625951E+00 -1.79809337E+00  2.07592079E+00
  1.90625951E+00 -2.10805380E+00  2.55884409E+00 -1.39026946E+00 -2.10805380E+00
  2.55884409E+00 -1.39026946E+00 -2.10805380E+00  2.55884409E+00 -1.39026946E+00
 -2.10805380E+00  2.55884409E+00 -1.39026946E+00 -1.59663347E+00  1.18244504E+00
  5.82358582E-02 -1.59663347E+00  1.18244504E+00  5.82358582E-02 -1.59663347E+00
  1.18244504E+00  5.82358582E-02 -1.59663347E+00  1.18244504E+00  5.82358582E-02
 -1.59663347E+00  1.18244504E+00  5.82358582E-02 -3.66744456E+00 -1.58056129E+00
 -1.88335608E-01 -3.66744456E+00 -1.58056129E+00 -1.88335608E-01 -3.66744456E+00
 -1.58056129E+00 -1.88335608E-01 -3.66744456E+00 -1.58056129E+00 -1.88335608E-01
 -3.66744456E+00 -1.58056129E+00 -1.88335608E-01 -3.66744456E+00 -1.58056129E+00
 -1.88335608E-01 -3.66744456E+00 -1.58056129E+00 -1.88335608E-01 -3.66744456E+00
 -1.58056129E+00 -1.88335608E-01 -3.66744456E+00 -1.58056129E+00 -1.88335608E-01
 -3.66744456E+00 -1.58056129E+00 -1.88335608E-01 -3.66744456E+00 -1.58056129E+00
 -1.88335608E-01 -3.66744456E+00 -1.58056129E+00 -1.88335608E-01 -6.46865927E+00
 -2.00272701E-02 -2.42034065E-01 -6.46865927E+00 -2.00272701E-02 -2.42034065E-01
 -6.46865927E+00 -2.00272701E-02 -2.42034065E-01 -6.46865927E+00 -2.00272701E-02
 -2.42034065E-01 -6.46865927E+00 -2.00272701E-02 -2.42034065E-01 -8.45640736E+00
  1.01490586E+00 -2.82865378E-01 -8.45640736E+00  1.01490586E+00 -2.82865378E-01
 -8.45640736E+00  1.01490586E+00 -2.82865378E-01 -8.45640736E+00  1.01490586E+00
 -2.82865378E-01 -8.45640736E+00  1.01490586E+00 -2.82865378E-01  5.20108562E+00
  2.20949591E+00 -1.12883530E+00  5.20108562E+00  2.20949591E+00 -1.12883530E+00
  5.20108562E+00  2.20949591E+00 -1.12883530E+00  5.20108562E+00  2.20949591E+00
 -1.12883530E+00  5.20108562E+00  2.20949591E+00 -1.12883530E+00  3.89693443E+00
 -4.81414366E+00  2.37019295E+00  3.89693443E+00 -4.81414366E+00  2.37019295E+00
  3.89693443E+00 -4.81414366E+00  2.37019295E+00  3.89693443E+00 -4.81414366E+00
  2.37019295E+00  5.70479019E+00  4.54127406E-01 -1.72051422E+00  5.70479019E+00
  4.54127406E-01 -1.72051422E+00  5.70479019E+00  4.54127406E-01 -1.72051422E+00
  5.70479019E+00  4.54127406E-01 -1.72051422E+00  6.56175083E+00  3.50947817E+00
 -7.82883133E-01  6.56175083E+00  3.50947817E+00 -7.82883133E-01  6.56175083E+00
  3.50947817E+00 -7.82883133E-01  6.56175083E+00  3.50947817E+00 -7.82883133E-01
Constraint Structure                       R   N=          54
  3.62456446E+00 -3.39178459E+00  8.74453928E-01  4.87154749E+00 -3.38362478E+00
 -1.09380166E+00  1.76208255E+00 -1.70035115E+00  1.40823353E+00  1.03200008E+00
 -1.65735420E+00  3.18137679E+00  1.10692966E+00  3.15988535E-01 -3.54342379E-01
  1.32624181E+00 -4.78325725E-01 -2.25386485E+00  2.90707716E+00  2.57820988E+00
 -4.27038632E-02  2.26302074E+00  4.50651101E+00  1.08951232E+00 -1.79809337E+00
  2.07592079E+00  1.90625951E+00 -2.10805380E+00  2.55884409E+00 -1.39026946E+00
 -1.59663347E+00  1.18244504E+00  5.82358582E-02 -3.66744456E+00 -1.58056129E+00
 -1.88335608E-01 -6.46865927E+00 -2.00272701E-02 -2.42034065E-01 -8.45640736E+00
  1.01490586E+00 -2.82865378E-01  5.20108562E+00  2.20949591E+00 -1.12883530E+00
  3.89693443E+00 -4.81414366E+00  2.37019295E+00  5.70479019E+00  4.54127406E-01
 -1.72051422E+00  6.56175083E+00  3.50947817E+00 -7.82883133E-01
Num ILSW                                   I              100
ILSW                                       I   N=         100
           0           0           0           0           2           0
           0           0           0           0           0 13421772800
           0           0           0           0           0           0
           0           0           0           0           0           0
           1           0           0           0           0           0
           0           0      100000           0          -1           0
           0           0           0           0           0           0
           0           0           0           1           0           0
           0           0           1           0           0           0
           0           0           4          40           0           0
           0           0           0           0           0           0
           0           0           0           0           0           0
           0           0           0           0           0           0
           0           0           0           0           0           0
           0           0           0           0           0           0
           0           0           0           0           0           0
           0           0           0           0
Num RLSW                                   I               40
RLSW                                       R   N=          40
  1.00000000E+00  1.00000000E+00  1.00000000E+00  1.00000000E+00  1.00000000E+00
  0.00000000E+00  0.00000000E+00  1.00000000E+00  0.00000000E+00  0.00000000E+00
  0.00000000E+00  0.00000000E+00  1.00000000E+00  0.00000000E+00  0.00000000E+00
  0.00000000E+00  0.00000000E+00  1.00000000E+00  0.00000000E+00  0.00000000E+00
  0.00000000E+00  0.00000000E+00  1.00000000E+00  0.00000000E+00  0.00000000E+00
  0.00000000E+00  0.00000000E+00  1.00000000E+00  0.00000000E+00  0.00000000E+00
  0.00000000E+00  0.00000000E+00  0.00000000E+00  0.00000000E+00  0.00000000E+00
  0.00000000E+00  0.00000000E+00  0.00000000E+00  1.00000000E+00  1.00000000E+00
MxBond                                     I                4
NBond                                      I   N=          18
           3           1           3           1           4           1
           3           1           1           1           4           2
           2           1           3           1           1           1
IBond                                      I   N=          72
           2           3          16           0           1           0
           0           0           1           4           5           0
           3           0           0           0           3           6
           7          11           5           0           0           0
           5           8          15           0           7           0
           0           0          11           0           0           0
          11           0           0           0           5           9
          10          12          11          13           0           0
          12          14           0           0          13           0
           0           0           7          17          18           0
           1           0           0           0          15           0
           0           0          15           0           0           0
RBond                                      R   N=          72
  2.00000000E+00  1.50000000E+00  1.00000000E+00  0.00000000E+00  2.00000000E+00
  0.00000000E+00  0.00000000E+00  0.00000000E+00  1.50000000E+00  1.00000000E+00
  1.00000000E+00  0.00000000E+00  1.00000000E+00  0.00000000E+00  0.00000000E+00
  0.00000000E+00  1.00000000E+00  1.00000000E+00  1.00000000E+00  1.00000000E+00
  1.00000000E+00  0.00000000E+00  0.00000000E+00  0.00000000E+00  1.00000000E+00
  2.00000000E+00  1.50000000E+00  0.00000000E+00  2.00000000E+00  0.00000000E+00
  0.00000000E+00  0.00000000E+00  1.00000000E+00  0.00000000E+00  0.00000000E+00
  0.00000000E+00  1.00000000E+00  0.00000000E+00  0.00000000E+00  0.00000000E+00
  1.00000000E+00  1.00000000E+00  1.00000000E+00  1.00000000E+00  1.00000000E+00
  1.00000000E+00  0.00000000E+00  0.00000000E+00  1.00000000E+00  2.00000000E+00
  0.00000000E+00  0.00000000E+00  2.00000000E+00  0.00000000E+00  0.00000000E+00
  0.00000000E+00  1.50000000E+00  1.00000000E+00  1.00000000E+00  0.00000000E+00
  1.00000000E+00  0.00000000E+00  0.00000000E+00  0.00000000E+00  1.00000000E+00
  0.00000000E+00  0.00000000E+00  0.00000000E+00  1.00000000E+00  0.00000000E+00
  0.00000000E+00  0.00000000E+00
Virial Ratio                               R      2.000838019059202E+00
SCF Energy                                 R     -9.041508047800313E+02
MP2 Energy                                 R     -9.058930284447745E+02
Total Energy                               R     -9.058930284447745E+02
Post-SCF wavefunction norm                 R      1.251718323718027E+00
RMS Density                                R      4.883565415870777E-09
External E-field                           R   N=          35
  0.00000000E+00  0.00000000E+00  0.00000000E+00  0.00000000E+00  0.00000000E+00
  0.00000000E+00  0.00000000E+00  0.00000000E+00  0.00000000E+00  0.00000000E+00
  0.00000000E+00  0.00000000E+00  0.00000000E+00  0.00000000E+00  0.00000000E+00
  0.00000000E+00  0.00000000E+00  0.00000000E+00  0.00000000E+00  0.00000000E+00
  0.00000000E+00  0.00000000E+00  0.00000000E+00  0.00000000E+00  0.00000000E+00