ModifiedRes Gaussian Optimization on bme-nova.bme.utexas.edu            
SP        RMP2-FC                                                     6-311G(d,p)         
Number of atoms                            I               18
Info1-9                                    I   N=           9
          29          29           0           0           0         110
           1           2           1
Charge                                     I                0
Multiplicity                               I                1
Number of electrons                        I               90
Number of alpha electrons                  I               45
Number of beta electrons                   I               45
Number of basis functions                  I              248
Number of independent functions            I              248
Number of point charges in /Mol/           I                0
Number of translation vectors              I                0
Atomic numbers                             I   N=          18
           7           1           6           1           6           8
           6          16           6           7           1           1
           6           8           7           1           1           1
Nuclear charges                            R   N=          18
  7.00000000E+00  1.00000000E+00  6.00000000E+00  1.00000000E+00  6.00000000E+00
  8.00000000E+00  6.00000000E+00  1.60000000E+01  6.00000000E+00  7.00000000E+00
  1.00000000E+00  1.00000000E+00  6.00000000E+00  8.00000000E+00  7.00000000E+00
  1.00000000E+00  1.00000000E+00  1.00000000E+00
Current cartesian coordinates              R   N=          54
  1.76223765E+00 -1.70064392E+00  1.40791778E+00  1.03214952E+00 -1.65754304E+00
  3.18106104E+00  1.10691086E+00  3.15926305E-01 -3.54147905E-01  1.32565800E+00
 -4.77972210E-01 -2.25393683E+00  2.90698839E+00  2.57830265E+00 -4.25396250E-02
  2.26288090E+00  4.50647337E+00  1.08990144E+00 -1.59664662E+00  1.18221645E+00
  5.89802423E-02 -3.66748221E+00 -1.58062552E+00 -1.87521304E-01 -6.46864405E+00
 -2.00140895E-02 -2.42432966E-01 -8.45637894E+00  1.01491521E+00 -2.84182685E-01
 -1.79791757E+00  2.07584337E+00  1.90695099E+00 -2.10778352E+00  2.55873265E+00
 -1.38952507E+00  3.62480275E+00 -3.39192424E+00  8.74045580E-01  4.87188027E+00
 -3.38344315E+00 -1.09416277E+00  5.20072096E+00  2.20995345E+00 -1.12921719E+00
  3.89712740E+00 -4.81449306E+00  2.36958618E+00  5.70439345E+00  4.54687005E-01
 -1.72122681E+00  6.56147873E+00  3.50989228E+00 -7.83527698E-01
Force Field                                I                0
Int Atom Types                             I   N=          18
           0           0           0           0           0           0
           0           0           0           0           0           0
           0           0           0           0           0           0
MM charges                                 R   N=          18
  0.00000000E+00  0.00000000E+00  0.00000000E+00  0.00000000E+00  0.00000000E+00
  0.00000000E+00  0.00000000E+00  0.00000000E+00  0.00000000E+00  0.00000000E+00
  0.00000000E+00  0.00000000E+00  0.00000000E+00  0.00000000E+00  0.00000000E+00
  0.00000000E+00  0.00000000E+00  0.00000000E+00
Integer atomic weights                     I   N=          18
          14           1          12           1          12          16
          12          32          12          14           1           1
          12          16          14           1           1           1
Real atomic weights                        R   N=          18
  1.40030740E+01  1.00782504E+00  1.20000000E+01  1.00782504E+00  1.20000000E+01
  1.59949146E+01  1.20000000E+01  3.19720718E+01  1.20000000E+01  1.40030740E+01
  1.00782504E+00  1.00782504E+00  1.20000000E+01  1.59949146E+01  1.40030740E+01
  1.00782504E+00  1.00782504E+00  1.00782504E+00
Atom fragment info                         I   N=          18
           0           0           0           0           0           0
           0           0           0           0           0           0
           0           0           0           0           0           0
Atom residue num                           I   N=          18
           0           0           0           0           0           0
           0           0           0           0           0           0
           0           0           0           0           0           0
Nuclear spins                              I   N=          18
           2           1           0           1           0           0
           0           0           0           2           1           1
           0           0           2           1           1           1
Nuclear ZEff                               R   N=          18
 -4.55000000E+00 -1.00000000E+00 -3.60000000E+00 -1.00000000E+00 -3.60000000E+00
 -5.60000000E+00 -3.60000000E+00 -1.36000000E+01 -3.60000000E+00 -4.55000000E+00
 -1.00000000E+00 -1.00000000E+00 -3.60000000E+00 -5.60000000E+00 -4.55000000E+00
 -1.00000000E+00 -1.00000000E+00 -1.00000000E+00
Nuclear QMom                               R   N=          18
  2.04400000E+00  0.00000000E+00  0.00000000E+00  0.00000000E+00  0.00000000E+00
  0.00000000E+00  0.00000000E+00  0.00000000E+00  0.00000000E+00  2.04400000E+00
  0.00000000E+00  0.00000000E+00  0.00000000E+00  0.00000000E+00  2.04400000E+00
  0.00000000E+00  0.00000000E+00  0.00000000E+00
Nuclear GFac                               R   N=          18
  4.03761000E-01  2.79284600E+00  0.00000000E+00  2.79284600E+00  0.00000000E+00
  0.00000000E+00  0.00000000E+00  0.00000000E+00  0.00000000E+00  4.03761000E-01
  2.79284600E+00  2.79284600E+00  0.00000000E+00  0.00000000E+00  4.03761000E-01
  2.79284600E+00  2.79284600E+00  2.79284600E+00
MicOpt                                     I   N=          18
          -1          -1          -1          -1          -1          -1
          -1          -1          -1          -1          -1          -1
          -1          -1          -1          -1          -1          -1
Number of contracted shells                I               90
Number of primitive shells                 I              185
Pure/Cartesian d shells                    I                0
Pure/Cartesian f shells                    I                0
Highest angular momentum                   I                2
Largest degree of contraction              I                6
Shell types                                I   N=          90
           0          -1          -1          -1          -2           0
           0           0           1           0          -1          -1
          -1          -2           0           0           0           1
           0          -1          -1          -1          -2           0
          -1          -1          -1          -2           0          -1
          -1          -1          -2           0           0           0
           0           0           0           1           1           1
           1           1          -2           0          -1          -1
          -1          -2           0          -1          -1          -1
          -2           0           0           0           1           0
           0           0           1           0          -1          -1
          -1          -2           0          -1          -1          -1
          -2           0          -1          -1          -1          -2
           0           0           0           1           0           0
           0           1           0           0           0           1
Number of primitives per shell             I   N=          90
           6           3           1           1           1           3
           1           1           1           6           3           1
           1           1           3           1           1           1
           6           3           1           1           1           6
           3           1           1           1           6           3
           1           1           1           6           3           1
           1           1           1           4           2           1
           1           1           1           6           3           1
           1           1           6           3           1           1
           1           3           1           1           1           3
           1           1           1           6           3           1
           1           1           6           3           1           1
           1           6           3           1           1           1
           3           1           1           1           3           1
           1           1           3           1           1           1
Shell to atom map                          I   N=          90
           1           1           1           1           1           2
           2           2           2           3           3           3
           3           3           4           4           4           4
           5           5           5           5           5           6
           6           6           6           6           7           7
           7           7           7           8           8           8
           8           8           8           8           8           8
           8           8           8           9           9           9
           9           9          10          10          10          10
          10          11          11          11          11          12
          12          12          12          13          13          13
          13          13          14          14          14          14
          14          15          15          15          15          15
          16          16          16          16          17          17
          17          17          18          18          18          18
Primitive exponents                        R   N=         185
  6.29348000E+03  9.49044000E+02  2.18776000E+02  6.36916000E+01  1.88282000E+01
  2.72023000E+00  3.06331000E+01  7.02614000E+00  2.11205000E+00  6.84009000E-01
  2.00878000E-01  9.13000000E-01  3.38650000E+01  5.09479000E+00  1.15879000E+00
  3.25840000E-01  1.02741000E-01  7.50000000E-01  4.56324000E+03  6.82024000E+02
  1.54973000E+02  4.44553000E+01  1.30290000E+01  1.82773000E+00  2.09642000E+01
  4.80331000E+00  1.45933000E+00  4.83456000E-01  1.45585000E-01  6.26000000E-01
  3.38650000E+01  5.09479000E+00  1.15879000E+00  3.25840000E-01  1.02741000E-01
  7.50000000E-01  4.56324000E+03  6.82024000E+02  1.54973000E+02  4.44553000E+01
  1.30290000E+01  1.82773000E+00  2.09642000E+01  4.80331000E+00  1.45933000E+00
  4.83456000E-01  1.45585000E-01  6.26000000E-01  8.58850000E+03  1.29723000E+03
  2.99296000E+02  8.73771000E+01  2.56789000E+01  3.74004000E+00  4.21175000E+01
  9.62837000E+00  2.85332000E+00  9.05661000E-01  2.55611000E-01  1.29200000E+00
  4.56324000E+03  6.82024000E+02  1.54973000E+02  4.44553000E+01  1.30290000E+01
  1.82773000E+00  2.09642000E+01  4.80331000E+00  1.45933000E+00  4.83456000E-01
  1.45585000E-01  6.26000000E-01  9.34134000E+04  1.39617000E+04  3.16991000E+03
  9.02456000E+02  2.97158000E+02  1.08702000E+02  1.08702000E+02  4.31553000E+01
  1.81079000E+01  5.56009000E+00  2.13183000E+00  4.20403000E-01  1.36045000E-01
  4.95040000E+02  1.17221000E+02  3.77749000E+01  1.40584000E+01  5.56574000E+00
  2.26297000E+00  8.07994000E-01  2.77460000E-01  7.71410000E-02  6.50000000E-01
  4.56324000E+03  6.82024000E+02  1.54973000E+02  4.44553000E+01  1.30290000E+01
  1.82773000E+00  2.09642000E+01  4.80331000E+00  1.45933000E+00  4.83456000E-01
  1.45585000E-01  6.26000000E-01  6.29348000E+03  9.49044000E+02  2.18776000E+02
  6.36916000E+01  1.88282000E+01  2.72023000E+00  3.06331000E+01  7.02614000E+00
  2.11205000E+00  6.84009000E-01  2.00878000E-01  9.13000000E-01  3.38650000E+01
  5.09479000E+00  1.15879000E+00  3.25840000E-01  1.02741000E-01  7.50000000E-01
  3.38650000E+01  5.09479000E+00  1.15879000E+00  3.25840000E-01  1.02741000E-01
  7.50000000E-01  4.56324000E+03  6.82024000E+02  1.54973000E+02  4.44553000E+01
  1.30290000E+01  1.82773000E+00  2.09642000E+01  4.80331000E+00  1.45933000E+00
  4.83456000E-01  1.45585000E-01  6.26000000E-01  8.58850000E+03  1.29723000E+03
  2.99296000E+02  8.73771000E+01  2.56789000E+01  3.74004000E+00  4.21175000E+01
  9.62837000E+00  2.85332000E+00  9.05661000E-01  2.55611000E-01  1.29200000E+00
  6.29348000E+03  9.49044000E+02  2.18776000E+02  6.36916000E+01  1.88282000E+01
  2.72023000E+00  3.06331000E+01  7.02614000E+00  2.11205000E+00  6.84009000E-01
  2.00878000E-01  9.13000000E-01  3.38650000E+01  5.09479000E+00  1.15879000E+00
  3.25840000E-01  1.02741000E-01  7.50000000E-01  3.38650000E+01  5.09479000E+00
  1.15879000E+00  3.25840000E-01  1.02741000E-01  7.50000000E-01  3.38650000E+01
  5.09479000E+00  1.15879000E+00  3.25840000E-01  1.02741000E-01  7.50000000E-01
Contraction coefficients                   R   N=         185
  1.96978815E-03  1.49612859E-02  7.35005308E-02  2.48936766E-01  6.02459433E-01
  2.56201759E-01  1.11906080E-01  9.21666655E-01 -2.56919183E-03  1.00000000E+00
  1.00000000E+00  1.00000000E+00  2.54938145E-02  1.90373109E-01  8.52161486E-01
  1.00000000E+00  1.00000000E+00  1.00000000E+00  1.96665025E-03  1.52306019E-02
  7.61269097E-02  2.60801033E-01  6.16462078E-01  2.21006028E-01  1.14660081E-01
  9.19999648E-01 -3.03068213E-03  1.00000000E+00  1.00000000E+00  1.00000000E+00
  2.54938145E-02  1.90373109E-01  8.52161486E-01  1.00000000E+00  1.00000000E+00
  1.00000000E+00  1.96665025E-03  1.52306019E-02  7.61269097E-02  2.60801033E-01
  6.16462078E-01  2.21006028E-01  1.14660081E-01  9.19999648E-01 -3.03068213E-03
  1.00000000E+00  1.00000000E+00  1.00000000E+00  1.89515008E-03  1.43859006E-02
  7.07320031E-02  2.40001011E-01  5.94797026E-01  2.80802012E-01  1.13889012E-01
  9.20811101E-01 -3.27447036E-03  1.00000000E+00  1.00000000E+00  1.00000000E+00
  1.96665025E-03  1.52306019E-02  7.61269097E-02  2.60801033E-01  6.16462078E-01
  2.21006028E-01  1.14660081E-01  9.19999648E-01 -3.03068213E-03  1.00000000E+00
  1.00000000E+00  1.00000000E+00  7.42999957E-04  5.79299966E-03  2.99539983E-02
  1.19027993E-01  3.68431979E-01  5.77298966E-01  1.43186060E-01  6.24465262E-01
  2.83366119E-01  1.00000000E+00  1.00000000E+00  1.00000000E+00  1.00000000E+00
  8.30900251E-03  6.40240194E-02  2.77614084E-01  7.45076225E-01  6.13711672E-01
  4.43817763E-01  1.00000000E+00  1.00000000E+00  1.00000000E+00  1.00000000E+00
  1.96665025E-03  1.52306019E-02  7.61269097E-02  2.60801033E-01  6.16462078E-01
  2.21006028E-01  1.14660081E-01  9.19999648E-01 -3.03068213E-03  1.00000000E+00
  1.00000000E+00  1.00000000E+00  1.96978815E-03  1.49612859E-02  7.35005308E-02
  2.48936766E-01  6.02459433E-01  2.56201759E-01  1.11906080E-01  9.21666655E-01
 -2.56919183E-03  1.00000000E+00  1.00000000E+00  1.00000000E+00  2.54938145E-02
  1.90373109E-01  8.52161486E-01  1.00000000E+00  1.00000000E+00  1.00000000E+00
  2.54938145E-02  1.90373109E-01  8.52161486E-01  1.00000000E+00  1.00000000E+00
  1.00000000E+00  1.96665025E-03  1.52306019E-02  7.61269097E-02  2.60801033E-01
  6.16462078E-01  2.21006028E-01  1.14660081E-01  9.19999648E-01 -3.03068213E-03
  1.00000000E+00  1.00000000E+00  1.00000000E+00  1.89515008E-03  1.43859006E-02
  7.07320031E-02  2.40001011E-01  5.94797026E-01  2.80802012E-01  1.13889012E-01
  9.20811101E-01 -3.27447036E-03  1.00000000E+00  1.00000000E+00  1.00000000E+00
  1.96978815E-03  1.49612859E-02  7.35005308E-02  2.48936766E-01  6.02459433E-01
  2.56201759E-01  1.11906080E-01  9.21666655E-01 -2.56919183E-03  1.00000000E+00
  1.00000000E+00  1.00000000E+00  2.54938145E-02  1.90373109E-01  8.52161486E-01
  1.00000000E+00  1.00000000E+00  1.00000000E+00  2.54938145E-02  1.90373109E-01
  8.52161486E-01  1.00000000E+00  1.00000000E+00  1.00000000E+00  2.54938145E-02
  1.90373109E-01  8.52161486E-01  1.00000000E+00  1.00000000E+00  1.00000000E+00
P(S=P) Contraction coefficients            R   N=         185
  0.00000000E+00  0.00000000E+00  0.00000000E+00  0.00000000E+00  0.00000000E+00
  0.00000000E+00  3.83119186E-02  2.37403116E-01  8.17592398E-01  1.00000000E+00
  1.00000000E+00  0.00000000E+00  0.00000000E+00  0.00000000E+00  0.00000000E+00
  0.00000000E+00  0.00000000E+00  0.00000000E+00  0.00000000E+00  0.00000000E+00
  0.00000000E+00  0.00000000E+00  0.00000000E+00  0.00000000E+00  4.02486927E-02
  2.37593957E-01  8.15853851E-01  1.00000000E+00  1.00000000E+00  0.00000000E+00
  0.00000000E+00  0.00000000E+00  0.00000000E+00  0.00000000E+00  0.00000000E+00
  0.00000000E+00  0.00000000E+00  0.00000000E+00  0.00000000E+00  0.00000000E+00
  0.00000000E+00  0.00000000E+00  4.02486927E-02  2.37593957E-01  8.15853851E-01
  1.00000000E+00  1.00000000E+00  0.00000000E+00  0.00000000E+00  0.00000000E+00
  0.00000000E+00  0.00000000E+00  0.00000000E+00  0.00000000E+00  3.65113974E-02
  2.37152983E-01  8.19701941E-01  1.00000000E+00  1.00000000E+00  0.00000000E+00
  0.00000000E+00  0.00000000E+00  0.00000000E+00  0.00000000E+00  0.00000000E+00
  0.00000000E+00  4.02486927E-02  2.37593957E-01  8.15853851E-01  1.00000000E+00
  1.00000000E+00  0.00000000E+00  0.00000000E+00  0.00000000E+00  0.00000000E+00
  0.00000000E+00  0.00000000E+00  0.00000000E+00  0.00000000E+00  0.00000000E+00
  0.00000000E+00  0.00000000E+00  0.00000000E+00  0.00000000E+00  0.00000000E+00
  0.00000000E+00  0.00000000E+00  0.00000000E+00  0.00000000E+00  0.00000000E+00
  0.00000000E+00  0.00000000E+00  0.00000000E+00  0.00000000E+00  0.00000000E+00
  0.00000000E+00  0.00000000E+00  0.00000000E+00  0.00000000E+00  0.00000000E+00
  0.00000000E+00  4.02486927E-02  2.37593957E-01  8.15853851E-01  1.00000000E+00
  1.00000000E+00  0.00000000E+00  0.00000000E+00  0.00000000E+00  0.00000000E+00
  0.00000000E+00  0.00000000E+00  0.00000000E+00  3.83119186E-02  2.37403116E-01
  8.17592398E-01  1.00000000E+00  1.00000000E+00  0.00000000E+00  0.00000000E+00
  0.00000000E+00  0.00000000E+00  0.00000000E+00  0.00000000E+00  0.00000000E+00
  0.00000000E+00  0.00000000E+00  0.00000000E+00  0.00000000E+00  0.00000000E+00
  0.00000000E+00  0.00000000E+00  0.00000000E+00  0.00000000E+00  0.00000000E+00
  0.00000000E+00  0.00000000E+00  4.02486927E-02  2.37593957E-01  8.15853851E-01
  1.00000000E+00  1.00000000E+00  0.00000000E+00  0.00000000E+00  0.00000000E+00
  0.00000000E+00  0.00000000E+00  0.00000000E+00  0.00000000E+00  3.65113974E-02
  2.37152983E-01  8.19701941E-01  1.00000000E+00  1.00000000E+00  0.00000000E+00
  0.00000000E+00  0.00000000E+00  0.00000000E+00  0.00000000E+00  0.00000000E+00
  0.00000000E+00  3.83119186E-02  2.37403116E-01  8.17592398E-01  1.00000000E+00
  1.00000000E+00  0.00000000E+00  0.00000000E+00  0.00000000E+00  0.00000000E+00
  0.00000000E+00  0.00000000E+00  0.00000000E+00  0.00000000E+00  0.00000000E+00
  0.00000000E+00  0.00000000E+00  0.00000000E+00  0.00000000E+00  0.00000000E+00
  0.00000000E+00  0.00000000E+00  0.00000000E+00  0.00000000E+00  0.00000000E+00
Coordinates of each shell                  R   N=         270
  1.76223760E+00 -1.70064386E+00  1.40791769E+00  1.76223760E+00 -1.70064386E+00
  1.40791769E+00  1.76223760E+00 -1.70064386E+00  1.40791769E+00  1.76223760E+00
 -1.70064386E+00  1.40791769E+00  1.76223760E+00 -1.70064386E+00  1.40791769E+00
  1.03214947E+00 -1.65754299E+00  3.18106095E+00  1.03214947E+00 -1.65754299E+00
  3.18106095E+00  1.03214947E+00 -1.65754299E+00  3.18106095E+00  1.03214947E+00
 -1.65754299E+00  3.18106095E+00  1.10691080E+00  3.15926357E-01 -3.54147989E-01
  1.10691080E+00  3.15926357E-01 -3.54147989E-01  1.10691080E+00  3.15926357E-01
 -3.54147989E-01  1.10691080E+00  3.15926357E-01 -3.54147989E-01  1.10691080E+00
  3.15926357E-01 -3.54147989E-01  1.32565794E+00 -4.77972156E-01 -2.25393691E+00
  1.32565794E+00 -4.77972156E-01 -2.25393691E+00  1.32565794E+00 -4.77972156E-01
 -2.25393691E+00  1.32565794E+00 -4.77972156E-01 -2.25393691E+00  2.90698830E+00
  2.57830272E+00 -4.25397090E-02  2.90698830E+00  2.57830272E+00 -4.25397090E-02
  2.90698830E+00  2.57830272E+00 -4.25397090E-02  2.90698830E+00  2.57830272E+00
 -4.25397090E-02  2.90698830E+00  2.57830272E+00 -4.25397090E-02  2.26288080E+00
  4.50647344E+00  1.08990135E+00  2.26288080E+00  4.50647344E+00  1.08990135E+00
  2.26288080E+00  4.50647344E+00  1.08990135E+00  2.26288080E+00  4.50647344E+00
  1.08990135E+00  2.26288080E+00  4.50647344E+00  1.08990135E+00 -1.59664669E+00
  1.18221647E+00  5.89801583E-02 -1.59664669E+00  1.18221647E+00  5.89801583E-02
 -1.59664669E+00  1.18221647E+00  5.89801583E-02 -1.59664669E+00  1.18221647E+00
  5.89801583E-02 -1.59664669E+00  1.18221647E+00  5.89801583E-02 -3.66748226E+00
 -1.58062551E+00 -1.87521388E-01 -3.66748226E+00 -1.58062551E+00 -1.87521388E-01
 -3.66748226E+00 -1.58062551E+00 -1.87521388E-01 -3.66748226E+00 -1.58062551E+00
 -1.87521388E-01 -3.66748226E+00 -1.58062551E+00 -1.87521388E-01 -3.66748226E+00
 -1.58062551E+00 -1.87521388E-01 -3.66748226E+00 -1.58062551E+00 -1.87521388E-01
 -3.66748226E+00 -1.58062551E+00 -1.87521388E-01 -3.66748226E+00 -1.58062551E+00
 -1.87521388E-01 -3.66748226E+00 -1.58062551E+00 -1.87521388E-01 -3.66748226E+00
 -1.58062551E+00 -1.87521388E-01 -3.66748226E+00 -1.58062551E+00 -1.87521388E-01
 -6.46864411E+00 -2.00141092E-02 -2.42433050E-01 -6.46864411E+00 -2.00141092E-02
 -2.42433050E-01 -6.46864411E+00 -2.00141092E-02 -2.42433050E-01 -6.46864411E+00
 -2.00141092E-02 -2.42433050E-01 -6.46864411E+00 -2.00141092E-02 -2.42433050E-01
 -8.45637901E+00  1.01491518E+00 -2.84182769E-01 -8.45637901E+00  1.01491518E+00
 -2.84182769E-01 -8.45637901E+00  1.01491518E+00 -2.84182769E-01 -8.45637901E+00
  1.01491518E+00 -2.84182769E-01 -8.45637901E+00  1.01491518E+00 -2.84182769E-01
 -1.79791765E+00  2.07584339E+00  1.90695090E+00 -1.79791765E+00  2.07584339E+00
  1.90695090E+00 -1.79791765E+00  2.07584339E+00  1.90695090E+00 -1.79791765E+00
  2.07584339E+00  1.90695090E+00 -2.10778361E+00  2.55873267E+00 -1.38952516E+00
 -2.10778361E+00  2.55873267E+00 -1.38952516E+00 -2.10778361E+00  2.55873267E+00
 -1.38952516E+00 -2.10778361E+00  2.55873267E+00 -1.38952516E+00  3.62480272E+00
 -3.39192416E+00  8.74045496E-01  3.62480272E+00 -3.39192416E+00  8.74045496E-01
  3.62480272E+00 -3.39192416E+00  8.74045496E-01  3.62480272E+00 -3.39192416E+00
  8.74045496E-01  3.62480272E+00 -3.39192416E+00  8.74045496E-01  4.87188024E+00
 -3.38344306E+00 -1.09416285E+00  4.87188024E+00 -3.38344306E+00 -1.09416285E+00
  4.87188024E+00 -3.38344306E+00 -1.09416285E+00  4.87188024E+00 -3.38344306E+00
 -1.09416285E+00  4.87188024E+00 -3.38344306E+00 -1.09416285E+00  5.20072088E+00
  2.20995355E+00 -1.12921727E+00  5.20072088E+00  2.20995355E+00 -1.12921727E+00
  5.20072088E+00  2.20995355E+00 -1.12921727E+00  5.20072088E+00  2.20995355E+00
 -1.12921727E+00  5.20072088E+00  2.20995355E+00 -1.12921727E+00  3.89712738E+00
 -4.81449298E+00  2.36958610E+00  3.89712738E+00 -4.81449298E+00  2.36958610E+00
  3.89712738E+00 -4.81449298E+00  2.36958610E+00  3.89712738E+00 -4.81449298E+00
  2.36958610E+00  5.70439338E+00  4.54687101E-01 -1.72122690E+00  5.70439338E+00
  4.54687101E-01 -1.72122690E+00  5.70439338E+00  4.54687101E-01 -1.72122690E+00
  5.70439338E+00  4.54687101E-01 -1.72122690E+00  6.56147864E+00  3.50989239E+00
 -7.83527782E-01  6.56147864E+00  3.50989239E+00 -7.83527782E-01  6.56147864E+00
  3.50989239E+00 -7.83527782E-01  6.56147864E+00  3.50989239E+00 -7.83527782E-01
Constraint Structure                       R   N=          54
  1.76223760E+00 -1.70064386E+00  1.40791769E+00  1.03214947E+00 -1.65754299E+00
  3.18106095E+00  1.10691080E+00  3.15926357E-01 -3.54147989E-01  1.32565794E+00
 -4.77972156E-01 -2.25393691E+00  2.90698830E+00  2.57830272E+00 -4.25397090E-02
  2.26288080E+00  4.50647344E+00  1.08990135E+00 -1.59664669E+00  1.18221647E+00
  5.89801583E-02 -3.66748226E+00 -1.58062551E+00 -1.87521388E-01 -6.46864411E+00
 -2.00141092E-02 -2.42433050E-01 -8.45637901E+00  1.01491518E+00 -2.84182769E-01
 -1.79791765E+00  2.07584339E+00  1.90695090E+00 -2.10778361E+00  2.55873267E+00
 -1.38952516E+00  3.62480272E+00 -3.39192416E+00  8.74045496E-01  4.87188024E+00
 -3.38344306E+00 -1.09416285E+00  5.20072088E+00  2.20995355E+00 -1.12921727E+00
  3.89712738E+00 -4.81449298E+00  2.36958610E+00  5.70439338E+00  4.54687101E-01
 -1.72122690E+00  6.56147864E+00  3.50989239E+00 -7.83527782E-01
Num ILSW                                   I              100
ILSW                                       I   N=         100
           0           0           0           0           2           0
           0           0           0           0           0  6710886400
           0           0           0           0           0           0
           0           0           0           0           0           0
           1           0           0           0           0           0
           0           0      100000           0          -1           0
           0           0           0           0           0           0
           0           0           0           1           0           0
           0           0           1           0           0           0
           0           0           4          40           0           0
           0           0           0           0           0           0
           0           0           0           0           0           0
           0           0           0           0           0           0
           0           0           0           0           0           0
           0           0           0           0           0           0
           0           0           0           0           0           0
           0           0           0           0
Num RLSW                                   I               40
RLSW                                       R   N=          40
  1.00000000E+00  1.00000000E+00  1.00000000E+00  1.00000000E+00  1.00000000E+00
  0.00000000E+00  0.00000000E+00  1.00000000E+00  0.00000000E+00  0.00000000E+00
  0.00000000E+00  0.00000000E+00  1.00000000E+00  0.00000000E+00  0.00000000E+00
  0.00000000E+00  0.00000000E+00  1.00000000E+00  0.00000000E+00  0.00000000E+00
  0.00000000E+00  0.00000000E+00  1.00000000E+00  0.00000000E+00  0.00000000E+00
  0.00000000E+00  0.00000000E+00  1.00000000E+00  0.00000000E+00  0.00000000E+00
  0.00000000E+00  0.00000000E+00  0.00000000E+00  0.00000000E+00  0.00000000E+00
  0.00000000E+00  0.00000000E+00  0.00000000E+00  1.00000000E+00  1.00000000E+00
MxBond                                     I                4
NBond                                      I   N=          18
           3           1           4           1           3           1
           4           2           2           1           1           1
           3           1           3           1           1           1
IBond                                      I   N=          72
           2           3          13           0           1           0
           0           0           1           4           5           7
           3           0           0           0           3           6
          15           0           5           0           0           0
           3           8          11          12           7           9
           0           0           8          10           0           0
           9           0           0           0           7           0
           0           0           7           0           0           0
           1          14          16           0          13           0
           0           0           5          17          18           0
          13           0           0           0          15           0
           0           0          15           0           0           0
RBond                                      R   N=          72
  1.00000000E+00  1.00000000E+00  1.50000000E+00  0.00000000E+00  1.00000000E+00
  0.00000000E+00  0.00000000E+00  0.00000000E+00  1.00000000E+00  1.00000000E+00
  1.00000000E+00  1.00000000E+00  1.00000000E+00  0.00000000E+00  0.00000000E+00
  0.00000000E+00  1.00000000E+00  2.00000000E+00  1.50000000E+00  0.00000000E+00
  2.00000000E+00  0.00000000E+00  0.00000000E+00  0.00000000E+00  1.00000000E+00
  1.00000000E+00  1.00000000E+00  1.00000000E+00  1.00000000E+00  1.00000000E+00
  0.00000000E+00  0.00000000E+00  1.00000000E+00  2.00000000E+00  0.00000000E+00
  0.00000000E+00  2.00000000E+00  0.00000000E+00  0.00000000E+00  0.00000000E+00
  1.00000000E+00  0.00000000E+00  0.00000000E+00  0.00000000E+00  1.00000000E+00
  0.00000000E+00  0.00000000E+00  0.00000000E+00  1.50000000E+00  2.00000000E+00
  1.00000000E+00  0.00000000E+00  2.00000000E+00  0.00000000E+00  0.00000000E+00
  0.00000000E+00  1.50000000E+00  1.00000000E+00  1.00000000E+00  0.00000000E+00
  1.00000000E+00  0.00000000E+00  0.00000000E+00  0.00000000E+00  1.00000000E+00
  0.00000000E+00  0.00000000E+00  0.00000000E+00  1.00000000E+00  0.00000000E+00
  0.00000000E+00  0.00000000E+00
Virial Ratio                               R      2.000837893620292E+00
SCF Energy                                 R     -9.041508039399457E+02
MP2 Energy                                 R     -9.058930282319240E+02
Total Energy                               R     -9.058930282319240E+02
Post-SCF wavefunction norm                 R      1.251718095138204E+00
RMS Density                                R      4.884476981395636E-09
External E-field                           R   N=          35
  0.00000000E+00  0.00000000E+00  0.00000000E+00  0.00000000E+00  0.00000000E+00
  0.00000000E+00  0.00000000E+00  0.00000000E+00  0.00000000E+00  0.00000000E+00
  0.00000000E+00  0.00000000E+00  0.00000000E+00  0.00000000E+00  0.00000000E+00
  0.00000000E+00  0.00000000E+00  0.00000000E+00  0.00000000E+00  0.00000000E+00
  0.00000000E+00  0.00000000E+00  0.00000000E+00  0.00000000E+00  0.00000000E+00