
    -----------------------------------------------------------------------
          Psi4: An Open-Source Ab Initio Electronic Structure Package
                               Psi4 1.3.2 release

                         Git: Rev {HEAD} ecbda83 


    R. M. Parrish, L. A. Burns, D. G. A. Smith, A. C. Simmonett,
    A. E. DePrince III, E. G. Hohenstein, U. Bozkaya, A. Yu. Sokolov,
    R. Di Remigio, R. M. Richard, J. F. Gonthier, A. M. James,
    H. R. McAlexander, A. Kumar, M. Saitow, X. Wang, B. P. Pritchard,
    P. Verma, H. F. Schaefer III, K. Patkowski, R. A. King, E. F. Valeev,
    F. A. Evangelista, J. M. Turney, T. D. Crawford, and C. D. Sherrill,
    J. Chem. Theory Comput. 13(7) pp 3185--3197 (2017).
    (doi: 10.1021/acs.jctc.7b00174)


                         Additional Contributions by
    P. Kraus, H. Kruse, M. H. Lechner, M. C. Schieber, R. A. Shaw,
    A. Alenaizan, R. Galvelis, Z. L. Glick, S. Lehtola, and J. P. Misiewicz

    -----------------------------------------------------------------------


    Psi4 started on: Wednesday, 02 June 2021 12:19AM

    Process ID: 78065
    Host:       daniele-Precision-5750
    PSIDATADIR: /home/daniele/anaconda3/envs/poltype/share/psi4
    Memory:     500.0 MiB
    Threads:    1
    
  ==> Input File <==

--------------------------------------------------------------------------
molecule { 
0 1
 C   -1.249847   -1.499766    0.398197
 C   -2.584038   -0.969029   -0.214878
 C   -0.031895   -0.576105    0.231192
 C   -2.759710    0.565749   -0.239773
 C    0.245869    0.440981    1.176588
 C    0.822075   -0.711542   -0.889109
 C    1.354585    1.293117    1.010084
 C    1.931809    0.140143   -1.053820
 C    2.199335    1.142276   -0.103989
 H   -1.027846   -2.496968   -0.004304
 H   -1.403732   -1.670328    1.472406
 H   -2.649684   -1.338168   -1.247568
 H   -3.429625   -1.441347    0.302777
 H   -1.975325    1.052546   -0.828781
 H   -3.722486    0.837159   -0.685544
 H   -2.734477    0.982026    0.772612
 H   -0.398577    0.574687    2.044286
 H    0.627500   -1.478593   -1.637415
 H    1.558037    2.070180    1.744623
 H    2.583350    0.023165   -1.917877
 H    3.056912    1.800297   -0.231424
}
set optking { 
  frozen_dihedral = ("
    4 2 1 3
    2 1 3 5
    2 1 3 6
    1 2 4 14
  ")
}
set {
  geom_maxiter 400
  g_convergence GAU_LOOSE
  dynamic_level 1
}
memory 700MB
set_num_threads(8)
psi4_io.set_default_path("/home/daniele/PSI4_sctatch/Psi4-propbenzene")
for _ in range(1):
  try:
    set opt_coordinates both
    optimize('wb97x-d/6-311G')
    break
  except OptimizationConvergenceError:
    break
  else:
    try:
      set opt_coordinates cartesian
      optimize('wb97x-d/6-311G')
      break
    except OptimizationConvergenceError:
      pass
clean()
--------------------------------------------------------------------------

  Memory set to 667.572 MiB by Python driver.
  Threads set to 8 by Python driver.
gradient() will perform analytic gradient computation.

*** tstart() called on daniele-Precision-5750
*** at Wed Jun  2 00:19:58 2021

   => Loading Basis Set <=

    Name: 6-311G
    Role: ORBITAL
    Keyword: BASIS
    atoms 1-9   entry C          line    92 file /home/daniele/anaconda3/envs/poltype/share/psi4/basis/6-311g.gbs 
    atoms 10-21 entry H          line    21 file /home/daniele/anaconda3/envs/poltype/share/psi4/basis/6-311g.gbs 


         ---------------------------------------------------------
                                   SCF
               by Justin Turney, Rob Parrish, Andy Simmonett
                          and Daniel G. A. Smith
                              RKS Reference
                        8 Threads,    667 MiB Core
         ---------------------------------------------------------

  ==> Geometry <==

    Molecular point group: c1
    Full point group: C1

    Geometry (in Angstrom), charge = 0, multiplicity = 1:

       Center              X                  Y                   Z               Mass       
    ------------   -----------------  -----------------  -----------------  -----------------
         C           -1.162813273847    -1.473253838753     0.368586810422    12.000000000000
         C           -2.497004273847    -0.942516838753    -0.244488189578    12.000000000000
         C            0.055138726153    -0.549592838753     0.201581810422    12.000000000000
         C           -2.672676273847     0.592261161247    -0.269383189578    12.000000000000
         C            0.332902726153     0.467493161247     1.146977810422    12.000000000000
         C            0.909108726153    -0.685029838753    -0.918719189578    12.000000000000
         C            1.441618726153     1.319629161247     0.980473810422    12.000000000000
         C            2.018842726153     0.166655161247    -1.083430189578    12.000000000000
         C            2.286368726153     1.168788161247    -0.133599189578    12.000000000000
         H           -0.940812273847    -2.470455838753    -0.033914189578     1.007825032230
         H           -1.316698273847    -1.643815838753     1.442795810422     1.007825032230
         H           -2.562650273847    -1.311655838753    -1.277178189578     1.007825032230
         H           -3.342591273847    -1.414834838753     0.273166810422     1.007825032230
         H           -1.888291273847     1.079058161247    -0.858391189578     1.007825032230
         H           -3.635452273847     0.863671161247    -0.715154189578     1.007825032230
         H           -2.647443273847     1.008538161247     0.743001810422     1.007825032230
         H           -0.311543273847     0.601199161247     2.014675810422     1.007825032230
         H            0.714533726153    -1.452080838753    -1.667025189578     1.007825032230
         H            1.645070726153     2.096692161247     1.715012810422     1.007825032230
         H            2.670383726153     0.049677161247    -1.947487189578     1.007825032230
         H            3.143945726153     1.826809161247    -0.261034189578     1.007825032230

  Running in c1 symmetry.

  Rotational constants: A =      0.10476  B =      0.03553  C =      0.03204 [cm^-1]
  Rotational constants: A =   3140.48130  B =   1065.25349  C =    960.60667 [MHz]
  Nuclear repulsion =  416.582524650344169

  Charge       = 0
  Multiplicity = 1
  Electrons    = 66
  Nalpha       = 33
  Nbeta        = 33

  ==> Algorithm <==

  SCF Algorithm Type is DF.
  DIIS enabled.
  MOM disabled.
  Fractional occupation disabled.
  Guess Type is SAD.
  Energy threshold   = 1.00e-08
  Density threshold  = 1.00e-08
  Integral threshold = 0.00e+00

  ==> Primary Basis <==

  Basis Set: 6-311G
    Blend: 6-311G
    Number of shells: 99
    Number of basis function: 153
    Number of Cartesian functions: 153
    Spherical Harmonics?: true
    Max angular momentum: 1

  ==> DFT Potential <==

   => Composite Functional: WB97X-D <= 

    wB97X-D Hyb-GGA Exchange-Correlation Functional

    J.-D. Chai and M. Head-Gordon, Phys. Chem. Chem. Phys. 10, 6615 (2008)

    Deriv               =              1
    GGA                 =           TRUE
    Meta                =          FALSE

    Exchange Hybrid     =           TRUE
    MP2 Hybrid          =          FALSE

   => Exchange-Correlation Functionals <=

    1.0000   wB97D range-separated functional

   => Exact (HF) Exchange <=

    0.7780            HF,LR [omega = 0.2000]
    0.2220               HF 

   => Molecular Quadrature <=

    Radial Scheme          =       TREUTLER
    Pruning Scheme         =           FLAT
    Nuclear Scheme         =       TREUTLER

    BS radius alpha        =              1
    Pruning alpha          =              1
    Radial Points          =             75
    Spherical Points       =            302
    Total Points           =         470130
    Total Blocks           =           3463
    Max Points             =            256
    Max Functions          =            139

   => WB97X-D: Empirical Dispersion <=

    Chai and Head-Gordon Dispersion Correction
    Chai, J.-D.; Head-Gordon, M. (2010), J. Chem. Phys., 132: 6615-6620

        s6 =       1.000000

   => Loading Basis Set <=

    Name: (6-311G AUX)
    Role: JKFIT
    Keyword: DF_BASIS_SCF
    atoms 1-9   entry C          line   125 file /home/daniele/anaconda3/envs/poltype/share/psi4/basis/cc-pvtz-jkfit.gbs 
    atoms 10-21 entry H          line    51 file /home/daniele/anaconda3/envs/poltype/share/psi4/basis/cc-pvtz-jkfit.gbs 

  ==> Pre-Iterations <==

   -------------------------------------------------------
    Irrep   Nso     Nmo     Nalpha   Nbeta   Ndocc  Nsocc
   -------------------------------------------------------
     A        153     153       0       0       0       0
   -------------------------------------------------------
    Total     153     153      33      33      33       0
   -------------------------------------------------------

  ==> Integral Setup <==

  ==> DiskDFJK: Density-Fitted J/K Matrices <==

    J tasked:                  Yes
    K tasked:                  Yes
    wK tasked:                 Yes
    Omega:               2.000E-01
    OpenMP threads:              8
    Integrals threads:           8
    Memory [MiB]:              116
    Algorithm:                Disk
    Integral Cache:           NONE
    Schwarz Cutoff:          1E-12
    Fitting Condition:       1E-10

   => Auxiliary Basis Set <=

  Basis Set: (6-311G AUX)
    Blend: CC-PVTZ-JKFIT
    Number of shells: 345
    Number of basis function: 1071
    Number of Cartesian functions: 1284
    Spherical Harmonics?: true
    Max angular momentum: 4

  Cached 33.4% of DFT collocation blocks in 0.444 [GiB].

  Minimum eigenvalue in the overlap matrix is 2.7614666089E-04.
  Using Symmetric Orthogonalization.

  SCF Guess: Superposition of Atomic Densities via on-the-fly atomic UHF.

  ==> Iterations <==

                           Total Energy        Delta E     RMS |[F,P]|

   @DF-RKS iter SAD:  -349.21697370583178   -3.49217e+02   0.00000e+00 
   @DF-RKS iter   1:  -349.71464908712306   -4.97675e-01   5.14444e-03 DIIS
   @DF-RKS iter   2:  -349.89365607377027   -1.79007e-01   3.67500e-03 DIIS
   @DF-RKS iter   3:  -350.05834219714109   -1.64686e-01   2.63142e-04 DIIS
   @DF-RKS iter   4:  -350.05912989135476   -7.87694e-04   1.72184e-04 DIIS
   @DF-RKS iter   5:  -350.05950039012140   -3.70499e-04   3.77470e-05 DIIS
   @DF-RKS iter   6:  -350.05951712675403   -1.67366e-05   1.38811e-05 DIIS
   @DF-RKS iter   7:  -350.05951969897905   -2.57223e-06   1.83738e-06 DIIS
   @DF-RKS iter   8:  -350.05951975486551   -5.58865e-08   7.73541e-07 DIIS
   @DF-RKS iter   9:  -350.05951976297888   -8.11337e-09   1.85463e-07 DIIS
   @DF-RKS iter  10:  -350.05951976374701   -7.68125e-10   4.84416e-08 DIIS
   @DF-RKS iter  11:  -350.05951976382215   -7.51470e-11   2.54014e-08 DIIS
   @DF-RKS iter  12:  -350.05951976384307   -2.09184e-11   7.96794e-09 DIIS
  Energy and wave function converged.


  ==> Post-Iterations <==

    Orbital Energies [Eh]
    ---------------------

    Doubly Occupied:                                                      

       1A    -10.304378     2A    -10.293641     3A    -10.293532  
       4A    -10.291761     5A    -10.291515     6A    -10.291385  
       7A    -10.288533     8A    -10.284343     9A    -10.267600  
      10A     -0.958320    11A     -0.893042    12A     -0.845387  
      13A     -0.841679    14A     -0.779992    15A     -0.704098  
      16A     -0.699400    17A     -0.663201    18A     -0.600594  
      19A     -0.557627    20A     -0.547962    21A     -0.530946  
      22A     -0.521000    23A     -0.507779    24A     -0.494475  
      25A     -0.470195    26A     -0.451494    27A     -0.443915  
      28A     -0.426714    29A     -0.422340    30A     -0.406164  
      31A     -0.401312    32A     -0.327334    33A     -0.317472  

    Virtual:                                                              

      34A      0.061988    35A      0.063664    36A      0.116804  
      37A      0.138291    38A      0.144747    39A      0.161530  
      40A      0.172978    41A      0.175727    42A      0.192478  
      43A      0.201205    44A      0.204993    45A      0.216935  
      46A      0.222191    47A      0.228131    48A      0.249789  
      49A      0.270579    50A      0.306345    51A      0.333240  
      52A      0.353256    53A      0.363714    54A      0.372583  
      55A      0.378750    56A      0.389626    57A      0.397392  
      58A      0.415127    59A      0.421898    60A      0.458342  
      61A      0.465672    62A      0.476086    63A      0.486652  
      64A      0.495733    65A      0.504624    66A      0.518900  
      67A      0.536976    68A      0.546264    69A      0.564560  
      70A      0.569522    71A      0.581673    72A      0.607144  
      73A      0.613878    74A      0.633304    75A      0.641266  
      76A      0.663647    77A      0.668490    78A      0.672593  
      79A      0.684214    80A      0.691964    81A      0.698603  
      82A      0.710555    83A      0.713937    84A      0.719291  
      85A      0.733476    86A      0.734628    87A      0.742910  
      88A      0.754604    89A      0.774381    90A      0.779707  
      91A      0.825226    92A      0.853367    93A      0.861091  
      94A      0.873229    95A      0.902763    96A      0.925019  
      97A      0.960792    98A      0.974609    99A      1.003461  
     100A      1.102321   101A      1.115657   102A      1.154055  
     103A      1.160881   104A      1.244475   105A      1.368335  
     106A      2.298919   107A      2.346255   108A      2.353925  
     109A      2.357752   110A      2.360939   111A      2.381536  
     112A      2.393508   113A      2.402691   114A      2.420027  
     115A      2.440288   116A      2.458821   117A      2.603839  
     118A      2.648167   119A      2.675973   120A      2.725322  
     121A      2.792036   122A      2.798817   123A      2.820550  
     124A      2.853843   125A      2.903415   126A      2.920965  
     127A      2.943921   128A      2.953062   129A      2.959696  
     130A      2.968073   131A      3.014353   132A      3.055130  
     133A      3.112372   134A      3.128431   135A      3.150085  
     136A      3.179828   137A      3.213225   138A      3.232794  
     139A      3.278034   140A      3.297317   141A      3.337647  
     142A      3.369101   143A      3.376505   144A      3.531298  
     145A     23.264415   146A     23.467697   147A     23.483883  
     148A     23.541713   149A     23.638132   150A     23.725982  
     151A     23.740504   152A     23.751026   153A     23.991493  

    Final Occupation by Irrep:
              A 
    DOCC [    33 ]

  @DF-RKS Final Energy:  -350.05951976384307

   => Energetics <=

    Nuclear Repulsion Energy =            416.5825246503441690
    One-Electron Energy =               -1295.8491330566639590
    Two-Electron Energy =                 565.5372732120417822
    DFT Exchange-Correlation Energy =     -36.3177313115730698
    Empirical Dispersion Energy =          -0.0124532579919195
    VV10 Nonlocal Energy =                  0.0000000000000000
    Total Energy =                       -350.0595197638430705

Computation Completed


Properties will be evaluated at   0.000000,   0.000000,   0.000000 [a0]

Properties computed using the SCF density matrix

  Nuclear Dipole Moment: [e a0]
     X:    -7.9418      Y:    -0.7192      Z:    -0.5358

  Electronic Dipole Moment: [e a0]
     X:     7.8133      Y:     0.6807      Z:     0.5168

  Dipole Moment: [e a0]
     X:    -0.1286      Y:    -0.0385      Z:    -0.0190     Total:     0.1355

  Dipole Moment: [D]
     X:    -0.3268      Y:    -0.0978      Z:    -0.0484     Total:     0.3445


*** tstop() called on daniele-Precision-5750 at Wed Jun  2 00:20:10 2021
Module time:
	user time   =      81.02 seconds =       1.35 minutes
	system time =       2.53 seconds =       0.04 minutes
	total time  =         12 seconds =       0.20 minutes
Total time:
	user time   =      81.02 seconds =       1.35 minutes
	system time =       2.53 seconds =       0.04 minutes
	total time  =         12 seconds =       0.20 minutes

*** tstart() called on daniele-Precision-5750
*** at Wed Jun  2 00:20:10 2021


         ------------------------------------------------------------
                                   SCF GRAD                          
                          Rob Parrish, Justin Turney,                
                       Andy Simmonett, and Alex Sokolov              
         ------------------------------------------------------------

  ==> Geometry <==

    Molecular point group: c1
    Full point group: C1

    Geometry (in Angstrom), charge = 0, multiplicity = 1:

       Center              X                  Y                   Z               Mass       
    ------------   -----------------  -----------------  -----------------  -----------------
         C           -1.162813273847    -1.473253838753     0.368586810422    12.000000000000
         C           -2.497004273847    -0.942516838753    -0.244488189578    12.000000000000
         C            0.055138726153    -0.549592838753     0.201581810422    12.000000000000
         C           -2.672676273847     0.592261161247    -0.269383189578    12.000000000000
         C            0.332902726153     0.467493161247     1.146977810422    12.000000000000
         C            0.909108726153    -0.685029838753    -0.918719189578    12.000000000000
         C            1.441618726153     1.319629161247     0.980473810422    12.000000000000
         C            2.018842726153     0.166655161247    -1.083430189578    12.000000000000
         C            2.286368726153     1.168788161247    -0.133599189578    12.000000000000
         H           -0.940812273847    -2.470455838753    -0.033914189578     1.007825032230
         H           -1.316698273847    -1.643815838753     1.442795810422     1.007825032230
         H           -2.562650273847    -1.311655838753    -1.277178189578     1.007825032230
         H           -3.342591273847    -1.414834838753     0.273166810422     1.007825032230
         H           -1.888291273847     1.079058161247    -0.858391189578     1.007825032230
         H           -3.635452273847     0.863671161247    -0.715154189578     1.007825032230
         H           -2.647443273847     1.008538161247     0.743001810422     1.007825032230
         H           -0.311543273847     0.601199161247     2.014675810422     1.007825032230
         H            0.714533726153    -1.452080838753    -1.667025189578     1.007825032230
         H            1.645070726153     2.096692161247     1.715012810422     1.007825032230
         H            2.670383726153     0.049677161247    -1.947487189578     1.007825032230
         H            3.143945726153     1.826809161247    -0.261034189578     1.007825032230

  Nuclear repulsion =  416.582524650344169

  ==> Basis Set <==

  Basis Set: 6-311G
    Blend: 6-311G
    Number of shells: 99
    Number of basis function: 153
    Number of Cartesian functions: 153
    Spherical Harmonics?: true
    Max angular momentum: 1

  ==> DFJKGrad: Density-Fitted SCF Gradients <==

    Gradient:                    1
    J tasked:                  Yes
    K tasked:                  Yes
    wK tasked:                 Yes
    Omega:               2.000E-01
    OpenMP threads:              8
    Integrals threads:           8
    Memory [MiB]:              500
    Schwarz Cutoff:          0E+00
    Fitting Condition:       1E-10

   => Auxiliary Basis Set <=

  Basis Set: (6-311G AUX)
    Blend: CC-PVTZ-JKFIT
    Number of shells: 345
    Number of basis function: 1071
    Number of Cartesian functions: 1284
    Spherical Harmonics?: true
    Max angular momentum: 4

  ==> DFT Potential <==

   => Composite Functional: WB97X-D <= 

    wB97X-D Hyb-GGA Exchange-Correlation Functional

    J.-D. Chai and M. Head-Gordon, Phys. Chem. Chem. Phys. 10, 6615 (2008)

    Deriv               =              1
    GGA                 =           TRUE
    Meta                =          FALSE

    Exchange Hybrid     =           TRUE
    MP2 Hybrid          =          FALSE

   => Exchange-Correlation Functionals <=

    1.0000   wB97D range-separated functional

   => Exact (HF) Exchange <=

    0.7780            HF,LR [omega = 0.2000]
    0.2220               HF 

   => Molecular Quadrature <=

    Radial Scheme          =       TREUTLER
    Pruning Scheme         =           FLAT
    Nuclear Scheme         =       TREUTLER

    BS radius alpha        =              1
    Pruning alpha          =              1
    Radial Points          =             75
    Spherical Points       =            302
    Total Points           =         470130
    Total Blocks           =           3463
    Max Points             =            256
    Max Functions          =            139


  -Total Gradient:
     Atom            X                  Y                   Z
    ------   -----------------  -----------------  -----------------
       1       -0.003261954707    -0.006811159029    -0.009487797319
       2       -0.002454415234     0.000437885723     0.010642344915
       3        0.000708639442     0.001330015624     0.004060018751
       4        0.000198669450     0.004743174106    -0.003036436950
       5       -0.007283979325     0.001460124627     0.008469824177
       6       -0.002650005584    -0.008585405385    -0.007310516368
       7        0.002953212251     0.006973005162     0.006013715595
       8        0.006069416580    -0.000887469136    -0.006978463979
       9        0.005414559660     0.004282755679    -0.000342229015
      10        0.000182296099    -0.004782252832     0.002221553274
      11       -0.000745204041    -0.003453288202     0.001412021746
      12       -0.000973749391    -0.002583527373    -0.000974094738
      13       -0.003248246167    -0.002523606957    -0.001056482182
      14        0.000988830095     0.002385388368    -0.002648346691
      15       -0.001312014214     0.002015136846    -0.001079131513
      16       -0.000869507461    -0.000231333633     0.001712618505
      17       -0.001724938834     0.002372216718     0.003840859357
      18        0.000623150365    -0.002100966268    -0.004187573503
      19        0.001044895284     0.003386211332     0.002879425694
      20        0.002835236961    -0.000242196577    -0.003492072714
      21        0.003552695765     0.002866916189    -0.000584083294


*** tstop() called on daniele-Precision-5750 at Wed Jun  2 00:20:15 2021
Module time:
	user time   =      38.06 seconds =       0.63 minutes
	system time =       0.45 seconds =       0.01 minutes
	total time  =          5 seconds =       0.08 minutes
Total time:
	user time   =     119.09 seconds =       1.98 minutes
	system time =       2.98 seconds =       0.05 minutes
	total time  =         17 seconds =       0.28 minutes

			-----------------------------------------
			 OPTKING 2.0: for geometry optimizations 
			  - R.A. King,  Bethel University        
			-----------------------------------------
	At level 1: Red. Int., RFO, no backsteps, dynamic trust

	Internal coordinates to be generated automatically.
	Detected frag 1 with atoms:  1 2 3 4 5 6 7 8 9 10 11 12 13 14 15 16 17 18 19 20
	 21
	---Fragment 1 Bond Connectivity---
	 1 : 2 3 10 11
	 2 : 1 4 12 13
	 3 : 1 5 6
	 4 : 2 14 15 16
	 5 : 3 7 17
	 6 : 3 8 18
	 7 : 5 9 19
	 8 : 6 9 20
	 9 : 7 8 21
	 10 : 1
	 11 : 1
	 12 : 2
	 13 : 2
	 14 : 4
	 15 : 4
	 16 : 4
	 17 : 5
	 18 : 6
	 19 : 7
	 20 : 8
	 21 : 9

	Assuming in current code that numbering for constraints corresponds to unified fragment.
	Frozen dihedral atom list: 
	     4     2     1     3
	     2     1     3     5
	     2     1     3     6
	     1     2     4    14
	---Fragment 1 Geometry and Gradient---
	 C          -2.1973986226       -2.7840462685        0.6965281252
	 C          -4.7186542117       -1.7810986939       -0.4620157192
	 C           0.1041970913       -1.0385799458        0.3809344136
	 C          -5.0506261796        1.1192113895       -0.5090604511
	 C           0.6290949788        0.8834340403        2.1674739337
	 C           1.7179665107       -1.2945187830       -1.7361276545
	 C           2.7242645698        2.4937377019        1.8528269749
	 C           3.8150598428        0.3149326121       -2.0473863344
	 C           4.3206107142        2.2086895234       -0.2524658789
	 H          -1.7778775330       -4.6684849403       -0.0640885301
	 H          -2.4881991274       -3.1063617359        2.7264889367
	 H          -4.8427071729       -2.4786703061       -2.4135169917
	 H          -6.3165820569       -2.6736503580        0.5162104583
	 H          -3.5683533527        2.0391243982       -1.6221242568
	 H          -6.8700091397        1.6321019572       -1.3514455558
	 H          -5.0029427203        1.9058609118        1.4040699324
	 H          -0.5887314638        1.1361017616        3.8071855133
	 H           1.3502730498       -2.7440350973       -3.1502210525
	 H           3.1087331294        3.9621739542        3.2409045133
	 H           5.0462938923        0.0938762294       -3.6802174211
	 H           5.9411963757        3.4521689982       -0.4932831277
	            -0.0032619547       -0.0068111590       -0.0094877973
	            -0.0024544152        0.0004378857        0.0106423449
	             0.0007086394        0.0013300156        0.0040600188
	             0.0001986695        0.0047431741       -0.0030364370
	            -0.0072839793        0.0014601246        0.0084698242
	            -0.0026500056       -0.0085854054       -0.0073105164
	             0.0029532123        0.0069730052        0.0060137156
	             0.0060694166       -0.0008874691       -0.0069784640
	             0.0054145597        0.0042827557       -0.0003422290
	             0.0001822961       -0.0047822528        0.0022215533
	            -0.0007452040       -0.0034532882        0.0014120217
	            -0.0009737494       -0.0025835274       -0.0009740947
	            -0.0032482462       -0.0025236070       -0.0010564822
	             0.0009888301        0.0023853884       -0.0026483467
	            -0.0013120142        0.0020151368       -0.0010791315
	            -0.0008695075       -0.0002313336        0.0017126185
	            -0.0017249388        0.0023722167        0.0038408594
	             0.0006231504       -0.0021009663       -0.0041875735
	             0.0010448953        0.0033862113        0.0028794257
	             0.0028352370       -0.0002421966       -0.0034920727
	             0.0035526958        0.0028669162       -0.0005840833

	Previous optimization step data not found.  Starting new optimization.

	---Fragment 1 Intrafragment Coordinates---
	 - Coordinate -           - BOHR/RAD -       - ANG/DEG -
	 R(1,2)           =         2.950400	       1.561284
	 R(1,3)           =         2.905786	       1.537676
	 R(1,10)          =         2.075005	       1.098045
	 R(1,11)          =         2.075860	       1.098498
	 R(2,4)           =         2.919626	       1.545000
	 R(2,12)          =         2.076139	       1.098645
	 R(2,13)          =         2.075319	       1.098211
	 R(3,5)           =         2.676075	       1.416118
	 R(3,6)           =         2.674268	       1.415162
	 R(4,14)          =         2.069368	       1.095062
	 R(4,15)          =         2.069498	       1.095131
	 R(4,16)          =         2.069096	       1.094919
	 R(5,7)           =         2.661168	       1.408230
	 R(5,17)          =         2.058056	       1.089077
	 R(6,8)           =         2.661769	       1.408548
	 R(6,18)          =         2.058144	       1.089123
	 R(7,9)           =         2.657411	       1.406241
	 R(7,19)          =         2.056910	       1.088470
	 R(8,9)           =         2.657750	       1.406421
	 R(8,20)          =         2.056925	       1.088478
	 R(9,21)          =         2.056826	       1.088425
	 B(1,2,4)         =         2.027709	     116.179163
	 B(1,2,12)        =         1.881726	     107.814965
	 B(1,2,13)        =         1.903588	     109.067546
	 B(1,3,5)         =         2.110964	     120.949327
	 B(1,3,6)         =         2.101873	     120.428476
	 B(2,1,3)         =         2.015313	     115.468903
	 B(2,1,10)        =         1.915108	     109.727606
	 B(2,1,11)        =         1.893426	     108.485330
	 B(2,4,14)        =         1.948534	     111.642802
	 B(2,4,15)        =         1.931266	     110.653411
	 B(2,4,16)        =         1.939231	     111.109750
	 B(3,1,10)        =         1.923641	     110.216483
	 B(3,1,11)        =         1.886446	     108.085382
	 B(3,5,7)         =         2.106094	     120.670274
	 B(3,5,17)        =         2.099024	     120.265220
	 B(3,6,8)         =         2.106134	     120.672561
	 B(3,6,18)        =         2.098454	     120.232559
	 B(4,2,12)        =         1.887917	     108.169660
	 B(4,2,13)        =         1.925466	     110.321101
	 B(5,3,6)         =         2.070166	     118.611769
	 B(5,7,9)         =         2.096375	     120.113427
	 B(5,7,19)        =         2.093659	     119.957808
	 B(6,8,9)         =         2.096396	     120.114661
	 B(6,8,20)        =         2.093749	     119.962983
	 B(7,5,17)        =         2.078067	     119.064484
	 B(7,9,8)         =         2.091168	     119.815110
	 B(7,9,21)        =         2.095798	     120.080400
	 B(8,6,18)        =         2.078598	     119.094871
	 B(8,9,21)        =         2.096218	     120.104428
	 B(9,7,19)        =         2.093152	     119.928760
	 B(9,8,20)        =         2.093040	     119.922348
	 B(10,1,11)       =         1.819111	     104.227356
	 B(12,2,13)       =         1.826114	     104.628647
	 B(14,4,15)       =         1.876129	     107.494250
	 B(14,4,16)       =         1.887900	     108.168676
	 B(15,4,16)       =         1.878008	     107.601918
	*D(1,2,4,14)      =         1.053525	      60.362530
	 D(1,2,4,15)      =        -3.140811	    -179.955213
	 D(1,2,4,16)      =        -1.055696	     -60.486933
	 D(1,3,5,7)       =        -3.129313	    -179.296446
	 D(1,3,5,17)      =         0.011321	       0.648626
	 D(1,3,6,8)       =         3.130904	     179.387566
	 D(1,3,6,18)      =        -0.010080	      -0.577547
	*D(2,1,3,5)       =         1.524882	      87.369295
	*D(2,1,3,6)       =        -1.595923	     -91.439632
	*D(3,1,2,4)       =        -0.532278	     -30.497270
	 D(3,1,2,12)      =         1.588835	      91.033563
	 D(3,1,2,13)      =        -2.721024	    -155.903181
	 D(3,5,7,9)       =         0.001881	       0.107777
	 D(3,5,7,19)      =        -3.140128	    -179.916066
	 D(3,6,8,9)       =        -0.004852	      -0.277993
	 D(3,6,8,20)      =         3.137344	     179.756590
	 D(4,2,1,10)      =        -2.718657	    -155.767555
	 D(4,2,1,11)      =         1.587468	      90.955199
	 D(5,3,1,10)      =        -2.576329	    -147.612803
	 D(5,3,1,11)      =        -0.598619	     -34.298329
	 D(5,3,6,8)       =         0.009619	       0.551145
	 D(5,3,6,18)      =        -3.131364	    -179.413969
	 D(5,7,9,8)       =         0.003061	       0.175407
	 D(5,7,9,21)      =        -3.140106	    -179.914803
	 D(6,3,1,10)      =         0.586051	      33.578270
	 D(6,3,1,11)      =         2.563762	     146.892744
	 D(6,3,5,7)       =        -0.008139	      -0.466320
	 D(6,3,5,17)      =         3.132495	     179.478752
	 D(6,8,9,7)       =        -0.001589	      -0.091042
	 D(6,8,9,21)      =         3.141593	     180.000000
	 D(7,9,8,20)      =         3.139400	     179.874389
	 D(8,9,7,19)      =        -3.138115	    -179.800757
	 D(9,7,5,17)      =        -3.138764	    -179.837947
	 D(9,8,6,18)      =         3.136139	     179.687513
	 D(10,1,2,12)     =        -0.597544	     -34.236722
	 D(10,1,2,13)     =         1.375783	      78.826534
	 D(11,1,2,12)     =        -2.574604	    -147.513968
	 D(11,1,2,13)     =        -0.601278	     -34.450712
	 D(12,2,4,14)     =        -1.064299	     -60.979855
	 D(12,2,4,15)     =         1.024550	      58.702402
	 D(12,2,4,16)     =         3.109665	     178.170683
	 D(13,2,4,14)     =        -3.052063	    -174.870329
	 D(13,2,4,15)     =        -0.963214	     -55.188072
	 D(13,2,4,16)     =         1.121901	      64.280208
	 D(17,5,7,19)     =         0.002412	       0.138210
	 D(18,6,8,20)     =        -0.004850	      -0.277904
	 D(19,7,9,21)     =         0.001903	       0.109032
	 D(20,8,9,21)     =        -0.000617	      -0.035379
	 R(4,5)           =         6.283205	       3.324929

	Current energy   :      -350.0595197638

	Generating empirical Hessian (Schlegel '84) for each fragment.
	Taking RFO optimization step.
	Going to follow RFO solution 1.
	Using RFO vector 1.
	Norm of target step-size    0.17771
	Projected energy change by RFO approximation:        -0.0036006050

	Back-transformation to cartesian coordinates...
	Successfully converged to displaced geometry.

	Back-transformation to cartesian coordinates to adjust frozen coordinates...
	Successfully converged to displaced geometry.

	--- Internal Coordinate Step in ANG or DEG, aJ/ANG or AJ/DEG ---
	 ---------------------------------------------------------------------------
	   Coordinate                Previous        Force       Change         New 
	   ----------                --------       ------       ------       ------
	    1 R(1,2)          =      1.561284    -0.034841    -0.010087     1.551198
	    2 R(1,3)          =      1.537676    -0.112928    -0.025994     1.511682
	    3 R(1,10)         =      1.098045    -0.029338    -0.005477     1.092568
	    4 R(1,11)         =      1.098498    -0.016675    -0.003117     1.095380
	    5 R(2,4)          =      1.545000    -0.071655    -0.016373     1.528626
	    6 R(2,12)         =      1.098645    -0.015185    -0.002840     1.095805
	    7 R(2,13)         =      1.098211    -0.025452    -0.004754     1.093457
	    8 R(3,5)          =      1.416118    -0.127958    -0.019619     1.396499
	    9 R(3,6)          =      1.415162    -0.130220    -0.019361     1.395800
	   10 R(4,14)         =      1.095062    -0.026375    -0.004876     1.090186
	   11 R(4,15)         =      1.095131    -0.017277    -0.003195     1.091936
	   12 R(4,16)         =      1.094919    -0.012097    -0.002236     1.092683
	   13 R(5,7)          =      1.408230    -0.114381    -0.016395     1.391835
	   14 R(5,17)         =      1.089077    -0.035999    -0.006527     1.082550
	   15 R(6,8)          =      1.408548    -0.111310    -0.015988     1.392560
	   16 R(6,18)         =      1.089123    -0.035042    -0.006354     1.082769
	   17 R(7,9)          =      1.406241    -0.101750    -0.014270     1.391971
	   18 R(7,19)         =      1.088470    -0.037469    -0.006780     1.081690
	   19 R(8,9)          =      1.406421    -0.106841    -0.015013     1.391408
	   20 R(8,20)         =      1.088478    -0.037056    -0.006705     1.081773
	   21 R(9,21)         =      1.088425    -0.037860    -0.006850     1.081576
	   22 B(1,2,4)        =    116.179163     0.000126    -0.381679   115.797485
	   23 B(1,2,12)       =    107.814965     0.000025     0.545600   108.360565
	   24 B(1,2,13)       =    109.067546    -0.000095    -0.549558   108.517988
	   25 B(1,3,5)        =    120.949327     0.000125     0.220516   121.169843
	   26 B(1,3,6)        =    120.428476    -0.000066    -0.045060   120.383415
	   27 B(2,1,3)        =    115.468903     0.000267    -0.060996   115.407906
	   28 B(2,1,10)       =    109.727606    -0.000126    -0.572344   109.155261
	   29 B(2,1,11)       =    108.485330    -0.000058     0.197128   108.682458
	   30 B(2,4,14)       =    111.642802    -0.000128    -0.673760   110.969042
	   31 B(2,4,15)       =    110.653411    -0.000136    -0.472743   110.180668
	   32 B(2,4,16)       =    111.109750     0.000113     0.467460   111.577210
	   33 B(3,1,10)       =    110.216483    -0.000124    -0.669676   109.546807
	   34 B(3,1,11)       =    108.085382    -0.000154    -0.611038   107.474345
	   35 B(3,5,7)        =    120.670274     0.000075     0.184572   120.854845
	   36 B(3,5,17)       =    120.265220    -0.000194    -0.810473   119.454747
	   37 B(3,6,8)        =    120.672561     0.000102     0.262799   120.935360
	   38 B(3,6,18)       =    120.232559    -0.000209    -0.855972   119.376587
	   39 B(4,2,12)       =    108.169660    -0.000118    -0.427254   107.742405
	   40 B(4,2,13)       =    110.321101    -0.000051    -0.367976   109.953125
	   41 B(5,3,6)        =    118.611769    -0.000058    -0.175419   118.436350
	   42 B(5,7,9)        =    120.113427     0.000009     0.061515   120.174942
	   43 B(5,7,19)       =    119.957808    -0.000028    -0.139014   119.818794
	   44 B(6,8,9)        =    120.114661    -0.000015    -0.024165   120.090496
	   45 B(6,8,20)       =    119.962983    -0.000014    -0.087004   119.875979
	   46 B(7,5,17)       =    119.064484     0.000119     0.625902   119.690387
	   47 B(7,9,8)        =    119.815110    -0.000112    -0.308435   119.506675
	   48 B(7,9,21)       =    120.080400     0.000056     0.154924   120.235324
	   49 B(8,6,18)       =    119.094871     0.000107     0.592896   119.687767
	   50 B(8,9,21)       =    120.104428     0.000056     0.152641   120.257070
	   51 B(9,7,19)       =    119.928760     0.000019     0.077208   120.005968
	   52 B(9,8,20)       =    119.922348     0.000029     0.110757   120.033105
	   53 B(10,1,11)      =    104.227356     0.000190     1.937746   106.165102
	   54 B(12,2,13)      =    104.628647     0.000117     1.391752   106.020399
	   55 B(14,4,15)      =    107.494250     0.000160     0.817686   108.311936
	   56 B(14,4,16)      =    108.168676    -0.000041    -0.455768   107.712908
	   57 B(15,4,16)      =    107.601918     0.000040     0.362662   107.964581
	   58 *D(1,2,4,14)    =     60.362530    -0.000000    -0.000000    60.362530
	   59 D(1,2,4,15)     =   -179.955213     0.000006     0.274122  -179.681091
	   60 D(1,2,4,16)     =    -60.486933     0.000014     0.721013   -59.765920
	   61 D(1,3,5,7)      =   -179.296446     0.000006     0.854702  -178.441744
	   62 D(1,3,5,17)     =      0.648626     0.000006     0.963338     1.611964
	   63 D(1,3,6,8)      =    179.387566    -0.000006    -0.976006   178.411560
	   64 D(1,3,6,18)     =     -0.577547    -0.000005    -0.815694    -1.393241
	   65 *D(2,1,3,5)     =     87.369295     0.000000    -0.000000    87.369295
	   66 *D(2,1,3,6)     =    -91.439632    -0.000000     0.000000   -91.439632
	   67 *D(3,1,2,4)     =    -30.497270     0.000000    -0.000000   -30.497270
	   68 D(3,1,2,12)     =     91.033563    -0.000011    -0.396247    90.637316
	   69 D(3,1,2,13)     =   -155.903181     0.000012     1.237861  -154.665320
	   70 D(3,5,7,9)      =      0.107777    -0.000002    -0.247214    -0.139438
	   71 D(3,5,7,19)     =   -179.916066    -0.000000    -0.025633  -179.941698
	   72 D(3,6,8,9)      =     -0.277993     0.000003     0.496596     0.218602
	   73 D(3,6,8,20)     =    179.756590     0.000001     0.226251   179.982841
	   74 D(4,2,1,10)     =   -155.767555     0.000015     1.413972  -154.353584
	   75 D(4,2,1,11)     =     90.955199    -0.000014    -0.685901    90.269298
	   76 D(5,3,1,10)     =   -147.612803    -0.000015    -1.367360  -148.980163
	   77 D(5,3,1,11)     =    -34.298329     0.000003     0.247120   -34.051209
	   78 D(5,3,6,8)      =      0.551145    -0.000006    -0.980631    -0.429486
	   79 D(5,3,6,18)     =   -179.413969    -0.000006    -0.820318  -180.234287
	   80 D(5,7,9,8)      =      0.175407    -0.000002    -0.255697    -0.080290
	   81 D(5,7,9,21)     =   -179.914803     0.000001     0.184548  -179.730256
	   82 D(6,3,1,10)     =     33.578270    -0.000015    -1.367360    32.210910
	   83 D(6,3,1,11)     =    146.892744     0.000003     0.247120   147.139864
	   84 D(6,3,5,7)      =     -0.466320     0.000006     0.856109     0.389789
	   85 D(6,3,5,17)     =    179.478752     0.000006     0.964744   180.443496
	   86 D(6,8,9,7)      =     -0.091042     0.000001     0.132323     0.041281
	   87 D(6,8,9,21)     =    180.000000    -0.000002    -0.308830   179.691170
	   88 D(7,9,8,20)     =    179.874389     0.000003     0.403027   180.277415
	   89 D(8,9,7,19)     =   -179.800757    -0.000003    -0.477644  -180.278401
	   90 D(9,7,5,17)     =   -179.837947    -0.000002    -0.355323  -180.193271
	   91 D(9,8,6,18)     =    179.687513     0.000002     0.335289   180.022802
	   92 D(10,1,2,12)    =    -34.236722     0.000004     1.017725   -33.218997
	   93 D(10,1,2,13)    =     78.826534     0.000027     2.651833    81.478367
	   94 D(11,1,2,12)    =   -147.513968    -0.000026    -1.082148  -148.596116
	   95 D(11,1,2,13)    =    -34.450712    -0.000002     0.551960   -33.898752
	   96 D(12,2,4,14)    =    -60.979855    -0.000006    -0.123555   -61.103409
	   97 D(12,2,4,15)    =     58.702402    -0.000000     0.150567    58.852969
	   98 D(12,2,4,16)    =    178.170683     0.000008     0.597458   178.768141
	   99 D(13,2,4,14)    =   -174.870329    -0.000017    -1.347327  -176.217656
	  100 D(13,2,4,15)    =    -55.188072    -0.000011    -1.073204   -56.261277
	  101 D(13,2,4,16)    =     64.280208    -0.000003    -0.626313    63.653895
	  102 D(17,5,7,19)    =      0.138210    -0.000001    -0.133741     0.004468
	  103 D(18,6,8,20)    =     -0.277904     0.000000     0.064944    -0.212960
	  104 D(19,7,9,21)    =      0.109032    -0.000000    -0.037399     0.071633
	  105 D(20,8,9,21)    =     -0.035379    -0.000000    -0.037317    -0.072696
	  106 R(4,5)          =      3.324929    -0.020874    -0.046591     3.278338
	 ---------------------------------------------------------------------------
	Successfully symmetrized geometry.

  ==> Convergence Check <==

  Measures of convergence in internal coordinates in au.
  Criteria marked as inactive (o), active & met (*), and active & unmet ( ).
  --------------------------------------------------------------------------------------------- ~
   Step     Total Energy     Delta E     MAX Force     RMS Force      MAX Disp      RMS Disp    ~
  --------------------------------------------------------------------------------------------- ~
    Convergence Criteria             o    2.50e-03 *    1.70e-03 *    1.00e-02 *    6.70e-03 *  ~
  --------------------------------------------------------------------------------------------- ~
      1    -350.05951976   -3.50e+02 o    1.58e-02      4.02e-03      8.80e-02      1.73e-02    ~
  ---------------------------------------------------------------------------------------------

	Writing optimization data to binary file.
	Structure for next step:
	Cartesian Geometry (in Angstrom)
	    C    -1.1485351534  -1.4570690706   0.3762044550
	    C    -2.4731935944  -0.9306791769  -0.2356841281
	    C     0.0492938507  -0.5505206365   0.2072091553
	    C    -2.6356134807   0.5890455904  -0.2631535048
	    C     0.3283485440   0.4583558884   1.1316037653
	    C     0.8905930119  -0.6908829472  -0.8976765412
	    C     1.4145797168   1.3099841177   0.9526191093
	    C     1.9782098978   0.1590510682  -1.0818629636
	    C     2.2432685196   1.1634569995  -0.1561581658
	    H    -0.9250862690  -2.4403037608  -0.0445396388
	    H    -1.2952870373  -1.6113407255   1.4506911960
	    H    -2.5447382256  -1.2928639132  -1.2674265322
	    H    -3.3092627544  -1.3856350259   0.3025098479
	    H    -1.8460405360   1.0551941884  -0.8528871482
	    H    -3.5975387409   0.8571599372  -0.7048997005
	    H    -2.5957408502   1.0156685732   0.7420127380
	    H    -0.3091727778   0.5773448196   1.9983920457
	    H     0.6905810671  -1.4705246500  -1.6219291575
	    H     1.6158008313   2.0852023367   1.6796681979
	    H     2.6192978902   0.0346727968  -1.9442829094
	    H     3.0901743700   1.8219189796  -0.2939410994
			--------------------------
			 OPTKING Finished Execution 
			--------------------------

    Structure for next step:
    Molecular point group: c1
    Full point group: C1

    Geometry (in Angstrom), charge = 0, multiplicity = 1:

    C           -1.142628259768    -1.455815884818     0.377568169727
    C           -2.467286705991    -0.929425988965    -0.234320415747
    C            0.055200749034    -0.549267447152     0.208572869403
    C           -2.629706592907     0.590298784272    -0.261789792498
    C            0.334255443440     0.459609081732     1.132967483040
    C            0.896499913478    -0.689629758377    -0.896312831419
    C            1.420486620512     1.311237314388     0.953982826329
    C            1.984116803677     0.160304260401    -1.080499254534
    C            2.249175426559     1.164710195632    -0.154794453082
    H           -0.919179374493    -2.439050578829    -0.043175925679
    H           -1.289380144275    -1.610087540286     1.452054915025
    H           -2.538831337447    -1.291610726756    -1.266062823881
    H           -3.303355869320    -1.384381839755     0.303873562403
    H           -1.840133645150     1.056447384058    -0.851523438255
    H           -3.591631856931     0.858413132079    -0.703535989980
    H           -2.589833962268     1.016921768702     0.743376454230
    H           -0.303265880932     0.578598013404     1.999755766804
    H            0.696487967969    -1.469271464208    -1.620565450617
    H            1.621707735824     2.086455536497     1.681031917773
    H            2.625204798579     0.035925988532    -1.942919203751
    H            3.096081280226     1.823172178277    -0.292577387305

gradient() will perform analytic gradient computation.

*** tstart() called on daniele-Precision-5750
*** at Wed Jun  2 00:20:15 2021

   => Loading Basis Set <=

    Name: 6-311G
    Role: ORBITAL
    Keyword: BASIS
    atoms 1-9   entry C          line    92 file /home/daniele/anaconda3/envs/poltype/share/psi4/basis/6-311g.gbs 
    atoms 10-21 entry H          line    21 file /home/daniele/anaconda3/envs/poltype/share/psi4/basis/6-311g.gbs 


         ---------------------------------------------------------
                                   SCF
               by Justin Turney, Rob Parrish, Andy Simmonett
                          and Daniel G. A. Smith
                              RKS Reference
                        8 Threads,    667 MiB Core
         ---------------------------------------------------------

  ==> Geometry <==

    Molecular point group: c1
    Full point group: C1

    Geometry (in Angstrom), charge = 0, multiplicity = 1:

       Center              X                  Y                   Z               Mass       
    ------------   -----------------  -----------------  -----------------  -----------------
         C           -1.142628259768    -1.455815884818     0.377568169727    12.000000000000
         C           -2.467286705991    -0.929425988965    -0.234320415747    12.000000000000
         C            0.055200749034    -0.549267447152     0.208572869403    12.000000000000
         C           -2.629706592907     0.590298784272    -0.261789792498    12.000000000000
         C            0.334255443440     0.459609081732     1.132967483040    12.000000000000
         C            0.896499913478    -0.689629758377    -0.896312831419    12.000000000000
         C            1.420486620512     1.311237314388     0.953982826329    12.000000000000
         C            1.984116803677     0.160304260401    -1.080499254534    12.000000000000
         C            2.249175426559     1.164710195632    -0.154794453082    12.000000000000
         H           -0.919179374493    -2.439050578829    -0.043175925679     1.007825032230
         H           -1.289380144275    -1.610087540286     1.452054915025     1.007825032230
         H           -2.538831337447    -1.291610726756    -1.266062823881     1.007825032230
         H           -3.303355869320    -1.384381839755     0.303873562403     1.007825032230
         H           -1.840133645150     1.056447384058    -0.851523438255     1.007825032230
         H           -3.591631856931     0.858413132079    -0.703535989980     1.007825032230
         H           -2.589833962268     1.016921768702     0.743376454230     1.007825032230
         H           -0.303265880932     0.578598013404     1.999755766804     1.007825032230
         H            0.696487967969    -1.469271464208    -1.620565450617     1.007825032230
         H            1.621707735824     2.086455536497     1.681031917773     1.007825032230
         H            2.625204798579     0.035925988532    -1.942919203751     1.007825032230
         H            3.096081280226     1.823172178277    -0.292577387305     1.007825032230

  Running in c1 symmetry.

  Rotational constants: A =      0.10678  B =      0.03653  C =      0.03296 [cm^-1]
  Rotational constants: A =   3201.32806  B =   1095.17022  C =    988.19016 [MHz]
  Nuclear repulsion =  421.477639875071532

  Charge       = 0
  Multiplicity = 1
  Electrons    = 66
  Nalpha       = 33
  Nbeta        = 33

  ==> Algorithm <==

  SCF Algorithm Type is DF.
  DIIS enabled.
  MOM disabled.
  Fractional occupation disabled.
  Guess Type is READ.
  Energy threshold   = 1.00e-08
  Density threshold  = 1.00e-08
  Integral threshold = 0.00e+00

  ==> Primary Basis <==

  Basis Set: 6-311G
    Blend: 6-311G
    Number of shells: 99
    Number of basis function: 153
    Number of Cartesian functions: 153
    Spherical Harmonics?: true
    Max angular momentum: 1

  ==> DFT Potential <==

   => Composite Functional: WB97X-D <= 

    wB97X-D Hyb-GGA Exchange-Correlation Functional

    J.-D. Chai and M. Head-Gordon, Phys. Chem. Chem. Phys. 10, 6615 (2008)

    Deriv               =              1
    GGA                 =           TRUE
    Meta                =          FALSE

    Exchange Hybrid     =           TRUE
    MP2 Hybrid          =          FALSE

   => Exchange-Correlation Functionals <=

    1.0000   wB97D range-separated functional

   => Exact (HF) Exchange <=

    0.7780            HF,LR [omega = 0.2000]
    0.2220               HF 

   => Molecular Quadrature <=

    Radial Scheme          =       TREUTLER
    Pruning Scheme         =           FLAT
    Nuclear Scheme         =       TREUTLER

    BS radius alpha        =              1
    Pruning alpha          =              1
    Radial Points          =             75
    Spherical Points       =            302
    Total Points           =         470114
    Total Blocks           =           3458
    Max Points             =            256
    Max Functions          =            139

   => WB97X-D: Empirical Dispersion <=

    Chai and Head-Gordon Dispersion Correction
    Chai, J.-D.; Head-Gordon, M. (2010), J. Chem. Phys., 132: 6615-6620

        s6 =       1.000000

   => Loading Basis Set <=

    Name: (6-311G AUX)
    Role: JKFIT
    Keyword: DF_BASIS_SCF
    atoms 1-9   entry C          line   125 file /home/daniele/anaconda3/envs/poltype/share/psi4/basis/cc-pvtz-jkfit.gbs 
    atoms 10-21 entry H          line    51 file /home/daniele/anaconda3/envs/poltype/share/psi4/basis/cc-pvtz-jkfit.gbs 

   => Loading Basis Set <=

    Name: 6-311G
    Role: ORBITAL
    Keyword: BASIS
    atoms 1-9   entry C          line    92 file /home/daniele/anaconda3/envs/poltype/share/psi4/basis/6-311g.gbs 
    atoms 10-21 entry H          line    21 file /home/daniele/anaconda3/envs/poltype/share/psi4/basis/6-311g.gbs 

  Reading orbitals from file 180, no projection.

  ==> Pre-Iterations <==

   -------------------------------------------------------
    Irrep   Nso     Nmo     Nalpha   Nbeta   Ndocc  Nsocc
   -------------------------------------------------------
     A        153     153       0       0       0       0
   -------------------------------------------------------
    Total     153     153      33      33      33       0
   -------------------------------------------------------

  ==> Integral Setup <==

  ==> DiskDFJK: Density-Fitted J/K Matrices <==

    J tasked:                  Yes
    K tasked:                  Yes
    wK tasked:                 Yes
    Omega:               2.000E-01
    OpenMP threads:              8
    Integrals threads:           8
    Memory [MiB]:              116
    Algorithm:                Disk
    Integral Cache:           NONE
    Schwarz Cutoff:          1E-12
    Fitting Condition:       1E-10

   => Auxiliary Basis Set <=

  Basis Set: (6-311G AUX)
    Blend: CC-PVTZ-JKFIT
    Number of shells: 345
    Number of basis function: 1071
    Number of Cartesian functions: 1284
    Spherical Harmonics?: true
    Max angular momentum: 4

  Cached 33.3% of DFT collocation blocks in 0.446 [GiB].

  Minimum eigenvalue in the overlap matrix is 2.4410383775E-04.
  Using Symmetric Orthogonalization.

  SCF Guess: Orbitals guess was supplied from a previous computation.

  ==> Iterations <==

                           Total Energy        Delta E     RMS |[F,P]|

   @DF-RKS iter   0:  -350.13364212846483   -3.50134e+02   6.26098e-04 
   @DF-RKS iter   1:  -350.06171167986798    7.19304e-02   9.70395e-05 DIIS
   @DF-RKS iter   2:  -350.06181972509569   -1.08045e-04   6.57417e-05 DIIS
   @DF-RKS iter   3:  -350.06187429026545   -5.45652e-05   8.53290e-06 DIIS
   @DF-RKS iter   4:  -350.06187570621995   -1.41595e-06   4.33874e-06 DIIS
   @DF-RKS iter   5:  -350.06187599935424   -2.93134e-07   1.72644e-06 DIIS
   @DF-RKS iter   6:  -350.06187605427499   -5.49207e-08   5.46877e-07 DIIS
   @DF-RKS iter   7:  -350.06187605889420   -4.61921e-09   1.25272e-07 DIIS
   @DF-RKS iter   8:  -350.06187605932053   -4.26326e-10   2.55761e-08 DIIS
   @DF-RKS iter   9:  -350.06187605933417   -1.36424e-11   1.32902e-08 DIIS
   @DF-RKS iter  10:  -350.06187605933690   -2.72848e-12   2.90576e-09 DIIS
  Energy and wave function converged.


  ==> Post-Iterations <==

    Orbital Energies [Eh]
    ---------------------

    Doubly Occupied:                                                      

       1A    -10.296441     2A    -10.288552     3A    -10.288425  
       4A    -10.286475     5A    -10.285690     6A    -10.285432  
       7A    -10.283919     8A    -10.281170     9A    -10.264835  
      10A     -0.967098    11A     -0.899299    12A     -0.849292  
      13A     -0.846347    14A     -0.782207    15A     -0.706311  
      16A     -0.702089    17A     -0.664221    18A     -0.603942  
      19A     -0.562997    20A     -0.548412    21A     -0.533376  
      22A     -0.524188    23A     -0.509287    24A     -0.497904  
      25A     -0.471945    26A     -0.455335    27A     -0.444859  
      28A     -0.426395    29A     -0.421835    30A     -0.407127  
      31A     -0.402081    32A     -0.329264    33A     -0.318924  

    Virtual:                                                              

      34A      0.065734    35A      0.067550    36A      0.117334  
      37A      0.139530    38A      0.144719    39A      0.162586  
      40A      0.174304    41A      0.176994    42A      0.195187  
      43A      0.203220    44A      0.206853    45A      0.219111  
      46A      0.223804    47A      0.235294    48A      0.253365  
      49A      0.278512    50A      0.310677    51A      0.339546  
      52A      0.359711    53A      0.369652    54A      0.378401  
      55A      0.384560    56A      0.395801    57A      0.402802  
      58A      0.417920    59A      0.422850    60A      0.457244  
      61A      0.464081    62A      0.478161    63A      0.489507  
      64A      0.500124    65A      0.511580    66A      0.524173  
      67A      0.540441    68A      0.550289    69A      0.570042  
      70A      0.573065    71A      0.587519    72A      0.611633  
      73A      0.620015    74A      0.638278    75A      0.645392  
      76A      0.670564    77A      0.673907    78A      0.677943  
      79A      0.686713    80A      0.695306    81A      0.701600  
      82A      0.714300    83A      0.721858    84A      0.723054  
      85A      0.736249    86A      0.738822    87A      0.746915  
      88A      0.756685    89A      0.778695    90A      0.790447  
      91A      0.830016    92A      0.858980    93A      0.867014  
      94A      0.884988    95A      0.918235    96A      0.935841  
      97A      0.971071    98A      0.984222    99A      1.015039  
     100A      1.107608   101A      1.121433   102A      1.162724  
     103A      1.163749   104A      1.248083   105A      1.373736  
     106A      2.304424   107A      2.346274   108A      2.356651  
     109A      2.362091   110A      2.368282   111A      2.387466  
     112A      2.396018   113A      2.406676   114A      2.423806  
     115A      2.444567   116A      2.469090   117A      2.615438  
     118A      2.655058   119A      2.680414   120A      2.732980  
     121A      2.775225   122A      2.784813   123A      2.817966  
     124A      2.856120   125A      2.905291   126A      2.928435  
     127A      2.939077   128A      2.948149   129A      2.962142  
     130A      2.966875   131A      3.022728   132A      3.056022  
     133A      3.117303   134A      3.124035   135A      3.163062  
     136A      3.197885   137A      3.221731   138A      3.248899  
     139A      3.293447   140A      3.317353   141A      3.361679  
     142A      3.400567   143A      3.413000   144A      3.544814  
     145A     23.264810   146A     23.469525   147A     23.489519  
     148A     23.549212   149A     23.649761   150A     23.747250  
     151A     23.758130   152A     23.768541   153A     24.027868  

    Final Occupation by Irrep:
              A 
    DOCC [    33 ]

  @DF-RKS Final Energy:  -350.06187605933690

   => Energetics <=

    Nuclear Repulsion Energy =            421.4776398750715316
    One-Electron Energy =               -1305.5586635043125625
    Two-Electron Energy =                 570.4289474315988855
    DFT Exchange-Correlation Energy =     -36.3971339230464181
    Empirical Dispersion Energy =          -0.0126659386483246
    VV10 Nonlocal Energy =                  0.0000000000000000
    Total Energy =                       -350.0618760593368393

Computation Completed


Properties will be evaluated at   0.000000,   0.000000,   0.000000 [a0]

Properties computed using the SCF density matrix

  Nuclear Dipole Moment: [e a0]
     X:    -7.8149      Y:    -0.6923      Z:    -0.5065

  Electronic Dipole Moment: [e a0]
     X:     7.6903      Y:     0.6542      Z:     0.4886

  Dipole Moment: [e a0]
     X:    -0.1246      Y:    -0.0381      Z:    -0.0179     Total:     0.1315

  Dipole Moment: [D]
     X:    -0.3166      Y:    -0.0968      Z:    -0.0454     Total:     0.3342


*** tstop() called on daniele-Precision-5750 at Wed Jun  2 00:20:24 2021
Module time:
	user time   =      69.88 seconds =       1.16 minutes
	system time =       1.94 seconds =       0.03 minutes
	total time  =          9 seconds =       0.15 minutes
Total time:
	user time   =     190.32 seconds =       3.17 minutes
	system time =       4.96 seconds =       0.08 minutes
	total time  =         26 seconds =       0.43 minutes

*** tstart() called on daniele-Precision-5750
*** at Wed Jun  2 00:20:24 2021


         ------------------------------------------------------------
                                   SCF GRAD                          
                          Rob Parrish, Justin Turney,                
                       Andy Simmonett, and Alex Sokolov              
         ------------------------------------------------------------

  ==> Geometry <==

    Molecular point group: c1
    Full point group: C1

    Geometry (in Angstrom), charge = 0, multiplicity = 1:

       Center              X                  Y                   Z               Mass       
    ------------   -----------------  -----------------  -----------------  -----------------
         C           -1.142628259768    -1.455815884818     0.377568169727    12.000000000000
         C           -2.467286705991    -0.929425988965    -0.234320415747    12.000000000000
         C            0.055200749034    -0.549267447152     0.208572869403    12.000000000000
         C           -2.629706592907     0.590298784272    -0.261789792498    12.000000000000
         C            0.334255443440     0.459609081732     1.132967483040    12.000000000000
         C            0.896499913478    -0.689629758377    -0.896312831419    12.000000000000
         C            1.420486620512     1.311237314388     0.953982826329    12.000000000000
         C            1.984116803677     0.160304260401    -1.080499254534    12.000000000000
         C            2.249175426559     1.164710195632    -0.154794453082    12.000000000000
         H           -0.919179374493    -2.439050578829    -0.043175925679     1.007825032230
         H           -1.289380144275    -1.610087540286     1.452054915025     1.007825032230
         H           -2.538831337447    -1.291610726756    -1.266062823881     1.007825032230
         H           -3.303355869320    -1.384381839755     0.303873562403     1.007825032230
         H           -1.840133645150     1.056447384058    -0.851523438255     1.007825032230
         H           -3.591631856931     0.858413132079    -0.703535989980     1.007825032230
         H           -2.589833962268     1.016921768702     0.743376454230     1.007825032230
         H           -0.303265880932     0.578598013404     1.999755766804     1.007825032230
         H            0.696487967969    -1.469271464208    -1.620565450617     1.007825032230
         H            1.621707735824     2.086455536497     1.681031917773     1.007825032230
         H            2.625204798579     0.035925988532    -1.942919203751     1.007825032230
         H            3.096081280226     1.823172178277    -0.292577387305     1.007825032230

  Nuclear repulsion =  421.477639875071532

  ==> Basis Set <==

  Basis Set: 6-311G
    Blend: 6-311G
    Number of shells: 99
    Number of basis function: 153
    Number of Cartesian functions: 153
    Spherical Harmonics?: true
    Max angular momentum: 1

  ==> DFJKGrad: Density-Fitted SCF Gradients <==

    Gradient:                    1
    J tasked:                  Yes
    K tasked:                  Yes
    wK tasked:                 Yes
    Omega:               2.000E-01
    OpenMP threads:              8
    Integrals threads:           8
    Memory [MiB]:              500
    Schwarz Cutoff:          0E+00
    Fitting Condition:       1E-10

   => Auxiliary Basis Set <=

  Basis Set: (6-311G AUX)
    Blend: CC-PVTZ-JKFIT
    Number of shells: 345
    Number of basis function: 1071
    Number of Cartesian functions: 1284
    Spherical Harmonics?: true
    Max angular momentum: 4

  ==> DFT Potential <==

   => Composite Functional: WB97X-D <= 

    wB97X-D Hyb-GGA Exchange-Correlation Functional

    J.-D. Chai and M. Head-Gordon, Phys. Chem. Chem. Phys. 10, 6615 (2008)

    Deriv               =              1
    GGA                 =           TRUE
    Meta                =          FALSE

    Exchange Hybrid     =           TRUE
    MP2 Hybrid          =          FALSE

   => Exchange-Correlation Functionals <=

    1.0000   wB97D range-separated functional

   => Exact (HF) Exchange <=

    0.7780            HF,LR [omega = 0.2000]
    0.2220               HF 

   => Molecular Quadrature <=

    Radial Scheme          =       TREUTLER
    Pruning Scheme         =           FLAT
    Nuclear Scheme         =       TREUTLER

    BS radius alpha        =              1
    Pruning alpha          =              1
    Radial Points          =             75
    Spherical Points       =            302
    Total Points           =         470114
    Total Blocks           =           3458
    Max Points             =            256
    Max Functions          =            139


  -Total Gradient:
     Atom            X                  Y                   Z
    ------   -----------------  -----------------  -----------------
       1        0.000591360325    -0.001971409307    -0.009571254918
       2       -0.001370072077     0.002358401384     0.008091404947
       3        0.001969948323     0.003203953873     0.004058722685
       4        0.000953544924    -0.000096480785    -0.003339084407
       5       -0.000498052513    -0.000767101306    -0.001412711991
       6       -0.000963085530    -0.000799153966     0.002197588583
       7        0.000177659234    -0.000820301648    -0.001325894296
       8       -0.000715743097     0.000630898520     0.001322283765
       9       -0.001248383593    -0.000865202717     0.000219562011
      10        0.000477212499    -0.000118740310    -0.000105631519
      11        0.000776577723     0.000163338569     0.000480984502
      12       -0.000145980624    -0.000085253816    -0.000405848192
      13       -0.000227342215     0.000083966221     0.000092156463
      14        0.000081320714    -0.000535891482    -0.000105016707
      15       -0.000230272498    -0.000262259946    -0.000207665943
      16       -0.000057873080    -0.000549348714     0.000214499371
      17        0.000256289226     0.000174407551    -0.000259940604
      18        0.000206181270     0.000419527059     0.000065663646
      19       -0.000026807243    -0.000134784335    -0.000158340625
      20       -0.000079870417     0.000098904405     0.000167750154
      21        0.000045015243    -0.000095141019     0.000043582779


*** tstop() called on daniele-Precision-5750 at Wed Jun  2 00:20:29 2021
Module time:
	user time   =      36.83 seconds =       0.61 minutes
	system time =       0.50 seconds =       0.01 minutes
	total time  =          5 seconds =       0.08 minutes
Total time:
	user time   =     227.16 seconds =       3.79 minutes
	system time =       5.46 seconds =       0.09 minutes
	total time  =         31 seconds =       0.52 minutes

			-----------------------------------------
			 OPTKING 2.0: for geometry optimizations 
			  - R.A. King,  Bethel University        
			-----------------------------------------
	At level 1: Red. Int., RFO, no backsteps, dynamic trust

	Previous internal coordinate definitions found.
	---Fragment 1 Geometry and Gradient---
	 C          -2.1592544742       -2.7510933114        0.7135004345
	 C          -4.6624961473       -1.7563605730       -0.4428014114
	 C           0.1043142976       -1.0379650447        0.3941456004
	 C          -4.9694252509        1.1155030345       -0.4947110103
	 C           0.6316512440        0.8685352892        2.1409982520
	 C           1.6941393080       -1.3032113713       -1.6937857741
	 C           2.6843306776        2.4778794097        1.8027662702
	 C           3.7494373599        0.3029311489       -2.0418476698
	 C           4.2503255643        2.2009832853       -0.2925191221
	 H          -1.7369972780       -4.6091376001       -0.0815906747
	 H          -2.4365753443       -3.0426244892        2.7439861085
	 H          -4.7976959065       -2.4407905343       -2.3925119948
	 H          -6.2424378879       -2.6161025302        0.5742378097
	 H          -3.4773486236        1.9963962218       -1.6091460877
	 H          -6.7872005531        1.6221657221       -1.3294903405
	 H          -4.8940768991        1.9217036339        1.4047779066
	 H          -0.5730894582        1.0933917821        3.7789907171
	 H           1.3161715091       -2.7765206713       -3.0624248700
	 H           3.0645834762        3.9428295369        3.1766899327
	 H           4.9609180926        0.0678902791       -3.6715851790
	 H           5.8507456818        3.4452960965       -0.5528911325
	             0.0005913603       -0.0019714093       -0.0095712549
	            -0.0013700721        0.0023584014        0.0080914049
	             0.0019699483        0.0032039539        0.0040587227
	             0.0009535449       -0.0000964808       -0.0033390844
	            -0.0004980525       -0.0007671013       -0.0014127120
	            -0.0009630855       -0.0007991540        0.0021975886
	             0.0001776592       -0.0008203016       -0.0013258943
	            -0.0007157431        0.0006308985        0.0013222838
	            -0.0012483836       -0.0008652027        0.0002195620
	             0.0004772125       -0.0001187403       -0.0001056315
	             0.0007765777        0.0001633386        0.0004809845
	            -0.0001459806       -0.0000852538       -0.0004058482
	            -0.0002273422        0.0000839662        0.0000921565
	             0.0000813207       -0.0005358915       -0.0001050167
	            -0.0002302725       -0.0002622599       -0.0002076659
	            -0.0000578731       -0.0005493487        0.0002144994
	             0.0002562892        0.0001744076       -0.0002599406
	             0.0002061813        0.0004195271        0.0000656636
	            -0.0000268072       -0.0001347843       -0.0001583406
	            -0.0000798704        0.0000989044        0.0001677502
	             0.0000450152       -0.0000951410        0.0000435828

	---Fragment 1 Intrafragment Coordinates---
	 - Coordinate -           - BOHR/RAD -       - ANG/DEG -
	 R(1,2)           =         2.931339	       1.551198
	 R(1,3)           =         2.856666	       1.511682
	 R(1,10)          =         2.064655	       1.092568
	 R(1,11)          =         2.069968	       1.095380
	 R(2,4)           =         2.888685	       1.528626
	 R(2,12)          =         2.070772	       1.095805
	 R(2,13)          =         2.066335	       1.093457
	 R(3,5)           =         2.639000	       1.396499
	 R(3,6)           =         2.637680	       1.395800
	 R(4,14)          =         2.060153	       1.090186
	 R(4,15)          =         2.063461	       1.091936
	 R(4,16)          =         2.064872	       1.092683
	 R(5,7)           =         2.630187	       1.391835
	 R(5,17)          =         2.045722	       1.082550
	 R(6,8)           =         2.631557	       1.392560
	 R(6,18)          =         2.046136	       1.082769
	 R(7,9)           =         2.630443	       1.391971
	 R(7,19)          =         2.044098	       1.081690
	 R(8,9)           =         2.629380	       1.391408
	 R(8,20)          =         2.044254	       1.081773
	 R(9,21)          =         2.043882	       1.081576
	 B(1,2,4)         =         2.021047	     115.797485
	 B(1,2,12)        =         1.891249	     108.360565
	 B(1,2,13)        =         1.893996	     108.517988
	 B(1,3,5)         =         2.114813	     121.169843
	 B(1,3,6)         =         2.101087	     120.383415
	 B(2,1,3)         =         2.014248	     115.407906
	 B(2,1,10)        =         1.905119	     109.155261
	 B(2,1,11)        =         1.896867	     108.682458
	 B(2,4,14)        =         1.936775	     110.969042
	 B(2,4,15)        =         1.923015	     110.180668
	 B(2,4,16)        =         1.947390	     111.577210
	 B(3,1,10)        =         1.911952	     109.546807
	 B(3,1,11)        =         1.875781	     107.474345
	 B(3,5,7)         =         2.109315	     120.854845
	 B(3,5,17)        =         2.084879	     119.454747
	 B(3,6,8)         =         2.110720	     120.935360
	 B(3,6,18)        =         2.083514	     119.376587
	 B(4,2,12)        =         1.880460	     107.742405
	 B(4,2,13)        =         1.919044	     109.953125
	 B(5,3,6)         =         2.067104	     118.436350
	 B(5,7,9)         =         2.097448	     120.174942
	 B(5,7,19)        =         2.091232	     119.818794
	 B(6,8,9)         =         2.095975	     120.090496
	 B(6,8,20)        =         2.092231	     119.875979
	 B(7,5,17)        =         2.088991	     119.690387
	 B(7,9,8)         =         2.085785	     119.506675
	 B(7,9,21)        =         2.098502	     120.235324
	 B(8,6,18)        =         2.088946	     119.687767
	 B(8,9,21)        =         2.098882	     120.257070
	 B(9,7,19)        =         2.094499	     120.005968
	 B(9,8,20)        =         2.094973	     120.033105
	 B(10,1,11)       =         1.852931	     106.165102
	 B(12,2,13)       =         1.850405	     106.020399
	 B(14,4,15)       =         1.890400	     108.311936
	 B(14,4,16)       =         1.879945	     107.712908
	 B(15,4,16)       =         1.884337	     107.964581
	*D(1,2,4,14)      =         1.053525	      60.362530
	 D(1,2,4,15)      =        -3.136027	    -179.681091
	 D(1,2,4,16)      =        -1.043112	     -59.765920
	 D(1,3,5,7)       =        -3.114396	    -178.441744
	 D(1,3,5,17)      =         0.028134	       1.611964
	 D(1,3,6,8)       =         3.113869	     178.411560
	 D(1,3,6,18)      =        -0.024317	      -1.393241
	*D(2,1,3,5)       =         1.524882	      87.369295
	*D(2,1,3,6)       =        -1.595923	     -91.439632
	*D(3,1,2,4)       =        -0.532278	     -30.497270
	 D(3,1,2,12)      =         1.581920	      90.637316
	 D(3,1,2,13)      =        -2.699419	    -154.665320
	 D(3,5,7,9)       =        -0.002434	      -0.139438
	 D(3,5,7,19)      =        -3.140575	    -179.941698
	 D(3,6,8,9)       =         0.003815	       0.218602
	 D(3,6,8,20)      =         3.141293	     179.982841
	 D(4,2,1,10)      =        -2.693978	    -154.353584
	 D(4,2,1,11)      =         1.575496	      90.269298
	 D(5,3,1,10)      =        -2.600194	    -148.980163
	 D(5,3,1,11)      =        -0.594306	     -34.051209
	 D(5,3,6,8)       =        -0.007496	      -0.429486
	 D(5,3,6,18)      =         3.137504	     179.765713
	 D(5,7,9,8)       =        -0.001401	      -0.080290
	 D(5,7,9,21)      =        -3.136885	    -179.730256
	 D(6,3,1,10)      =         0.562186	      32.210910
	 D(6,3,1,11)      =         2.568075	     147.139864
	 D(6,3,5,7)       =         0.006803	       0.389789
	 D(6,3,5,17)      =        -3.133852	    -179.556504
	 D(6,8,9,7)       =         0.000720	       0.041281
	 D(6,8,9,21)      =         3.136203	     179.691170
	 D(7,9,8,20)      =        -3.136751	    -179.722585
	 D(8,9,7,19)      =         3.136734	     179.721599
	 D(9,7,5,17)      =         3.138219	     179.806729
	 D(9,8,6,18)      =        -3.141195	    -179.977198
	 D(10,1,2,12)     =        -0.579781	     -33.218997
	 D(10,1,2,13)     =         1.422066	      81.478367
	 D(11,1,2,12)     =        -2.593491	    -148.596116
	 D(11,1,2,13)     =        -0.591645	     -33.898752
	 D(12,2,4,14)     =        -1.066456	     -61.103409
	 D(12,2,4,15)     =         1.027178	      58.852969
	 D(12,2,4,16)     =         3.120093	     178.768141
	 D(13,2,4,14)     =        -3.075578	    -176.217656
	 D(13,2,4,15)     =        -0.981945	     -56.261277
	 D(13,2,4,16)     =         1.110970	      63.653895
	 D(17,5,7,19)     =         0.000078	       0.004468
	 D(18,6,8,20)     =        -0.003717	      -0.212960
	 D(19,7,9,21)     =         0.001250	       0.071633
	 D(20,8,9,21)     =        -0.001269	      -0.072696
	 R(4,5)           =         6.195161	       3.278338

	Current energy   :      -350.0618760593

	Energy change for the previous step:
		Projected    :        -0.0036006050
		Actual       :        -0.0023562955

	Performing BFGS update.
	Previous computed or guess Hessian on step 1.
	Steps to be used in Hessian update: 1
	Taking RFO optimization step.
	Going to follow RFO solution 1.
	Using RFO vector 1.
	Norm of target step-size    0.03800
	Projected energy change by RFO approximation:        -0.0002146732

	Back-transformation to cartesian coordinates...
	Could not converge backtransformation.
	Using first guess instead.

	Back-transformation to cartesian coordinates to adjust frozen coordinates...
	Successfully converged to displaced geometry.

	--- Internal Coordinate Step in ANG or DEG, aJ/ANG or AJ/DEG ---
	 ---------------------------------------------------------------------------
	   Coordinate                Previous        Force       Change         New 
	   ----------                --------       ------       ------       ------
	    1 R(1,2)          =      1.551198     0.009384     0.001439     1.552637
	    2 R(1,3)          =      1.511682     0.008583     0.001088     1.512771
	    3 R(1,10)         =      1.092568    -0.001975    -0.000410     1.092158
	    4 R(1,11)         =      1.095380    -0.002874    -0.000519     1.094861
	    5 R(2,4)          =      1.528626     0.012553     0.002389     1.531015
	    6 R(2,12)         =      1.095805    -0.003440    -0.000637     1.095169
	    7 R(2,13)         =      1.093457    -0.001516    -0.000317     1.093140
	    8 R(3,5)          =      1.396499     0.020675     0.002441     1.398939
	    9 R(3,6)          =      1.395800     0.024048     0.003048     1.398849
	   10 R(4,14)         =      1.090186     0.000862     0.000094     1.090280
	   11 R(4,15)         =      1.091936    -0.001841    -0.000312     1.091624
	   12 R(4,16)         =      1.092683     0.000195     0.000007     1.092690
	   13 R(5,7)          =      1.391835     0.008792     0.000957     1.392792
	   14 R(5,17)         =      1.082550     0.002846     0.000401     1.082951
	   15 R(6,8)          =      1.392560     0.009436     0.001060     1.393620
	   16 R(6,18)         =      1.082769     0.003106     0.000453     1.083222
	   17 R(7,9)          =      1.391971     0.015068     0.001793     1.393764
	   18 R(7,19)         =      1.081690     0.001773     0.000211     1.081901
	   19 R(8,9)          =      1.391408     0.014783     0.001762     1.393171
	   20 R(8,20)         =      1.081773     0.001539     0.000169     1.081942
	   21 R(9,21)         =      1.081576     0.000245    -0.000031     1.081544
	   22 B(1,2,4)        =    115.797485    -0.000022    -0.240022   115.557462
	   23 B(1,2,12)       =    108.360565     0.000002    -0.018177   108.342388
	   24 B(1,2,13)       =    108.517988    -0.000003     0.008290   108.526278
	   25 B(1,3,5)        =    121.169843     0.000003    -0.041462   121.128382
	   26 B(1,3,6)        =    120.383415     0.000058     0.189688   120.573103
	   27 B(2,1,3)        =    115.407906    -0.000069    -0.399285   115.008621
	   28 B(2,1,10)       =    109.155261    -0.000001    -0.077116   109.078145
	   29 B(2,1,11)       =    108.682458    -0.000027    -0.211696   108.470762
	   30 B(2,4,14)       =    110.969042     0.000043     0.179621   111.148663
	   31 B(2,4,15)       =    110.180668     0.000018     0.090271   110.270939
	   32 B(2,4,16)       =    111.577210     0.000045     0.180278   111.757488
	   33 B(3,1,10)       =    109.546807     0.000042     0.231673   109.778480
	   34 B(3,1,11)       =    107.474345     0.000067     0.424111   107.898455
	   35 B(3,5,7)        =    120.854845     0.000029     0.084531   120.939376
	   36 B(3,5,17)       =    119.454747    -0.000030    -0.122069   119.332677
	   37 B(3,6,8)        =    120.935360     0.000027     0.084177   121.019537
	   38 B(3,6,18)       =    119.376587    -0.000032    -0.134269   119.242317
	   39 B(4,2,12)       =    107.742405     0.000007     0.051235   107.793640
	   40 B(4,2,13)       =    109.953125     0.000020     0.147138   110.100262
	   41 B(5,3,6)        =    118.436350    -0.000061    -0.148196   118.288153
	   42 B(5,7,9)        =    120.174942    -0.000000    -0.013592   120.161350
	   43 B(5,7,19)       =    119.818794    -0.000003    -0.006989   119.811805
	   44 B(6,8,9)        =    120.090496    -0.000007    -0.032126   120.058370
	   45 B(6,8,20)       =    119.875979    -0.000001    -0.007213   119.868766
	   46 B(7,5,17)       =    119.690387     0.000002     0.037285   119.727672
	   47 B(7,9,8)        =    119.506675     0.000014     0.024589   119.531264
	   48 B(7,9,21)       =    120.235324    -0.000010    -0.025347   120.209977
	   49 B(8,6,18)       =    119.687767     0.000005     0.050370   119.738138
	   50 B(8,9,21)       =    120.257070    -0.000004     0.000925   120.257995
	   51 B(9,7,19)       =    120.005968     0.000003     0.020660   120.026628
	   52 B(9,8,20)       =    120.033105     0.000009     0.039563   120.072668
[...]
	 R(2,4)           =         2.893199	       1.531015
	 R(2,12)          =         2.069569	       1.095169
	 R(2,13)          =         2.065735	       1.093140
	 R(3,5)           =         2.643612	       1.398939
	 R(3,6)           =         2.643441	       1.398849
	 R(4,14)          =         2.060331	       1.090280
	 R(4,15)          =         2.062871	       1.091624
	 R(4,16)          =         2.064886	       1.092690
	 R(5,7)           =         2.631995	       1.392792
	 R(5,17)          =         2.046480	       1.082951
	 R(6,8)           =         2.633560	       1.393620
	 R(6,18)          =         2.046993	       1.083222
	 R(7,9)           =         2.633832	       1.393764
	 R(7,19)          =         2.044497	       1.081901
	 R(8,9)           =         2.632711	       1.393171
	 R(8,20)          =         2.044574	       1.081942
	 R(9,21)          =         2.043822	       1.081544
	 B(1,2,4)         =         2.016858	     115.557462
	 B(1,2,12)        =         1.890931	     108.342388
	 B(1,2,13)        =         1.894141	     108.526278
	 B(1,3,5)         =         2.114089	     121.128382
	 B(1,3,6)         =         2.104398	     120.573103
	 B(2,1,3)         =         2.007279	     115.008621
	 B(2,1,10)        =         1.903773	     109.078145
	 B(2,1,11)        =         1.893172	     108.470762
	 B(2,4,14)        =         1.939910	     111.148663
	 B(2,4,15)        =         1.924591	     110.270939
	 B(2,4,16)        =         1.950536	     111.757488
	 B(3,1,10)        =         1.915996	     109.778480
	 B(3,1,11)        =         1.883183	     107.898455
	 B(3,5,7)         =         2.110790	     120.939376
	 B(3,5,17)        =         2.082748	     119.332677
	 B(3,6,8)         =         2.112189	     121.019537
	 B(3,6,18)        =         2.081171	     119.242317
	 B(4,2,12)        =         1.881354	     107.793640
	 B(4,2,13)        =         1.921612	     110.100262
	 B(5,3,6)         =         2.064518	     118.288153
	 B(5,7,9)         =         2.097211	     120.161350
	 B(5,7,19)        =         2.091110	     119.811805
	 B(6,8,9)         =         2.095414	     120.058370
	 B(6,8,20)        =         2.092105	     119.868766
	 B(7,5,17)        =         2.089642	     119.727672
	 B(7,9,8)         =         2.086214	     119.531264
	 B(7,9,21)        =         2.098060	     120.209977
	 B(8,6,18)        =         2.089825	     119.738138
	 B(8,9,21)        =         2.098898	     120.257995
	 B(9,7,19)        =         2.094860	     120.026628
	 B(9,8,20)        =         2.095663	     120.072668
	 B(10,1,11)       =         1.854129	     106.233785
	 B(12,2,13)       =         1.851715	     106.095473
	 B(14,4,15)       =         1.889167	     108.241317
	 B(14,4,16)       =         1.875492	     107.457793
	 B(15,4,16)       =         1.881762	     107.817007
	*D(1,2,4,14)      =         1.053525	      60.362530
	 D(1,2,4,15)      =        -3.134504	    -179.593831
	 D(1,2,4,16)      =        -1.041719	     -59.686112
	 D(1,3,5,7)       =        -3.113346	    -178.381600
	 D(1,3,5,17)      =         0.031584	       1.809617
	 D(1,3,6,8)       =         3.113241	     178.375545
	 D(1,3,6,18)      =        -0.027773	      -1.591275
	*D(2,1,3,5)       =         1.524882	      87.369295
	*D(2,1,3,6)       =        -1.595923	     -91.439632
	*D(3,1,2,4)       =        -0.532278	     -30.497270
	 D(3,1,2,12)      =         1.580004	      90.527554
	 D(3,1,2,13)      =        -2.699885	    -154.691996
	 D(3,5,7,9)       =        -0.002091	      -0.119784
	 D(3,5,7,19)      =        -3.140731	    -179.950613
	 D(3,6,8,9)       =         0.002529	       0.144880
	 D(3,6,8,20)      =         3.141308	     179.983708
	 D(4,2,1,10)      =        -2.693158	    -154.306600
	 D(4,2,1,11)      =         1.577621	      90.391012
	 D(5,3,1,10)      =        -2.603906	    -149.192836
	 D(5,3,1,11)      =        -0.590468	     -33.831316
	 D(5,3,6,8)       =        -0.008144	      -0.466612
	 D(5,3,6,18)      =         3.134028	     179.566568
	 D(5,7,9,8)       =        -0.003703	      -0.212186
	 D(5,7,9,21)      =        -3.139762	    -179.895133
	 D(6,3,1,10)      =         0.558475	      31.998237
	 D(6,3,1,11)      =         2.571913	     147.359757
	 D(6,3,5,7)       =         0.007921	       0.453835
	 D(6,3,5,17)      =        -3.130334	    -179.354948
	 D(6,8,9,7)       =         0.003486	       0.199720
	 D(6,8,9,21)      =         3.139542	     179.882512
	 D(7,9,8,20)      =        -3.135288	    -179.638777
	 D(8,9,7,19)      =         3.134930	     179.618277
	 D(9,7,5,17)      =         3.136152	     179.688251
	 D(9,8,6,18)      =        -3.139646	    -179.888462
	 D(10,1,2,12)     =        -0.580877	     -33.281776
	 D(10,1,2,13)     =         1.422420	      81.498675
	 D(11,1,2,12)     =        -2.593283	    -148.584164
	 D(11,1,2,13)     =        -0.589986	     -33.803713
	 D(12,2,4,14)     =        -1.063921	     -60.958209
	 D(12,2,4,15)     =         1.031235	      59.085430
	 D(12,2,4,16)     =         3.124020	     178.993149
	 D(13,2,4,14)     =        -3.076445	    -176.267315
	 D(13,2,4,15)     =        -0.981288	     -56.223676
	 D(13,2,4,16)     =         1.111496	      63.684043
	 D(17,5,7,19)     =        -0.002488	      -0.142578
	 D(18,6,8,20)     =        -0.000866	      -0.049634
	 D(19,7,9,21)     =        -0.001129	      -0.064670
	 D(20,8,9,21)     =         0.000768	       0.044016
	 R(4,5)           =         6.166216	       3.263021

	Current energy   :      -350.0619401514

	Energy change for the previous step:
		Projected    :        -0.0002146732
		Actual       :        -0.0000640920

	Performing BFGS update.
	Previous computed or guess Hessian on step 1.
	Steps to be used in Hessian update: 2 1
	Taking RFO optimization step.
	Going to follow RFO solution 1.
	Using RFO vector 1.
	Norm of target step-size    0.01436
	Projected energy change by RFO approximation:         0.0000055648

	Back-transformation to cartesian coordinates...
	Could not converge backtransformation.
	Using first guess instead.

	Back-transformation to cartesian coordinates to adjust frozen coordinates...
	Successfully converged to displaced geometry.

	--- Internal Coordinate Step in ANG or DEG, aJ/ANG or AJ/DEG ---
	 ---------------------------------------------------------------------------
	   Coordinate                Previous        Force       Change         New 
	   ----------                --------       ------       ------       ------
	    1 R(1,2)          =      1.552637     0.006991     0.001772     1.554409
	    2 R(1,3)          =      1.512771    -0.003628    -0.001100     1.511671
	    3 R(1,10)         =      1.092158    -0.000158    -0.000093     1.092065
	    4 R(1,11)         =      1.094861    -0.001413    -0.000349     1.094512
	    5 R(2,4)          =      1.531015    -0.000986    -0.000218     1.530797
	    6 R(2,12)         =      1.095169    -0.000798    -0.000227     1.094942
	    7 R(2,13)         =      1.093140    -0.000535    -0.000159     1.092981
	    8 R(3,5)          =      1.398939     0.001046     0.000156     1.399096
	    9 R(3,6)          =      1.398849     0.000171     0.000088     1.398936
	   10 R(4,14)         =      1.090280    -0.000008    -0.000023     1.090257
	   11 R(4,15)         =      1.091624     0.000342     0.000042     1.091667
	   12 R(4,16)         =      1.092690     0.000452     0.000082     1.092772
	   13 R(5,7)          =      1.392792    -0.000543    -0.000125     1.392666
	   14 R(5,17)         =      1.082951     0.000659     0.000121     1.083071
	   15 R(6,8)          =      1.393620    -0.000636    -0.000136     1.393484
	   16 R(6,18)         =      1.083222     0.000847     0.000164     1.083386
	   17 R(7,9)          =      1.393764     0.000471     0.000105     1.393869
	   18 R(7,19)         =      1.081901     0.000344     0.000041     1.081942
	   19 R(8,9)          =      1.393171     0.000693     0.000133     1.393303
	   20 R(8,20)         =      1.081942     0.000224     0.000014     1.081956
	   21 R(9,21)         =      1.081544     0.000369     0.000036     1.081580
	   22 B(1,2,4)        =    115.557462     0.000004    -0.046538   115.510924
	   23 B(1,2,12)       =    108.342388     0.000001     0.012537   108.354925
	   24 B(1,2,13)       =    108.526278     0.000002     0.050963   108.577241
	   25 B(1,3,5)        =    121.128382    -0.000008    -0.040129   121.088252
	   26 B(1,3,6)        =    120.573103     0.000009     0.050127   120.623230
	   27 B(2,1,3)        =    115.008621    -0.000018    -0.148180   114.860441
	   28 B(2,1,10)       =    109.078145     0.000003     0.026699   109.104845
	   29 B(2,1,11)       =    108.470762     0.000003    -0.025557   108.445205
	   30 B(2,4,14)       =    111.148663     0.000003     0.022658   111.171321
	   31 B(2,4,15)       =    110.270939     0.000003     0.023098   110.294037
	   32 B(2,4,16)       =    111.757488     0.000001     0.012773   111.770261
	   33 B(3,1,10)       =    109.778480     0.000008     0.083764   109.862244
	   34 B(3,1,11)       =    107.898455     0.000006     0.033577   107.932032
	   35 B(3,5,7)        =    120.939376     0.000002     0.011880   120.951256
	   36 B(3,5,17)       =    119.332677    -0.000004    -0.034293   119.298384
	   37 B(3,6,8)        =    121.019537    -0.000001    -0.000425   121.019112
	   38 B(3,6,18)       =    119.242317    -0.000006    -0.043822   119.198495
	   39 B(4,2,12)       =    107.793640    -0.000004    -0.043399   107.750241
	   40 B(4,2,13)       =    110.100262    -0.000005    -0.006437   110.093825
	   41 B(5,3,6)        =    118.288153    -0.000001    -0.009995   118.278158
	   42 B(5,7,9)        =    120.161350    -0.000002    -0.006058   120.155292
	   43 B(5,7,19)       =    119.811805     0.000002     0.005907   119.817712
	   44 B(6,8,9)        =    120.058370     0.000003     0.007641   120.066010
	   45 B(6,8,20)       =    119.868766    -0.000003    -0.014100   119.854666
	   46 B(7,5,17)       =    119.727672     0.000003     0.022613   119.750285
	   47 B(7,9,8)        =    119.531264    -0.000001    -0.004315   119.526949
	   48 B(7,9,21)       =    120.209977    -0.000000    -0.003471   120.206506
	   49 B(8,6,18)       =    119.738138     0.000007     0.044039   119.782176
	   50 B(8,9,21)       =    120.257995     0.000001     0.007895   120.265890
	   51 B(9,7,19)       =    120.026628    -0.000000     0.000088   120.026717
	   52 B(9,8,20)       =    120.072668     0.000000     0.006280   120.078948
	   53 B(10,1,11)      =    106.233785    -0.000002     0.042273   106.276058
	   54 B(12,2,13)      =    106.095473     0.000002     0.039569   106.135042
	   55 B(14,4,15)      =    108.241317    -0.000002     0.003272   108.244588
	   56 B(14,4,16)      =    107.457793    -0.000002    -0.039908   107.417885
	   57 B(15,4,16)      =    107.817007    -0.000003    -0.024945   107.792062
	   58 *D(1,2,4,14)    =     60.362530     0.000000     0.000000    60.362530
	   59 D(1,2,4,15)     =   -179.593831     0.000000     0.034125  -179.559705
	   60 D(1,2,4,16)     =    -59.686112     0.000000     0.026600   -59.659512
	   61 D(1,3,5,7)      =   -178.381600     0.000001     0.150424  -178.231175
	   62 D(1,3,5,17)     =      1.809617     0.000000     0.058903     1.868521
	   63 D(1,3,6,8)      =    178.375545    -0.000001    -0.175715   178.199830
	   64 D(1,3,6,18)     =     -1.591275    -0.000000    -0.039360    -1.630635
	   65 *D(2,1,3,5)     =     87.369295    -0.000000     0.000000    87.369295
	   66 *D(2,1,3,6)     =    -91.439632    -0.000000    -0.000000   -91.439632
	   67 *D(3,1,2,4)     =    -30.497270     0.000000     0.000000   -30.497270
	   68 D(3,1,2,12)     =     90.527554    -0.000000    -0.078159    90.449395
	   69 D(3,1,2,13)     =   -154.691996     0.000001     0.001477  -154.690518
	   70 D(3,5,7,9)      =     -0.119784    -0.000000    -0.076795    -0.196579
	   71 D(3,5,7,19)     =   -179.950613    -0.000000    -0.053908  -180.004521
	   72 D(3,6,8,9)      =      0.144880     0.000001     0.125169     0.270049
	   73 D(3,6,8,20)     =    179.983708     0.000000     0.063287   180.046995
	   74 D(4,2,1,10)     =   -154.306600    -0.000000    -0.023934  -154.330533
	   75 D(4,2,1,11)     =     90.391012    -0.000000    -0.074432    90.316580
	   76 D(5,3,1,10)     =   -149.192836    -0.000000    -0.007443  -149.200279
	   77 D(5,3,1,11)     =    -33.831316     0.000001     0.105639   -33.725677
	   78 D(5,3,6,8)      =     -0.466612    -0.000001    -0.175334    -0.641946
	   79 D(5,3,6,18)     =    179.566568    -0.000000    -0.038979   179.527588
	   80 D(5,7,9,8)      =     -0.212186     0.000000     0.022306    -0.189880
	   81 D(5,7,9,21)     =   -179.895133     0.000000    -0.001105  -179.896238
	   82 D(6,3,1,10)     =     31.998237    -0.000000    -0.007443    31.990794
	   83 D(6,3,1,11)     =    147.359757     0.000001     0.105639   147.465396
	   84 D(6,3,5,7)      =      0.453835     0.000001     0.151136     0.604971
	   85 D(6,3,5,17)     =   -179.354948     0.000000     0.059615  -179.295333
	   86 D(6,8,9,7)      =      0.199720    -0.000000    -0.046109     0.153611
	   87 D(6,8,9,21)     =    179.882512    -0.000000    -0.022721   179.859791
	   88 D(7,9,8,20)     =   -179.638777     0.000000     0.015946  -179.622831
	   89 D(8,9,7,19)     =    179.618277     0.000000    -0.000619   179.617658
	   90 D(9,7,5,17)     =    179.688251     0.000000     0.015028   179.703279
	   91 D(9,8,6,18)     =   -179.888462    -0.000000    -0.012003  -179.900465
	   92 D(10,1,2,12)    =    -33.281776    -0.000001    -0.102092   -33.383868
	   93 D(10,1,2,13)    =     81.498675     0.000000    -0.022456    81.476219
	   94 D(11,1,2,12)    =   -148.584164    -0.000001    -0.152591  -148.736755
	   95 D(11,1,2,13)    =    -33.803713     0.000000    -0.072955   -33.876668
	   96 D(12,2,4,14)    =    -60.958209    -0.000000     0.047485   -60.910725
	   97 D(12,2,4,15)    =     59.085430    -0.000000     0.081610    59.167040
	   98 D(12,2,4,16)    =    178.993149    -0.000000     0.074084   179.067233
	   99 D(13,2,4,14)    =   -176.267315     0.000000     0.028005  -176.239310
	  100 D(13,2,4,15)    =    -56.223676     0.000001     0.062130   -56.161546
	  101 D(13,2,4,16)    =     63.684043     0.000000     0.054605    63.738648
	  102 D(17,5,7,19)    =     -0.142578     0.000000     0.037915    -0.104663
	  103 D(18,6,8,20)    =     -0.049634    -0.000000    -0.073885    -0.123519
	  104 D(19,7,9,21)    =     -0.064670    -0.000000    -0.024029    -0.088700
	  105 D(20,8,9,21)    =      0.044016     0.000000     0.039334     0.083349
	  106 R(4,5)          =      3.263021    -0.001233    -0.005130     3.257891
	 ---------------------------------------------------------------------------
	Successfully symmetrized geometry.

  ==> Convergence Check <==

  Measures of convergence in internal coordinates in au.
  Criteria marked as inactive (o), active & met (*), and active & unmet ( ).
  ---------------------------------------------------------------------------------------------
   Step     Total Energy     Delta E     MAX Force     RMS Force      MAX Disp      RMS Disp   
  ---------------------------------------------------------------------------------------------
    Convergence Criteria             o    2.50e-03 *    1.70e-03 *    1.00e-02 *    6.70e-03 *
  ---------------------------------------------------------------------------------------------
      3    -350.06194015   -6.41e-05 o    8.49e-04 *    1.07e-04 *    9.69e-03 *    1.39e-03 *  ~
  ---------------------------------------------------------------------------------------------


  **** Optimization is complete! (in 3 steps) ****

  ==> Optimization Summary <==

  Measures of convergence in internal coordinates in au.
  --------------------------------------------------------------------------------------------------------------- ~
   Step         Total Energy             Delta E       MAX Force       RMS Force        MAX Disp        RMS Disp  ~
  --------------------------------------------------------------------------------------------------------------- ~
      1    -350.059519763843   -350.059519763843      0.01580585      0.00401983      0.08804402      0.01726567  ~
      2    -350.061876059337     -0.002356295494      0.00291891      0.00058287      0.02894475      0.00369166  ~
      3    -350.061940151383     -0.000064092046      0.00084854      0.00010736      0.00969440      0.00139406  ~
  --------------------------------------------------------------------------------------------------------------- ~

	Writing optimization data to binary file.
	Final energy is   -350.0619401513828
	Final (previous) structure:
	Cartesian Geometry (in Angstrom)
	    C    -1.1437327501  -1.4628237580   0.3811415203
	    C    -2.4661616144  -0.9305212994  -0.2340963884
	    C     0.0531403941  -0.5538053738   0.2089353489
	    C    -2.6165681075   0.5928737118  -0.2596392436
	    C     0.3311567943   0.4587727468   1.1332857446
	    C     0.8978311714  -0.6915199964  -0.8975498599
	    C     1.4149476885   1.3148441682   0.9532648351
	    C     1.9835404468   0.1623232198  -1.0829258393
	    C     2.2442009796   1.1707157497  -0.1576555576
	    H    -0.9244954665  -2.4463231514  -0.0401338514
	    H    -1.2976627738  -1.6168518046   1.4541284665
	    H    -2.5359088940  -1.2910533978  -1.2658647939
	    H    -3.3050743680  -1.3819108719   0.3020267621
	    H    -1.8234344042   1.0566675584  -0.8466190722
	    H    -3.5755004501   0.8708928159  -0.7009986491
	    H    -2.5741573407   1.0209657842   0.7448063884
	    H    -0.3056274043   0.5738544548   2.0016430037
	    H     0.7010228195  -1.4749526220  -1.6192628221
	    H     1.6136087687   2.0912635256   1.6800500351
	    H     2.6250281016   0.0388414027  -1.9453896957
	    H     3.0870080342   1.8339666112  -0.2973420916
	Saving final (previous) structure.
			--------------------------
			 OPTKING Finished Execution 
			--------------------------

    Final optimized geometry and variables:
    Molecular point group: c1
    Full point group: C1

    Geometry (in Angstrom), charge = 0, multiplicity = 1:

    C           -1.143732754555    -1.462823763780     0.381141521769
    C           -2.466161624111    -0.930521303098    -0.234096389355
    C            0.053140394339    -0.553805375994     0.208935349724
    C           -2.616568117827     0.592873714180    -0.259639244609
    C            0.331156795645     0.458772748592     1.133285749054
    C            0.897831174952    -0.691519999131    -0.897549863439
    C            1.414947694067     1.314844173347     0.953264838852
    C            1.983540454620     0.162323220486    -1.082925843539
    C            2.244200988428     1.170715754283    -0.157655558247
    H           -0.924495470115    -2.446323161006    -0.040133851550
    H           -1.297662778926    -1.616851810956     1.454128472242
    H           -2.535908903925    -1.291053402895    -1.265864798897
    H           -3.305074380979    -1.381910877307     0.302026763293
    H           -1.823434411354     1.056667562593    -0.846619075495
    H           -3.575500464147     0.870892819313    -0.700998651826
    H           -2.574157350816     1.020965788198     0.744806391374
    H           -0.305627405517     0.573854457092     2.001643011614
    H            0.701022822242    -1.474952627780    -1.619262828474
    H            1.613608775034     2.091263533853     1.680050041737
    H            2.625028111921     0.038841402817    -1.945389703395
    H            3.087008046321     1.833966618432    -0.297342092738

	Removing binary optimization data file.
	Cleaning optimization helper files.

    Psi4 stopped on: Wednesday, 02 June 2021 12:20AM
    Psi4 wall time for execution: 0:00:42.45

*** Psi4 exiting successfully. Buy a developer a beer!
