
    -----------------------------------------------------------------------
          Psi4: An Open-Source Ab Initio Electronic Structure Package
                               Psi4 1.3.2 release

                         Git: Rev {HEAD} ecbda83 


    R. M. Parrish, L. A. Burns, D. G. A. Smith, A. C. Simmonett,
    A. E. DePrince III, E. G. Hohenstein, U. Bozkaya, A. Yu. Sokolov,
    R. Di Remigio, R. M. Richard, J. F. Gonthier, A. M. James,
    H. R. McAlexander, A. Kumar, M. Saitow, X. Wang, B. P. Pritchard,
    P. Verma, H. F. Schaefer III, K. Patkowski, R. A. King, E. F. Valeev,
    F. A. Evangelista, J. M. Turney, T. D. Crawford, and C. D. Sherrill,
    J. Chem. Theory Comput. 13(7) pp 3185--3197 (2017).
    (doi: 10.1021/acs.jctc.7b00174)


                         Additional Contributions by
    P. Kraus, H. Kruse, M. H. Lechner, M. C. Schieber, R. A. Shaw,
    A. Alenaizan, R. Galvelis, Z. L. Glick, S. Lehtola, and J. P. Misiewicz

    -----------------------------------------------------------------------


    Psi4 started on: Wednesday, 02 June 2021 12:16AM

    Process ID: 77443
    Host:       daniele-Precision-5750
    PSIDATADIR: /home/daniele/anaconda3/envs/poltype/share/psi4
    Memory:     500.0 MiB
    Threads:    1
    
  ==> Input File <==

--------------------------------------------------------------------------
molecule { 
0 1
 C   -1.272075   -1.087745    0.429926
 C   -2.398627   -0.531887   -0.495078
 C    0.083432   -0.407643    0.196286
 C   -3.588538    0.086931    0.266126
 C    0.415032    0.788560    0.876009
 C    1.008011   -0.938177   -0.734626
 C    1.648987    1.427008    0.645437
 C    2.242200   -0.299595   -0.964029
 C    2.564348    0.882129   -0.272843
 H   -1.170944   -2.170168    0.274697
 H   -1.551437   -0.990475    1.487203
 H   -1.980168    0.209799   -1.188808
 H   -2.757622   -1.342211   -1.143674
 H   -3.264408    0.928452    0.887820
 H   -4.344403    0.460409   -0.432994
 H   -4.070277   -0.652343    0.915092
 H   -0.284716    1.227759    1.585688
 H    0.772697   -1.848395   -1.284442
 H    1.894532    2.343923    1.178079
 H    2.947717   -0.720707   -1.677903
 H    3.518488    1.374857   -0.449681
}
set optking { 
  frozen_dihedral = ("
    4 2 1 3
    2 1 3 5
    2 1 3 6
    1 2 4 14
  ")
}
set {
  geom_maxiter 400
  g_convergence GAU_LOOSE
  dynamic_level 1
}
memory 700MB
set_num_threads(8)
psi4_io.set_default_path("/home/daniele/PSI4_sctatch/Psi4-propbenzene")
for _ in range(1):
  try:
    set opt_coordinates both
    optimize('wb97x-d/6-311G')
    break
  except OptimizationConvergenceError:
    break
  else:
    try:
      set opt_coordinates cartesian
      optimize('wb97x-d/6-311G')
      break
    except OptimizationConvergenceError:
      pass
clean()
--------------------------------------------------------------------------

  Memory set to 667.572 MiB by Python driver.
  Threads set to 8 by Python driver.
gradient() will perform analytic gradient computation.

*** tstart() called on daniele-Precision-5750
*** at Wed Jun  2 00:16:16 2021

   => Loading Basis Set <=

    Name: 6-311G
    Role: ORBITAL
    Keyword: BASIS
    atoms 1-9   entry C          line    92 file /home/daniele/anaconda3/envs/poltype/share/psi4/basis/6-311g.gbs 
    atoms 10-21 entry H          line    21 file /home/daniele/anaconda3/envs/poltype/share/psi4/basis/6-311g.gbs 


         ---------------------------------------------------------
                                   SCF
               by Justin Turney, Rob Parrish, Andy Simmonett
                          and Daniel G. A. Smith
                              RKS Reference
                        8 Threads,    667 MiB Core
         ---------------------------------------------------------

  ==> Geometry <==

    Molecular point group: c1
    Full point group: C1

    Geometry (in Angstrom), charge = 0, multiplicity = 1:

       Center              X                  Y                   Z               Mass       
    ------------   -----------------  -----------------  -----------------  -----------------
         C           -1.255939086280    -1.069814409949     0.433933237804    12.000000000000
         C           -2.382491086280    -0.513956409949    -0.491070762196    12.000000000000
         C            0.099567913720    -0.389712409949     0.200293237804    12.000000000000
         C           -3.572402086280     0.104861590051     0.270133237804    12.000000000000
         C            0.431167913720     0.806490590051     0.880016237804    12.000000000000
         C            1.024146913720    -0.920246409949    -0.730618762196    12.000000000000
         C            1.665122913720     1.444938590051     0.649444237804    12.000000000000
         C            2.258335913720    -0.281664409949    -0.960021762196    12.000000000000
         C            2.580483913720     0.900059590051    -0.268835762196    12.000000000000
         H           -1.154808086280    -2.152237409949     0.278704237804     1.007825032230
         H           -1.535301086280    -0.972544409949     1.491210237804     1.007825032230
         H           -1.964032086280     0.227729590051    -1.184800762196     1.007825032230
         H           -2.741486086280    -1.324280409949    -1.139666762196     1.007825032230
         H           -3.248272086280     0.946382590051     0.891827237804     1.007825032230
         H           -4.328267086280     0.478339590051    -0.428986762196     1.007825032230
         H           -4.054141086280    -0.634412409949     0.919099237804     1.007825032230
         H           -0.268580086280     1.245689590051     1.589695237804     1.007825032230
         H            0.788832913720    -1.830464409949    -1.280434762196     1.007825032230
         H            1.910667913720     2.361853590051     1.182086237804     1.007825032230
         H            2.963852913720    -0.702776409949    -1.673895762196     1.007825032230
         H            3.534623913720     1.392787590051    -0.445673762196     1.007825032230

  Running in c1 symmetry.

  Rotational constants: A =      0.12652  B =      0.03017  C =      0.02635 [cm^-1]
  Rotational constants: A =   3792.94816  B =    904.50259  C =    790.00378 [MHz]
  Nuclear repulsion =  409.008394749587922

  Charge       = 0
  Multiplicity = 1
  Electrons    = 66
  Nalpha       = 33
  Nbeta        = 33

  ==> Algorithm <==

  SCF Algorithm Type is DF.
  DIIS enabled.
  MOM disabled.
  Fractional occupation disabled.
  Guess Type is SAD.
  Energy threshold   = 1.00e-08
  Density threshold  = 1.00e-08
  Integral threshold = 0.00e+00

  ==> Primary Basis <==

  Basis Set: 6-311G
    Blend: 6-311G
    Number of shells: 99
    Number of basis function: 153
    Number of Cartesian functions: 153
    Spherical Harmonics?: true
    Max angular momentum: 1

  ==> DFT Potential <==

   => Composite Functional: WB97X-D <= 

    wB97X-D Hyb-GGA Exchange-Correlation Functional

    J.-D. Chai and M. Head-Gordon, Phys. Chem. Chem. Phys. 10, 6615 (2008)

    Deriv               =              1
    GGA                 =           TRUE
    Meta                =          FALSE

    Exchange Hybrid     =           TRUE
    MP2 Hybrid          =          FALSE

   => Exchange-Correlation Functionals <=

    1.0000   wB97D range-separated functional

   => Exact (HF) Exchange <=

    0.7780            HF,LR [omega = 0.2000]
    0.2220               HF 

   => Molecular Quadrature <=

    Radial Scheme          =       TREUTLER
    Pruning Scheme         =           FLAT
    Nuclear Scheme         =       TREUTLER

    BS radius alpha        =              1
    Pruning alpha          =              1
    Radial Points          =             75
    Spherical Points       =            302
    Total Points           =         470092
    Total Blocks           =           3485
    Max Points             =            256
    Max Functions          =            140

   => WB97X-D: Empirical Dispersion <=

    Chai and Head-Gordon Dispersion Correction
    Chai, J.-D.; Head-Gordon, M. (2010), J. Chem. Phys., 132: 6615-6620

        s6 =       1.000000

   => Loading Basis Set <=

    Name: (6-311G AUX)
    Role: JKFIT
    Keyword: DF_BASIS_SCF
    atoms 1-9   entry C          line   125 file /home/daniele/anaconda3/envs/poltype/share/psi4/basis/cc-pvtz-jkfit.gbs 
    atoms 10-21 entry H          line    51 file /home/daniele/anaconda3/envs/poltype/share/psi4/basis/cc-pvtz-jkfit.gbs 

  ==> Pre-Iterations <==

   -------------------------------------------------------
    Irrep   Nso     Nmo     Nalpha   Nbeta   Ndocc  Nsocc
   -------------------------------------------------------
     A        153     153       0       0       0       0
   -------------------------------------------------------
    Total     153     153      33      33      33       0
   -------------------------------------------------------

  ==> Integral Setup <==

  ==> DiskDFJK: Density-Fitted J/K Matrices <==

    J tasked:                  Yes
    K tasked:                  Yes
    wK tasked:                 Yes
    Omega:               2.000E-01
    OpenMP threads:              8
    Integrals threads:           8
    Memory [MiB]:              114
    Algorithm:                Disk
    Integral Cache:           NONE
    Schwarz Cutoff:          1E-12
    Fitting Condition:       1E-10

   => Auxiliary Basis Set <=

  Basis Set: (6-311G AUX)
    Blend: CC-PVTZ-JKFIT
    Number of shells: 345
    Number of basis function: 1071
    Number of Cartesian functions: 1284
    Spherical Harmonics?: true
    Max angular momentum: 4

  Cached 33.3% of DFT collocation blocks in 0.435 [GiB].

  Minimum eigenvalue in the overlap matrix is 2.7592500508E-04.
  Using Symmetric Orthogonalization.

  SCF Guess: Superposition of Atomic Densities via on-the-fly atomic UHF.

  ==> Iterations <==

                           Total Energy        Delta E     RMS |[F,P]|

   @DF-RKS iter SAD:  -349.21378427930716   -3.49214e+02   0.00000e+00 
   @DF-RKS iter   1:  -349.71252003798304   -4.98736e-01   5.14193e-03 DIIS
   @DF-RKS iter   2:  -349.89865324504615   -1.86133e-01   3.60598e-03 DIIS
   @DF-RKS iter   3:  -350.05695326800918   -1.58300e-01   2.35048e-04 DIIS
   @DF-RKS iter   4:  -350.05768757754879   -7.34310e-04   1.41299e-04 DIIS
   @DF-RKS iter   5:  -350.05793957830053   -2.52001e-04   2.83618e-05 DIIS
   @DF-RKS iter   6:  -350.05794851196163   -8.93366e-06   1.32214e-05 DIIS
   @DF-RKS iter   7:  -350.05795080277659   -2.29081e-06   1.77202e-06 DIIS
   @DF-RKS iter   8:  -350.05795085379867   -5.10221e-08   6.67902e-07 DIIS
   @DF-RKS iter   9:  -350.05795085974387   -5.94520e-09   1.80619e-07 DIIS
   @DF-RKS iter  10:  -350.05795086027945   -5.35579e-10   4.63328e-08 DIIS
   @DF-RKS iter  11:  -350.05795086031503   -3.55840e-11   2.22562e-08 DIIS
   @DF-RKS iter  12:  -350.05795086032276   -7.73070e-12   4.64193e-09 DIIS
  Energy and wave function converged.


  ==> Post-Iterations <==

    Orbital Energies [Eh]
    ---------------------

    Doubly Occupied:                                                      

       1A    -10.304020     2A    -10.293313     3A    -10.293238  
       4A    -10.291156     5A    -10.291123     6A    -10.290748  
       7A    -10.287680     8A    -10.283072     9A    -10.272643  
      10A     -0.958122    11A     -0.894232    12A     -0.845637  
      13A     -0.844737    14A     -0.777821    15A     -0.701651  
      16A     -0.698266    17A     -0.670367    18A     -0.603485  
      19A     -0.556308    20A     -0.549445    21A     -0.530503  
      22A     -0.515813    23A     -0.508070    24A     -0.492280  
      25A     -0.479661    26A     -0.456487    27A     -0.439349  
      28A     -0.428568    29A     -0.422464    30A     -0.410159  
      31A     -0.401293    32A     -0.327150    33A     -0.316396  

    Virtual:                                                              

      34A      0.062122    35A      0.065237    36A      0.119895  
      37A      0.135700    38A      0.143185    39A      0.158899  
      40A      0.172100    41A      0.173298    42A      0.190187  
      43A      0.196776    44A      0.205373    45A      0.210641  
      46A      0.217774    47A      0.228726    48A      0.248705  
      49A      0.287345    50A      0.302995    51A      0.322385  
      52A      0.353648    53A      0.361269    54A      0.368410  
      55A      0.379157    56A      0.386516    57A      0.399402  
      58A      0.410487    59A      0.417463    60A      0.461804  
      61A      0.475720    62A      0.480633    63A      0.489452  
      64A      0.494780    65A      0.499867    66A      0.522317  
      67A      0.538713    68A      0.546912    69A      0.559883  
      70A      0.571112    71A      0.580452    72A      0.602985  
      73A      0.625291    74A      0.634536    75A      0.638182  
      76A      0.658377    77A      0.667366    78A      0.677577  
      79A      0.684508    80A      0.690623    81A      0.698571  
      82A      0.700734    83A      0.708945    84A      0.715639  
      85A      0.722751    86A      0.733070    87A      0.742181  
      88A      0.753498    89A      0.755656    90A      0.780070  
      91A      0.802659    92A      0.850037    93A      0.861353  
      94A      0.874785    95A      0.904515    96A      0.927479  
      97A      0.940747    98A      0.962919    99A      1.004140  
     100A      1.019479   101A      1.126374   102A      1.134157  
     103A      1.188897   104A      1.211610   105A      1.371280  
     106A      2.294233   107A      2.324664   108A      2.347072  
     109A      2.354963   110A      2.364019   111A      2.373965  
     112A      2.387150   113A      2.401398   114A      2.424506  
     115A      2.451084   116A      2.459392   117A      2.601529  
     118A      2.640096   119A      2.671056   120A      2.698555  
     121A      2.790060   122A      2.794498   123A      2.829638  
     124A      2.834335   125A      2.904819   126A      2.915636  
     127A      2.932469   128A      2.947720   129A      2.979040  
     130A      2.988568   131A      3.009684   132A      3.022564  
     133A      3.069923   134A      3.134002   135A      3.157359  
     136A      3.174331   137A      3.200706   138A      3.214627  
     139A      3.268385   140A      3.301264   141A      3.339047  
     142A      3.369120   143A      3.383071   144A      3.533040  
     145A     23.253051   146A     23.472565   147A     23.483812  
     148A     23.512766   149A     23.662433   150A     23.707774  
     151A     23.736134   152A     23.750750   153A     23.991045  

    Final Occupation by Irrep:
              A 
    DOCC [    33 ]

  @DF-RKS Final Energy:  -350.05795086032276

   => Energetics <=

    Nuclear Repulsion Energy =            409.0083947495879215
    One-Electron Energy =               -1280.6659964505445259
    Two-Electron Energy =                 557.9307648405624604
    DFT Exchange-Correlation Energy =     -36.3195856393037673
    Empirical Dispersion Energy =          -0.0115283606248732
    VV10 Nonlocal Energy =                  0.0000000000000000
    Total Energy =                       -350.0579508603227623

Computation Completed


Properties will be evaluated at   0.000000,   0.000000,   0.000000 [a0]

Properties computed using the SCF density matrix

  Nuclear Dipole Moment: [e a0]
     X:    -9.4655      Y:    -0.9037      Z:     0.1867

  Electronic Dipole Moment: [e a0]
     X:     9.3118      Y:     0.8631      Z:    -0.2198

  Dipole Moment: [e a0]
     X:    -0.1537      Y:    -0.0405      Z:    -0.0331     Total:     0.1624

  Dipole Moment: [D]
     X:    -0.3907      Y:    -0.1030      Z:    -0.0841     Total:     0.4127


*** tstop() called on daniele-Precision-5750 at Wed Jun  2 00:16:27 2021
Module time:
	user time   =      77.80 seconds =       1.30 minutes
	system time =       2.33 seconds =       0.04 minutes
	total time  =         11 seconds =       0.18 minutes
Total time:
	user time   =      77.80 seconds =       1.30 minutes
	system time =       2.33 seconds =       0.04 minutes
	total time  =         11 seconds =       0.18 minutes

*** tstart() called on daniele-Precision-5750
*** at Wed Jun  2 00:16:27 2021


         ------------------------------------------------------------
                                   SCF GRAD                          
                          Rob Parrish, Justin Turney,                
                       Andy Simmonett, and Alex Sokolov              
         ------------------------------------------------------------

  ==> Geometry <==

    Molecular point group: c1
    Full point group: C1

    Geometry (in Angstrom), charge = 0, multiplicity = 1:

       Center              X                  Y                   Z               Mass       
    ------------   -----------------  -----------------  -----------------  -----------------
         C           -1.255939086280    -1.069814409949     0.433933237804    12.000000000000
         C           -2.382491086280    -0.513956409949    -0.491070762196    12.000000000000
         C            0.099567913720    -0.389712409949     0.200293237804    12.000000000000
         C           -3.572402086280     0.104861590051     0.270133237804    12.000000000000
         C            0.431167913720     0.806490590051     0.880016237804    12.000000000000
         C            1.024146913720    -0.920246409949    -0.730618762196    12.000000000000
         C            1.665122913720     1.444938590051     0.649444237804    12.000000000000
         C            2.258335913720    -0.281664409949    -0.960021762196    12.000000000000
         C            2.580483913720     0.900059590051    -0.268835762196    12.000000000000
         H           -1.154808086280    -2.152237409949     0.278704237804     1.007825032230
         H           -1.535301086280    -0.972544409949     1.491210237804     1.007825032230
         H           -1.964032086280     0.227729590051    -1.184800762196     1.007825032230
         H           -2.741486086280    -1.324280409949    -1.139666762196     1.007825032230
         H           -3.248272086280     0.946382590051     0.891827237804     1.007825032230
         H           -4.328267086280     0.478339590051    -0.428986762196     1.007825032230
         H           -4.054141086280    -0.634412409949     0.919099237804     1.007825032230
         H           -0.268580086280     1.245689590051     1.589695237804     1.007825032230
         H            0.788832913720    -1.830464409949    -1.280434762196     1.007825032230
         H            1.910667913720     2.361853590051     1.182086237804     1.007825032230
         H            2.963852913720    -0.702776409949    -1.673895762196     1.007825032230
         H            3.534623913720     1.392787590051    -0.445673762196     1.007825032230

  Nuclear repulsion =  409.008394749587922

  ==> Basis Set <==

  Basis Set: 6-311G
    Blend: 6-311G
    Number of shells: 99
    Number of basis function: 153
    Number of Cartesian functions: 153
    Spherical Harmonics?: true
    Max angular momentum: 1

  ==> DFJKGrad: Density-Fitted SCF Gradients <==

    Gradient:                    1
    J tasked:                  Yes
    K tasked:                  Yes
    wK tasked:                 Yes
    Omega:               2.000E-01
    OpenMP threads:              8
    Integrals threads:           8
    Memory [MiB]:              500
    Schwarz Cutoff:          0E+00
    Fitting Condition:       1E-10

   => Auxiliary Basis Set <=

  Basis Set: (6-311G AUX)
    Blend: CC-PVTZ-JKFIT
    Number of shells: 345
    Number of basis function: 1071
    Number of Cartesian functions: 1284
    Spherical Harmonics?: true
    Max angular momentum: 4

  ==> DFT Potential <==

   => Composite Functional: WB97X-D <= 

    wB97X-D Hyb-GGA Exchange-Correlation Functional

    J.-D. Chai and M. Head-Gordon, Phys. Chem. Chem. Phys. 10, 6615 (2008)

    Deriv               =              1
    GGA                 =           TRUE
    Meta                =          FALSE

    Exchange Hybrid     =           TRUE
    MP2 Hybrid          =          FALSE

   => Exchange-Correlation Functionals <=

    1.0000   wB97D range-separated functional

   => Exact (HF) Exchange <=

    0.7780            HF,LR [omega = 0.2000]
    0.2220               HF 

   => Molecular Quadrature <=

    Radial Scheme          =       TREUTLER
    Pruning Scheme         =           FLAT
    Nuclear Scheme         =       TREUTLER

    BS radius alpha        =              1
    Pruning alpha          =              1
    Radial Points          =             75
    Spherical Points       =            302
    Total Points           =         470092
    Total Blocks           =           3485
    Max Points             =            256
    Max Functions          =            140


  -Total Gradient:
     Atom            X                  Y                   Z
    ------   -----------------  -----------------  -----------------
       1       -0.007405434930    -0.001220699005     0.001542517703
       2        0.001973219939     0.000549578328     0.002163518263
       3       -0.000545969059    -0.000086823333     0.000136419721
       4       -0.002655784742     0.001488217292     0.002986941496
       5       -0.007910929237     0.003725112873     0.006769016326
       6       -0.003400759199    -0.009197058091    -0.005497483760
       7        0.003267150881     0.007734077426     0.004684364292
       8        0.006871336504    -0.003565905439    -0.005704260928
       9        0.005968388082     0.003183069944    -0.001061857020
      10       -0.001740487435    -0.003715875332     0.001610885765
      11        0.000510552944    -0.003959067886     0.003050869433
      12        0.000048624617     0.000611703937    -0.004814779808
      13        0.001128081488    -0.001680574484    -0.003159055348
      14       -0.000195352771     0.001867604392     0.000750419724
      15       -0.001421138476     0.000666700561    -0.001508521354
      16       -0.001479782984    -0.001199034386     0.000707589214
      17       -0.001771441059     0.003485995934     0.002508785373
      18        0.000565830675    -0.003082459365    -0.003546971068
      19        0.001263767033     0.003818086851     0.002028355959
      20        0.003115802693    -0.001504056425    -0.002868018655
      21        0.003925363280     0.002116963656    -0.000863280045


*** tstop() called on daniele-Precision-5750 at Wed Jun  2 00:16:31 2021
Module time:
	user time   =      36.35 seconds =       0.61 minutes
	system time =       0.43 seconds =       0.01 minutes
	total time  =          4 seconds =       0.07 minutes
Total time:
	user time   =     114.16 seconds =       1.90 minutes
	system time =       2.76 seconds =       0.05 minutes
	total time  =         15 seconds =       0.25 minutes

			-----------------------------------------
			 OPTKING 2.0: for geometry optimizations 
			  - R.A. King,  Bethel University        
			-----------------------------------------
	At level 1: Red. Int., RFO, no backsteps, dynamic trust

	Internal coordinates to be generated automatically.
	Detected frag 1 with atoms:  1 2 3 4 5 6 7 8 9 10 11 12 13 14 15 16 17 18 19 20
	 21
	---Fragment 1 Bond Connectivity---
	 1 : 2 3 10 11
	 2 : 1 4 12 13
	 3 : 1 5 6
	 4 : 2 14 15 16
	 5 : 3 7 17
	 6 : 3 8 18
	 7 : 5 9 19
	 8 : 6 9 20
	 9 : 7 8 21
	 10 : 1
	 11 : 1
	 12 : 2
	 13 : 2
	 14 : 4
	 15 : 4
	 16 : 4
	 17 : 5
	 18 : 6
	 19 : 7
	 20 : 8
	 21 : 9

	Assuming in current code that numbering for constraints corresponds to unified fragment.
	Frozen dihedral atom list: 
	     4     2     1     3
	     2     1     3     5
	     2     1     3     6
	     1     2     4    14
	---Fragment 1 Geometry and Gradient---
	 C          -2.3733809033       -2.0216562399        0.8200149762
	 C          -4.5022556494       -0.9712368552       -0.9279892488
	 C           0.1881560878       -0.7364497225        0.3784993642
	 C          -6.7508615531        0.1981596863        0.5104778368
	 C           0.8147892710        1.5240463380        1.6629896754
	 C           1.9353571792       -1.7390136827       -1.3806693627
	 C           3.1466262722        2.7305382033        1.2272717432
	 C           4.2676363762       -0.5322685941       -1.8141782050
	 C           4.8764078681        1.7008661218       -0.5080259633
	 H          -2.1822710105       -4.0671392618        0.5266746795
	 H          -2.9012985732       -1.8378425796        2.8179789449
	 H          -3.7114827447        0.4303465559       -2.2389489538
	 H          -5.1806578798       -2.5025272881       -2.1536580548
	 H          -6.1383446240        1.7884039051        1.6853092307
	 H          -8.1792393909        0.9039308202       -0.8106674920
	 H          -7.6612163270       -1.1988657054        1.7368458416
	 H          -0.5075428058        2.3540121625        3.0040886224
	 H           1.4906781657       -3.4590764172       -2.4196710221
	 H           3.6106390736        4.4632564336        2.2338192461
	 H           5.6008702831       -1.3280549422       -3.1632045531
	 H           6.6794711534        2.6319870961       -0.8422013519
	            -0.0074054349       -0.0012206990        0.0015425177
	             0.0019732199        0.0005495783        0.0021635183
	            -0.0005459691       -0.0000868233        0.0001364197
	            -0.0026557847        0.0014882173        0.0029869415
	            -0.0079109292        0.0037251129        0.0067690163
	            -0.0034007592       -0.0091970581       -0.0054974838
	             0.0032671509        0.0077340774        0.0046843643
	             0.0068713365       -0.0035659054       -0.0057042609
	             0.0059683881        0.0031830699       -0.0010618570
	            -0.0017404874       -0.0037158753        0.0016108858
	             0.0005105529       -0.0039590679        0.0030508694
	             0.0000486246        0.0006117039       -0.0048147798
	             0.0011280815       -0.0016805745       -0.0031590553
	            -0.0001953528        0.0018676044        0.0007504197
	            -0.0014211385        0.0006667006       -0.0015085214
	            -0.0014797830       -0.0011990344        0.0007075892
	            -0.0017714411        0.0034859959        0.0025087854
	             0.0005658307       -0.0030824594       -0.0035469711
	             0.0012637670        0.0038180869        0.0020283560
	             0.0031158027       -0.0015040564       -0.0028680187
	             0.0039253633        0.0021169637       -0.0008632800

	Previous optimization step data not found.  Starting new optimization.

	---Fragment 1 Intrafragment Coordinates---
	 - Coordinate -           - BOHR/RAD -       - ANG/DEG -
	 R(1,2)           =         2.948051	       1.560042
	 R(1,3)           =         2.899683	       1.534446
	 R(1,10)          =         2.075228	       1.098163
	 R(1,11)          =         2.074691	       1.097879
	 R(2,4)           =         2.914259	       1.542159
	 R(2,12)          =         2.075662	       1.098393
	 R(2,13)          =         2.075414	       1.098262
	 R(3,5)           =         2.674402	       1.415233
	 R(3,6)           =         2.674420	       1.415242
	 R(4,14)          =         2.069851	       1.095318
	 R(4,15)          =         2.069735	       1.095256
	 R(4,16)          =         2.069880	       1.095333
	 R(5,7)           =         2.661379	       1.408341
	 R(5,17)          =         2.058143	       1.089122
	 R(6,8)           =         2.661520	       1.408416
	 R(6,18)          =         2.058125	       1.089113
	 R(7,9)           =         2.657749	       1.406420
	 R(7,19)          =         2.056881	       1.088454
	 R(8,9)           =         2.657730	       1.406410
	 R(8,20)          =         2.056857	       1.088442
	 R(9,21)          =         2.056623	       1.088318
	 B(1,2,4)         =         1.990501	     114.047310
	 B(1,2,12)        =         1.917686	     109.875312
	 B(1,2,13)        =         1.900032	     108.863828
	 B(1,3,5)         =         2.104216	     120.562674
	 B(1,3,6)         =         2.107283	     120.738448
	 B(2,1,3)         =         1.971114	     112.936538
	 B(2,1,10)        =         1.911225	     109.505104
	 B(2,1,11)        =         1.934447	     110.835656
	 B(2,4,14)        =         1.939193	     111.107568
	 B(2,4,15)        =         1.932911	     110.747653
	 B(2,4,16)        =         1.940106	     111.159894
	 B(3,1,10)        =         1.911336	     109.511458
	 B(3,1,11)        =         1.909374	     109.399094
	 B(3,5,7)         =         2.105789	     120.652850
	 B(3,5,17)        =         2.098174	     120.216531
	 B(3,6,8)         =         2.105580	     120.640864
	 B(3,6,18)        =         2.099261	     120.278804
	 B(4,2,12)        =         1.912135	     109.557275
	 B(4,2,13)        =         1.912776	     109.593977
	 B(5,3,6)         =         2.071114	     118.666095
	 B(5,7,9)         =         2.096149	     120.100511
	 B(5,7,19)        =         2.093736	     119.962210
	 B(6,8,9)         =         2.096293	     120.108744
	 B(6,8,20)        =         2.093719	     119.961263
	 B(7,5,17)        =         2.079221	     119.130602
	 B(7,9,8)         =         2.091313	     119.823408
	 B(7,9,21)        =         2.095887	     120.085458
	 B(8,6,18)        =         2.078344	     119.080330
	 B(8,9,21)        =         2.095983	     120.090999
	 B(9,7,19)        =         2.093300	     119.937264
	 B(9,8,20)        =         2.093173	     119.929977
	 B(10,1,11)       =         1.820263	     104.293373
	 B(12,2,13)       =         1.823219	     104.462764
	 B(14,4,15)       =         1.880256	     107.730745
	 B(14,4,16)       =         1.888518	     108.204133
	 B(15,4,16)       =         1.880541	     107.747051
	*D(1,2,4,14)      =         1.050897	      60.211940
	 D(1,2,4,15)      =         3.139892	     179.902582
	 D(1,2,4,16)      =        -1.053339	     -60.351905
	 D(1,3,5,7)       =        -3.122049	    -178.880212
	 D(1,3,5,17)      =         0.018714	       1.072215
	 D(1,3,6,8)       =         3.122708	     178.917967
	 D(1,3,6,18)      =        -0.018610	      -1.066248
	*D(2,1,3,5)       =         1.513585	      86.722005
	*D(2,1,3,6)       =        -1.591176	     -91.167668
	*D(3,1,2,4)       =        -2.093855	    -119.969070
	 D(3,1,2,12)      =         0.060613	       3.472896
	 D(3,1,2,13)      =         2.047470	     117.311377
	 D(3,5,7,9)       =         0.006063	       0.347371
	 D(3,5,7,19)      =        -3.136296	    -179.696532
	 D(3,6,8,9)       =        -0.007518	      -0.430754
	 D(3,6,8,20)      =         3.134876	     179.615192
	 D(4,2,1,10)      =         2.054448	     117.711207
	 D(4,2,1,11)      =         0.055652	       3.188610
	 D(5,3,1,10)      =        -2.634781	    -150.961830
	 D(5,3,1,11)      =        -0.649770	     -37.229070
	 D(5,3,6,8)       =         0.017260	       0.988937
	 D(5,3,6,18)      =        -3.124057	    -178.995278
	 D(5,7,9,8)       =         0.004008	       0.229616
	 D(5,7,9,21)      =        -3.139925	    -179.904450
	 D(6,3,1,10)      =         0.543644	      31.148497
	 D(6,3,1,11)      =         2.528655	     144.881258
	 D(6,3,5,7)       =        -0.016536	      -0.947419
	 D(6,3,5,17)      =         3.124227	     179.005008
	 D(6,8,9,7)       =        -0.003285	      -0.188213
	 D(6,8,9,21)      =         3.140648	     179.945860
	 D(7,9,8,20)      =         3.137506	     179.765855
	 D(8,9,7,19)      =        -3.136819	    -179.726493
	 D(9,7,5,17)      =        -3.134708	    -179.605567
	 D(9,8,6,18)      =         3.133802	     179.553647
	 D(10,1,2,12)     =        -2.074268	    -118.846827
	 D(10,1,2,13)     =        -0.087412	      -5.008346
	 D(11,1,2,12)     =         2.210120	     126.630576
	 D(11,1,2,13)     =        -2.086209	    -119.530943
	 D(12,2,4,14)     =        -1.106574	     -63.402042
	 D(12,2,4,15)     =         0.982421	      56.288600
	 D(12,2,4,16)     =         3.072375	     176.034113
	 D(13,2,4,14)     =        -3.097400	    -177.467970
	 D(13,2,4,15)     =        -1.008405	     -57.777328
	 D(13,2,4,16)     =         1.081549	      61.968185
	 D(17,5,7,19)     =         0.006118	       0.350531
	 D(18,6,8,20)     =        -0.006988	      -0.400407
	 D(19,7,9,21)     =         0.002434	       0.139442
	 D(20,8,9,21)     =        -0.001747	      -0.100071

	Current energy   :      -350.0579508603

	Generating empirical Hessian (Schlegel '84) for each fragment.
	Taking RFO optimization step.
	Going to follow RFO solution 1.
	Using RFO vector 1.
	Norm of target step-size    0.17480
	Projected energy change by RFO approximation:        -0.0042189653

	Back-transformation to cartesian coordinates...
	Successfully converged to displaced geometry.

	Back-transformation to cartesian coordinates to adjust frozen coordinates...
	Successfully converged to displaced geometry.

	--- Internal Coordinate Step in ANG or DEG, aJ/ANG or AJ/DEG ---
	 ---------------------------------------------------------------------------
	   Coordinate                Previous        Force       Change         New 
	   ----------                --------       ------       ------       ------
	    1 R(1,2)          =      1.560042    -0.036471    -0.008581     1.551461
	    2 R(1,3)          =      1.534446    -0.110431    -0.024042     1.510404
	    3 R(1,10)         =      1.098163    -0.027016    -0.005048     1.093115
	    4 R(1,11)         =      1.097879    -0.020211    -0.003773     1.094106
	    5 R(2,4)          =      1.542159    -0.058085    -0.012948     1.529211
	    6 R(2,12)         =      1.098393    -0.028627    -0.005353     1.093040
	    7 R(2,13)         =      1.098262    -0.022525    -0.004211     1.094051
	    8 R(3,5)          =      1.415233    -0.128743    -0.019088     1.396145
	    9 R(3,6)          =      1.415242    -0.131851    -0.019543     1.395699
	   10 R(4,14)         =      1.095318    -0.014879    -0.002755     1.092563
	   11 R(4,15)         =      1.095256    -0.017886    -0.003311     1.091945
	   12 R(4,16)         =      1.095333    -0.015524    -0.002874     1.092459
	   13 R(5,7)          =      1.408341    -0.113296    -0.016264     1.392077
	   14 R(5,17)         =      1.089122    -0.034472    -0.006255     1.082868
	   15 R(6,8)          =      1.408416    -0.111676    -0.016029     1.392386
	   16 R(6,18)         =      1.089113    -0.034982    -0.006347     1.082766
	   17 R(7,9)          =      1.406420    -0.102788    -0.014506     1.391914
	   18 R(7,19)         =      1.088454    -0.037012    -0.006701     1.081754
	   19 R(8,9)          =      1.406410    -0.103610    -0.014620     1.391790
	   20 R(8,20)         =      1.088442    -0.036884    -0.006677     1.081764
	   21 R(9,21)         =      1.088318    -0.037345    -0.006758     1.081560
	   22 B(1,2,4)        =    114.047310    -0.000193    -1.037070   113.010240
	   23 B(1,2,12)       =    109.875312    -0.000002    -0.586498   109.288814
	   24 B(1,2,13)       =    108.863828     0.000118     0.775469   109.639297
	   25 B(1,3,5)        =    120.562674    -0.000016    -0.023959   120.538715
	   26 B(1,3,6)        =    120.738448     0.000025     0.109971   120.848419
	   27 B(2,1,3)        =    112.936538     0.000133     0.087496   113.024034
	   28 B(2,1,10)       =    109.505104     0.000008     0.615338   110.120443
	   29 B(2,1,11)       =    110.835656    -0.000160    -1.381640   109.454016
	   30 B(2,4,14)       =    111.107568    -0.000080    -0.465270   110.642297
	   31 B(2,4,15)       =    110.747653     0.000035     0.338772   111.086425
	   32 B(2,4,16)       =    111.159894    -0.000020    -0.171323   110.988571
	   33 B(3,1,10)       =    109.511458    -0.000126    -0.598688   108.912770
	   34 B(3,1,11)       =    109.399094    -0.000028    -0.492224   108.906869
	   35 B(3,5,7)        =    120.652850     0.000058     0.162563   120.815413
	   36 B(3,5,17)       =    120.216531    -0.000176    -0.753246   119.463285
	   37 B(3,6,8)        =    120.640864     0.000059     0.156141   120.797005
	   38 B(3,6,18)       =    120.278804    -0.000185    -0.784244   119.494560
	   39 B(4,2,12)       =    109.557275     0.000053    -0.165375   109.391901
	   40 B(4,2,13)       =    109.593977    -0.000032    -0.425139   109.168838
	   41 B(5,3,6)        =    118.666095    -0.000008    -0.085956   118.580139
	   42 B(5,7,9)        =    120.100511    -0.000000     0.028704   120.129215
	   43 B(5,7,19)       =    119.962210    -0.000022    -0.117768   119.844442
	   44 B(6,8,9)        =    120.108744     0.000001     0.038037   120.146781
	   45 B(6,8,20)       =    119.961263    -0.000025    -0.140006   119.821257
	   46 B(7,5,17)       =    119.130602     0.000118     0.590654   119.721257
	   47 B(7,9,8)        =    119.823408    -0.000108    -0.293159   119.530249
	   48 B(7,9,21)       =    120.085458     0.000053     0.142999   120.228457
	   49 B(8,6,18)       =    119.080330     0.000126     0.628013   119.708344
	   50 B(8,9,21)       =    120.090999     0.000055     0.149548   120.240546
	   51 B(9,7,19)       =    119.937264     0.000023     0.088263   120.025527
	   52 B(9,8,20)       =    119.929977     0.000025     0.101353   120.031330
	   53 B(10,1,11)      =    104.293373     0.000174     1.892873   106.186246
	   54 B(12,2,13)      =    104.462764     0.000080     1.645163   106.107927
	   55 B(14,4,15)      =    107.730745     0.000002     0.158300   107.889045
	   56 B(14,4,16)      =    108.204133     0.000047    -0.123846   108.080288
	   57 B(15,4,16)      =    107.747051     0.000021     0.281222   108.028274
	   58 *D(1,2,4,14)    =     60.211940     0.000000    -0.000000    60.211940
	   59 D(1,2,4,15)     =    179.902582    -0.000006     0.115471   180.018053
	   60 D(1,2,4,16)     =    -60.351905     0.000002     0.581668   -59.770237
	   61 D(1,3,5,7)      =   -178.880212     0.000009     1.346639  -177.533573
	   62 D(1,3,5,17)     =      1.072215     0.000008     1.316661     2.388876
	   63 D(1,3,6,8)      =    178.917967    -0.000009    -1.347274   177.570692
	   64 D(1,3,6,18)     =     -1.066248    -0.000008    -1.252516    -2.318764
	   65 *D(2,1,3,5)     =     86.722005    -0.000000    -0.000000    86.722005
	   66 *D(2,1,3,6)     =    -91.167668     0.000000     0.000000   -91.167668
	   67 *D(3,1,2,4)     =   -119.969070    -0.000000    -0.000000  -119.969070
	   68 D(3,1,2,12)     =      3.472896    -0.000017    -1.381588     2.091308
	   69 D(3,1,2,13)     =    117.311377     0.000020     0.692272   118.003650
	   70 D(3,5,7,9)      =      0.347371    -0.000004    -0.632142    -0.284771
	   71 D(3,5,7,19)     =   -179.696532    -0.000002    -0.259774  -179.956306
	   72 D(3,6,8,9)      =     -0.430754     0.000004     0.628018     0.197264
	   73 D(3,6,8,20)     =    179.615192     0.000002     0.292948   179.908139
	   74 D(4,2,1,10)     =    117.711207     0.000015     0.262780   117.973987
	   75 D(4,2,1,11)     =      3.188610    -0.000014    -1.590331     1.598279
	   76 D(5,3,1,10)     =   -150.961830     0.000002     0.415449  -150.546382
	   77 D(5,3,1,11)     =    -37.229070     0.000031     2.075815   -35.153255
	   78 D(5,3,6,8)      =      0.988937    -0.000009    -1.348459    -0.359522
	   79 D(5,3,6,18)     =   -178.995278    -0.000008    -1.253701  -180.248978
	   80 D(5,7,9,8)      =      0.229616    -0.000001    -0.116145     0.113471
	   81 D(5,7,9,21)     =   -179.904450     0.000002     0.331866  -179.572584
	   82 D(6,3,1,10)     =     31.148497     0.000002     0.415449    31.563946
	   83 D(6,3,1,11)     =    144.881258     0.000031     2.075815   146.957072
	   84 D(6,3,5,7)      =     -0.947419     0.000009     1.350694     0.403275
	   85 D(6,3,5,17)     =    179.005008     0.000009     1.320716   180.325724
	   86 D(6,8,9,7)      =     -0.188213     0.000001     0.118022    -0.070191
	   87 D(6,8,9,21)     =    179.945860    -0.000002    -0.330035   179.615825
	   88 D(7,9,8,20)     =    179.765855     0.000003     0.453689   180.219545
	   89 D(8,9,7,19)     =   -179.726493    -0.000003    -0.489100  -180.215592
	   90 D(9,7,5,17)     =   -179.605567    -0.000004    -0.601455  -180.207022
	   91 D(9,8,6,18)     =    179.553647     0.000003     0.532839   180.086486
	   92 D(10,1,2,12)    =   -118.846827    -0.000002    -1.118808  -119.965636
	   93 D(10,1,2,13)    =     -5.008346     0.000035     0.955052    -4.053294
	   94 D(11,1,2,12)    =    126.630576    -0.000030    -2.971919   123.658657
	   95 D(11,1,2,13)    =   -119.530943     0.000006    -0.898059  -120.429002
	   96 D(12,2,4,14)    =    -63.402042     0.000023     1.611437   -61.790605
	   97 D(12,2,4,15)    =     56.288600     0.000017     1.726908    58.015508
	   98 D(12,2,4,16)    =    176.034113     0.000025     2.193104   178.227218
	   99 D(13,2,4,14)    =   -177.467970    -0.000001    -0.029244  -177.497215
	  100 D(13,2,4,15)    =    -57.777328    -0.000008     0.086227   -57.691102
	  101 D(13,2,4,16)    =     61.968185     0.000001     0.552423    62.520608
	  102 D(17,5,7,19)    =      0.350531    -0.000001    -0.229087     0.121443
	  103 D(18,6,8,20)    =     -0.400407     0.000001     0.197768    -0.202639
	  104 D(19,7,9,21)    =      0.139442    -0.000000    -0.041089     0.098353
	  105 D(20,8,9,21)    =     -0.100071    -0.000000     0.005632    -0.094439
	 ---------------------------------------------------------------------------
	Successfully symmetrized geometry.

  ==> Convergence Check <==

  Measures of convergence in internal coordinates in au.
  Criteria marked as inactive (o), active & met (*), and active & unmet ( ).
  --------------------------------------------------------------------------------------------- ~
   Step     Total Energy     Delta E     MAX Force     RMS Force      MAX Disp      RMS Disp    ~
  --------------------------------------------------------------------------------------------- ~
    Convergence Criteria             o    2.50e-03 *    1.70e-03 *    1.00e-02 *    6.70e-03 *  ~
  --------------------------------------------------------------------------------------------- ~
      1    -350.05795086   -3.50e+02 o    1.60e-02      3.97e-03      5.19e-02      1.71e-02    ~
  ---------------------------------------------------------------------------------------------

	Writing optimization data to binary file.
	Structure for next step:
	Cartesian Geometry (in Angstrom)
	    C    -1.2519591726  -1.0560028368   0.4182167169
	    C    -2.3527269749  -0.5029351218  -0.5248940659
	    C     0.0906684472  -0.3962684825   0.2098366595
	    C    -3.5305716212   0.1155453359   0.2291958983
	    C     0.4120468527   0.7855354751   0.8801165432
	    C     1.0180479816  -0.9284569413  -0.6872249667
	    C     1.6272524497   1.4258342232   0.6539075044
	    C     2.2350925627  -0.2918584660  -0.9158835541
	    C     2.5438254015   0.8877603242  -0.2448662628
	    H    -1.1426025865  -2.1343957026   0.2767582108
	    H    -1.5588268631  -0.9144662013   1.4588260108
	    H    -1.9151210492   0.2451683391  -1.1909104712
	    H    -2.7211757729  -1.3056731627  -1.1704985899
	    H    -3.1953739069   0.9505032979   0.8490197393
	    H    -4.2853918235   0.4937415793  -0.4633060675
	    H    -4.0078003262  -0.6201570301   0.8807029613
	    H    -0.2947511847   1.2081621018   1.5832706677
	    H     0.7857687686  -1.8465823009  -1.2120815641
	    H     1.8604084147   2.3404393732   1.1824208786
	    H     2.9429471102  -0.7190657124  -1.6134868297
	    H     3.4913265172   1.3801953033  -0.4166824258
			--------------------------
			 OPTKING Finished Execution 
			--------------------------

    Structure for next step:
    Molecular point group: c1
    Full point group: C1

    Geometry (in Angstrom), charge = 0, multiplicity = 1:

    C           -1.246804464870    -1.052176637484     0.415001153473
    C           -2.347572271553    -0.499108920336    -0.528109633045
    C            0.095823160199    -0.392442280602     0.206621095216
    C           -3.525416922419     0.119371539762     0.225980334076
    C            0.417201566967     0.789361681601     0.876900981569
    C            1.023202698213    -0.924630741472    -0.690440534536
    C            1.632407168742     1.429660432252     0.650691941859
    C            2.240247284148    -0.288032263713    -0.919099122795
    C            2.548980124137     0.891586531116    -0.248081828848
    H           -1.137447878375    -2.130569507518     0.273542646722
    H           -1.553672156614    -0.910640001455     1.455610451448
    H           -1.909966344091     0.248994543541    -1.194126041019
    H           -2.716021071025    -1.301846964398    -1.173714159646
    H           -3.190219206872     0.954329505072     0.845804177561
    H           -4.280237127720     0.497567784685    -0.466521634461
    H           -4.002645629309    -0.616330829074     0.877487399614
    H           -0.289596473277     1.211988310042     1.580055108851
    H            0.790923484281    -1.842756104742    -1.215297134031
    H            1.865563134618     2.344265585879     1.179205318099
    H            2.948101834401    -0.715239511785    -1.616702401147
    H            3.496481243514     1.384021512215    -0.419897992573

gradient() will perform analytic gradient computation.

*** tstart() called on daniele-Precision-5750
*** at Wed Jun  2 00:16:31 2021

   => Loading Basis Set <=

    Name: 6-311G
    Role: ORBITAL
    Keyword: BASIS
    atoms 1-9   entry C          line    92 file /home/daniele/anaconda3/envs/poltype/share/psi4/basis/6-311g.gbs 
    atoms 10-21 entry H          line    21 file /home/daniele/anaconda3/envs/poltype/share/psi4/basis/6-311g.gbs 


         ---------------------------------------------------------
                                   SCF
               by Justin Turney, Rob Parrish, Andy Simmonett
                          and Daniel G. A. Smith
                              RKS Reference
                        8 Threads,    667 MiB Core
         ---------------------------------------------------------

  ==> Geometry <==

    Molecular point group: c1
    Full point group: C1

    Geometry (in Angstrom), charge = 0, multiplicity = 1:

       Center              X                  Y                   Z               Mass       
    ------------   -----------------  -----------------  -----------------  -----------------
         C           -1.246804464870    -1.052176637484     0.415001153473    12.000000000000
         C           -2.347572271553    -0.499108920336    -0.528109633045    12.000000000000
         C            0.095823160199    -0.392442280602     0.206621095216    12.000000000000
         C           -3.525416922419     0.119371539762     0.225980334076    12.000000000000
         C            0.417201566967     0.789361681601     0.876900981569    12.000000000000
         C            1.023202698213    -0.924630741472    -0.690440534536    12.000000000000
         C            1.632407168742     1.429660432252     0.650691941859    12.000000000000
         C            2.240247284148    -0.288032263713    -0.919099122795    12.000000000000
         C            2.548980124137     0.891586531116    -0.248081828848    12.000000000000
         H           -1.137447878375    -2.130569507518     0.273542646722     1.007825032230
         H           -1.553672156614    -0.910640001455     1.455610451448     1.007825032230
         H           -1.909966344091     0.248994543541    -1.194126041019     1.007825032230
         H           -2.716021071025    -1.301846964398    -1.173714159646     1.007825032230
         H           -3.190219206872     0.954329505072     0.845804177561     1.007825032230
         H           -4.280237127720     0.497567784685    -0.466521634461     1.007825032230
         H           -4.002645629309    -0.616330829074     0.877487399614     1.007825032230
         H           -0.289596473277     1.211988310042     1.580055108851     1.007825032230
         H            0.790923484281    -1.842756104742    -1.215297134031     1.007825032230
         H            1.865563134618     2.344265585879     1.179205318099     1.007825032230
         H            2.948101834401    -0.715239511785    -1.616702401147     1.007825032230
         H            3.496481243514     1.384021512215    -0.419897992573     1.007825032230

  Running in c1 symmetry.

  Rotational constants: A =      0.12884  B =      0.03098  C =      0.02706 [cm^-1]
  Rotational constants: A =   3862.50781  B =    928.63960  C =    811.26746 [MHz]
  Nuclear repulsion =  413.621522061964242

  Charge       = 0
  Multiplicity = 1
  Electrons    = 66
  Nalpha       = 33
  Nbeta        = 33

  ==> Algorithm <==

  SCF Algorithm Type is DF.
  DIIS enabled.
  MOM disabled.
  Fractional occupation disabled.
  Guess Type is READ.
  Energy threshold   = 1.00e-08
  Density threshold  = 1.00e-08
  Integral threshold = 0.00e+00

  ==> Primary Basis <==

  Basis Set: 6-311G
    Blend: 6-311G
    Number of shells: 99
    Number of basis function: 153
    Number of Cartesian functions: 153
    Spherical Harmonics?: true
    Max angular momentum: 1

  ==> DFT Potential <==

   => Composite Functional: WB97X-D <= 

    wB97X-D Hyb-GGA Exchange-Correlation Functional

    J.-D. Chai and M. Head-Gordon, Phys. Chem. Chem. Phys. 10, 6615 (2008)

    Deriv               =              1
    GGA                 =           TRUE
    Meta                =          FALSE

    Exchange Hybrid     =           TRUE
    MP2 Hybrid          =          FALSE

   => Exchange-Correlation Functionals <=

    1.0000   wB97D range-separated functional

   => Exact (HF) Exchange <=

    0.7780            HF,LR [omega = 0.2000]
    0.2220               HF 

   => Molecular Quadrature <=

    Radial Scheme          =       TREUTLER
    Pruning Scheme         =           FLAT
    Nuclear Scheme         =       TREUTLER

    BS radius alpha        =              1
    Pruning alpha          =              1
    Radial Points          =             75
    Spherical Points       =            302
    Total Points           =         470057
    Total Blocks           =           3486
    Max Points             =            256
    Max Functions          =            140

   => WB97X-D: Empirical Dispersion <=

    Chai and Head-Gordon Dispersion Correction
    Chai, J.-D.; Head-Gordon, M. (2010), J. Chem. Phys., 132: 6615-6620

        s6 =       1.000000

   => Loading Basis Set <=

    Name: (6-311G AUX)
    Role: JKFIT
    Keyword: DF_BASIS_SCF
    atoms 1-9   entry C          line   125 file /home/daniele/anaconda3/envs/poltype/share/psi4/basis/cc-pvtz-jkfit.gbs 
    atoms 10-21 entry H          line    51 file /home/daniele/anaconda3/envs/poltype/share/psi4/basis/cc-pvtz-jkfit.gbs 

   => Loading Basis Set <=

    Name: 6-311G
    Role: ORBITAL
    Keyword: BASIS
    atoms 1-9   entry C          line    92 file /home/daniele/anaconda3/envs/poltype/share/psi4/basis/6-311g.gbs 
    atoms 10-21 entry H          line    21 file /home/daniele/anaconda3/envs/poltype/share/psi4/basis/6-311g.gbs 

  Reading orbitals from file 180, no projection.

  ==> Pre-Iterations <==

   -------------------------------------------------------
    Irrep   Nso     Nmo     Nalpha   Nbeta   Ndocc  Nsocc
   -------------------------------------------------------
     A        153     153       0       0       0       0
   -------------------------------------------------------
    Total     153     153      33      33      33       0
   -------------------------------------------------------

  ==> Integral Setup <==

  ==> DiskDFJK: Density-Fitted J/K Matrices <==

    J tasked:                  Yes
    K tasked:                  Yes
    wK tasked:                 Yes
    Omega:               2.000E-01
    OpenMP threads:              8
    Integrals threads:           8
    Memory [MiB]:              115
    Algorithm:                Disk
    Integral Cache:           NONE
    Schwarz Cutoff:          1E-12
    Fitting Condition:       1E-10

   => Auxiliary Basis Set <=

  Basis Set: (6-311G AUX)
    Blend: CC-PVTZ-JKFIT
    Number of shells: 345
    Number of basis function: 1071
    Number of Cartesian functions: 1284
    Spherical Harmonics?: true
    Max angular momentum: 4

  Cached 33.3% of DFT collocation blocks in 0.437 [GiB].

  Minimum eigenvalue in the overlap matrix is 2.4445995006E-04.
  Using Symmetric Orthogonalization.

  SCF Guess: Orbitals guess was supplied from a previous computation.

  ==> Iterations <==

                           Total Energy        Delta E     RMS |[F,P]|

   @DF-RKS iter   0:  -350.12962585326272   -3.50130e+02   6.25471e-04 
   @DF-RKS iter   1:  -350.06001398555514    6.96119e-02   9.78568e-05 DIIS
   @DF-RKS iter   2:  -350.06012778056328   -1.13795e-04   6.70720e-05 DIIS
   @DF-RKS iter   3:  -350.06018447886964   -5.66983e-05   9.97164e-06 DIIS
   @DF-RKS iter   4:  -350.06018643311626   -1.95425e-06   5.57667e-06 DIIS
   @DF-RKS iter   5:  -350.06018690107555   -4.67959e-07   1.78108e-06 DIIS
   @DF-RKS iter   6:  -350.06018696200289   -6.09273e-08   5.66659e-07 DIIS
   @DF-RKS iter   7:  -350.06018696715159   -5.14871e-09   1.25388e-07 DIIS
   @DF-RKS iter   8:  -350.06018696761356   -4.61966e-10   3.07395e-08 DIIS
   @DF-RKS iter   9:  -350.06018696763044   -1.68825e-11   1.27556e-08 DIIS
   @DF-RKS iter  10:  -350.06018696763317   -2.72848e-12   2.32067e-09 DIIS
  Energy and wave function converged.


  ==> Post-Iterations <==

    Orbital Energies [Eh]
    ---------------------

    Doubly Occupied:                                                      

       1A    -10.296446     2A    -10.288292     3A    -10.288220  
       4A    -10.285914     5A    -10.285254     6A    -10.285180  
       7A    -10.283198     8A    -10.280039     9A    -10.270366  
      10A     -0.966813    11A     -0.900056    12A     -0.850243  
      13A     -0.848703    14A     -0.779458    15A     -0.704494  
      16A     -0.699925    17A     -0.671726    18A     -0.607546  
      19A     -0.561531    20A     -0.550177    21A     -0.533348  
      22A     -0.518787    23A     -0.509632    24A     -0.493609  
      25A     -0.481136    26A     -0.459540    27A     -0.441063  
      28A     -0.428078    29A     -0.422092    30A     -0.411152  
      31A     -0.402765    32A     -0.329191    33A     -0.317997  

    Virtual:                                                              

      34A      0.065696    35A      0.069124    36A      0.121040  
      37A      0.137085    38A      0.143495    39A      0.159603  
      40A      0.173218    41A      0.174662    42A      0.192809  
      43A      0.199502    44A      0.205674    45A      0.212230  
      46A      0.220872    47A      0.236127    48A      0.252911  
      49A      0.291190    50A      0.309708    51A      0.325626  
      52A      0.359910    53A      0.368718    54A      0.376093  
      55A      0.385644    56A      0.389750    57A      0.399292  
      58A      0.415446    59A      0.418988    60A      0.459031  
      61A      0.477238    62A      0.481810    63A      0.492674  
      64A      0.499589    65A      0.509174    66A      0.529438  
      67A      0.541126    68A      0.549104    69A      0.565301  
      70A      0.573143    71A      0.586837    72A      0.610403  
      73A      0.630606    74A      0.640173    75A      0.641439  
      76A      0.665019    77A      0.673521    78A      0.682217  
      79A      0.686142    80A      0.695112    81A      0.701773  
      82A      0.705128    83A      0.711952    84A      0.721881  
      85A      0.726035    86A      0.737439    87A      0.748091  
      88A      0.755373    89A      0.763412    90A      0.779827  
      91A      0.809462    92A      0.855863    93A      0.866894  
      94A      0.889307    95A      0.913983    96A      0.937931  
      97A      0.948954    98A      0.973463    99A      1.015222  
     100A      1.026567   101A      1.133203   102A      1.140430  
     103A      1.189608   104A      1.214134   105A      1.376735  
     106A      2.298542   107A      2.326449   108A      2.349886  
     109A      2.362025   110A      2.367679   111A      2.379946  
     112A      2.393005   113A      2.402788   114A      2.426502  
     115A      2.460638   116A      2.468351   117A      2.612833  
     118A      2.646876   119A      2.674847   120A      2.704321  
     121A      2.774912   122A      2.777490   123A      2.828496  
     124A      2.836749   125A      2.908039   126A      2.914878  
     127A      2.934437   128A      2.949703   129A      2.976176  
     130A      2.984618   131A      3.018726   132A      3.022880  
     133A      3.076737   134A      3.121725   135A      3.163450  
     136A      3.194857   137A      3.217046   138A      3.231661  
     139A      3.282901   140A      3.319276   141A      3.362130  
     142A      3.401806   143A      3.415501   144A      3.545842  
     145A     23.252107   146A     23.475584   147A     23.489170  
     148A     23.518715   149A     23.672923   150A     23.723670  
     151A     23.755129   152A     23.768166   153A     24.027048  

    Final Occupation by Irrep:
              A 
    DOCC [    33 ]

  @DF-RKS Final Energy:  -350.06018696763317

   => Energetics <=

    Nuclear Repulsion Energy =            413.6215220619642423
    One-Electron Energy =               -1289.8127226463470834
    Two-Electron Energy =                 562.5390681781102558
    DFT Exchange-Correlation Energy =     -36.3963387912579748
    Empirical Dispersion Energy =          -0.0117157701025704
    VV10 Nonlocal Energy =                  0.0000000000000000
    Total Energy =                       -350.0601869676331148

Computation Completed


Properties will be evaluated at   0.000000,   0.000000,   0.000000 [a0]

Properties computed using the SCF density matrix

  Nuclear Dipole Moment: [e a0]
     X:    -9.3548      Y:    -0.8214      Z:     0.1176

  Electronic Dipole Moment: [e a0]
     X:     9.2078      Y:     0.7831      Z:    -0.1510

  Dipole Moment: [e a0]
     X:    -0.1470      Y:    -0.0384      Z:    -0.0334     Total:     0.1555

  Dipole Moment: [D]
     X:    -0.3735      Y:    -0.0975      Z:    -0.0848     Total:     0.3953


*** tstop() called on daniele-Precision-5750 at Wed Jun  2 00:16:40 2021
Module time:
	user time   =      68.99 seconds =       1.15 minutes
	system time =       1.94 seconds =       0.03 minutes
	total time  =          9 seconds =       0.15 minutes
Total time:
	user time   =     184.44 seconds =       3.07 minutes
	system time =       4.74 seconds =       0.08 minutes
	total time  =         24 seconds =       0.40 minutes

*** tstart() called on daniele-Precision-5750
*** at Wed Jun  2 00:16:40 2021


         ------------------------------------------------------------
                                   SCF GRAD                          
                          Rob Parrish, Justin Turney,                
                       Andy Simmonett, and Alex Sokolov              
         ------------------------------------------------------------

  ==> Geometry <==

    Molecular point group: c1
    Full point group: C1

    Geometry (in Angstrom), charge = 0, multiplicity = 1:

       Center              X                  Y                   Z               Mass       
    ------------   -----------------  -----------------  -----------------  -----------------
         C           -1.246804464870    -1.052176637484     0.415001153473    12.000000000000
         C           -2.347572271553    -0.499108920336    -0.528109633045    12.000000000000
         C            0.095823160199    -0.392442280602     0.206621095216    12.000000000000
         C           -3.525416922419     0.119371539762     0.225980334076    12.000000000000
         C            0.417201566967     0.789361681601     0.876900981569    12.000000000000
         C            1.023202698213    -0.924630741472    -0.690440534536    12.000000000000
         C            1.632407168742     1.429660432252     0.650691941859    12.000000000000
         C            2.240247284148    -0.288032263713    -0.919099122795    12.000000000000
         C            2.548980124137     0.891586531116    -0.248081828848    12.000000000000
         H           -1.137447878375    -2.130569507518     0.273542646722     1.007825032230
         H           -1.553672156614    -0.910640001455     1.455610451448     1.007825032230
         H           -1.909966344091     0.248994543541    -1.194126041019     1.007825032230
         H           -2.716021071025    -1.301846964398    -1.173714159646     1.007825032230
         H           -3.190219206872     0.954329505072     0.845804177561     1.007825032230
         H           -4.280237127720     0.497567784685    -0.466521634461     1.007825032230
         H           -4.002645629309    -0.616330829074     0.877487399614     1.007825032230
         H           -0.289596473277     1.211988310042     1.580055108851     1.007825032230
         H            0.790923484281    -1.842756104742    -1.215297134031     1.007825032230
         H            1.865563134618     2.344265585879     1.179205318099     1.007825032230
         H            2.948101834401    -0.715239511785    -1.616702401147     1.007825032230
         H            3.496481243514     1.384021512215    -0.419897992573     1.007825032230

  Nuclear repulsion =  413.621522061964242

  ==> Basis Set <==

  Basis Set: 6-311G
    Blend: 6-311G
    Number of shells: 99
    Number of basis function: 153
    Number of Cartesian functions: 153
    Spherical Harmonics?: true
    Max angular momentum: 1

  ==> DFJKGrad: Density-Fitted SCF Gradients <==

    Gradient:                    1
    J tasked:                  Yes
    K tasked:                  Yes
    wK tasked:                 Yes
    Omega:               2.000E-01
    OpenMP threads:              8
    Integrals threads:           8
    Memory [MiB]:              500
    Schwarz Cutoff:          0E+00
    Fitting Condition:       1E-10

   => Auxiliary Basis Set <=

  Basis Set: (6-311G AUX)
    Blend: CC-PVTZ-JKFIT
    Number of shells: 345
    Number of basis function: 1071
    Number of Cartesian functions: 1284
    Spherical Harmonics?: true
    Max angular momentum: 4

  ==> DFT Potential <==

   => Composite Functional: WB97X-D <= 

    wB97X-D Hyb-GGA Exchange-Correlation Functional

    J.-D. Chai and M. Head-Gordon, Phys. Chem. Chem. Phys. 10, 6615 (2008)

    Deriv               =              1
    GGA                 =           TRUE
    Meta                =          FALSE

    Exchange Hybrid     =           TRUE
    MP2 Hybrid          =          FALSE

   => Exchange-Correlation Functionals <=

    1.0000   wB97D range-separated functional

   => Exact (HF) Exchange <=

    0.7780            HF,LR [omega = 0.2000]
    0.2220               HF 

   => Molecular Quadrature <=

    Radial Scheme          =       TREUTLER
    Pruning Scheme         =           FLAT
    Nuclear Scheme         =       TREUTLER

    BS radius alpha        =              1
    Pruning alpha          =              1
    Radial Points          =             75
    Spherical Points       =            302
    Total Points           =         470057
    Total Blocks           =           3486
    Max Points             =            256
    Max Functions          =            140


  -Total Gradient:
     Atom            X                  Y                   Z
    ------   -----------------  -----------------  -----------------
       1       -0.001904266684     0.001557521142    -0.000906631223
       2        0.001144766545     0.001117996653     0.002006716909
       3        0.002411465999     0.001477429700    -0.001129675726
       4        0.000413827543    -0.000861578973     0.000693414407
       5       -0.000497169382    -0.002240874164    -0.000520252619
       6       -0.001343349413     0.000325610189     0.001689170208
       7        0.000054512081    -0.001072771542    -0.001139883606
       8       -0.000746161875     0.001021914087     0.000826684451
       9       -0.001405119116    -0.000664781133     0.000279087764
      10        0.000649814674    -0.000281781275    -0.000143563670
      11        0.000566093496    -0.000013998710     0.000344657469
      12        0.000040224066     0.000006013552    -0.000420389019
      13       -0.000259379513    -0.000404499787    -0.000192633023
      14        0.000190366527     0.000002968471    -0.000499549655
      15        0.000230271022    -0.000061097258    -0.000474413182
      16        0.000062925399    -0.000164768343    -0.000248788834
      17        0.000297705011     0.000129084572    -0.000284704345
      18        0.000274904851     0.000330728512    -0.000024414801
      19       -0.000021913693    -0.000153004033    -0.000157103972
      20       -0.000114391748     0.000110227319     0.000135357604
      21        0.000038563479    -0.000101068357     0.000102820291


*** tstop() called on daniele-Precision-5750 at Wed Jun  2 00:16:45 2021
Module time:
	user time   =      35.99 seconds =       0.60 minutes
	system time =       0.42 seconds =       0.01 minutes
	total time  =          5 seconds =       0.08 minutes
Total time:
	user time   =     220.44 seconds =       3.67 minutes
	system time =       5.16 seconds =       0.09 minutes
	total time  =         29 seconds =       0.48 minutes

			-----------------------------------------
			 OPTKING 2.0: for geometry optimizations 
			  - R.A. King,  Bethel University        
			-----------------------------------------
	At level 1: Red. Int., RFO, no backsteps, dynamic trust

	Previous internal coordinate definitions found.
	---Fragment 1 Geometry and Gradient---
	 C          -2.3561189706       -1.9883256805        0.7842385218
	 C          -4.4362686530       -0.9431791662       -0.9979825707
	 C           0.1810795293       -0.7416084304        0.3904572817
	 C          -6.6620724614        0.2255795173        0.4270409411
	 C           0.7883967007        1.4916773922        1.6571026943
	 C           1.9335728705       -1.7472988686       -1.3047435162
	 C           3.0848024742        2.7016666694        1.2296295622
	 C           4.2334538203       -0.5443020937       -1.7368456242
	 C           4.8168743339        1.6848543610       -0.4688067132
	 H          -2.1494649721       -4.0261928605        0.5169206859
	 H          -2.9360148648       -1.7208602016        2.7507050986
	 H          -3.6093132992        0.4705314940       -2.2565711768
	 H          -5.1325359752       -2.4601342200       -2.2179983113
	 H          -6.0286405812        1.8034213980        1.5983382514
	 H          -8.0884759234        0.9402668419       -0.8815981207
	 H          -7.5639040167       -1.1646964696        1.6582108638
	 H          -0.5472580214        2.2903259732        2.9858714189
	 H           1.4946287715       -3.4823043540       -2.2965787444
	 H           3.5254033942        4.4300199226        2.2283750969
	 H           5.5711050570       -1.3516067914       -3.0551247645
	 H           6.6073919530        2.6154216098       -0.7934922066
	            -0.0019042667        0.0015575211       -0.0009066312
	             0.0011447665        0.0011179967        0.0020067169
	             0.0024114660        0.0014774297       -0.0011296757
	             0.0004138275       -0.0008615790        0.0006934144
	            -0.0004971694       -0.0022408742       -0.0005202526
	            -0.0013433494        0.0003256102        0.0016891702
	             0.0000545121       -0.0010727715       -0.0011398836
	            -0.0007461619        0.0010219141        0.0008266845
	            -0.0014051191       -0.0006647811        0.0002790878
	             0.0006498147       -0.0002817813       -0.0001435637
	             0.0005660935       -0.0000139987        0.0003446575
	             0.0000402241        0.0000060136       -0.0004203890
	            -0.0002593795       -0.0004044998       -0.0001926330
	             0.0001903665        0.0000029685       -0.0004995497
	             0.0002302710       -0.0000610973       -0.0004744132
	             0.0000629254       -0.0001647683       -0.0002487888
	             0.0002977050        0.0001290846       -0.0002847043
	             0.0002749049        0.0003307285       -0.0000244148
	            -0.0000219137       -0.0001530040       -0.0001571040
	            -0.0001143917        0.0001102273        0.0001353576
	             0.0000385635       -0.0001010684        0.0001028203

	---Fragment 1 Intrafragment Coordinates---
	 - Coordinate -           - BOHR/RAD -       - ANG/DEG -
	 R(1,2)           =         2.931837	       1.551461
	 R(1,3)           =         2.854250	       1.510404
	 R(1,10)          =         2.065688	       1.093115
	 R(1,11)          =         2.067561	       1.094106
	 R(2,4)           =         2.889791	       1.529211
	 R(2,12)          =         2.065546	       1.093040
	 R(2,13)          =         2.067457	       1.094051
	 R(3,5)           =         2.638331	       1.396145
	 R(3,6)           =         2.637490	       1.395699
	 R(4,14)          =         2.064645	       1.092563
	 R(4,15)          =         2.063478	       1.091945
	 R(4,16)          =         2.064448	       1.092459
	 R(5,7)           =         2.630644	       1.392077
	 R(5,17)          =         2.046323	       1.082868
	 R(6,8)           =         2.631229	       1.392386
	 R(6,18)          =         2.046131	       1.082766
	 R(7,9)           =         2.630336	       1.391914
	 R(7,19)          =         2.044218	       1.081754
	 R(8,9)           =         2.630103	       1.391790
	 R(8,20)          =         2.044239	       1.081764
	 R(9,21)          =         2.043852	       1.081560
	 B(1,2,4)         =         1.972401	     113.010240
	 B(1,2,12)        =         1.907450	     109.288814
	 B(1,2,13)        =         1.913567	     109.639297
	 B(1,3,5)         =         2.103797	     120.538715
	 B(1,3,6)         =         2.109203	     120.848419
	 B(2,1,3)         =         1.972642	     113.024034
	 B(2,1,10)        =         1.921964	     110.120443
	 B(2,1,11)        =         1.910333	     109.454016
	 B(2,4,14)        =         1.931072	     110.642297
	 B(2,4,15)        =         1.938824	     111.086425
	 B(2,4,16)        =         1.937116	     110.988571
	 B(3,1,10)        =         1.900886	     108.912770
	 B(3,1,11)        =         1.900783	     108.906869
	 B(3,5,7)         =         2.108627	     120.815413
	 B(3,5,17)        =         2.085028	     119.463285
	 B(3,6,8)         =         2.108305	     120.797005
	 B(3,6,18)        =         2.085574	     119.494560
	 B(4,2,12)        =         1.909249	     109.391901
	 B(4,2,13)        =         1.905356	     109.168838
	 B(5,3,6)         =         2.069614	     118.580139
	 B(5,7,9)         =         2.096650	     120.129215
	 B(5,7,19)        =         2.091680	     119.844442
	 B(6,8,9)         =         2.096957	     120.146781
	 B(6,8,20)        =         2.091275	     119.821257
	 B(7,5,17)        =         2.089530	     119.721257
	 B(7,9,8)         =         2.086196	     119.530249
	 B(7,9,21)        =         2.098382	     120.228457
	 B(8,6,18)        =         2.089305	     119.708344
	 B(8,9,21)        =         2.098593	     120.240546
	 B(9,7,19)        =         2.094841	     120.025527
	 B(9,8,20)        =         2.094942	     120.031330
	 B(10,1,11)       =         1.853300	     106.186246
	 B(12,2,13)       =         1.851933	     106.107927
	 B(14,4,15)       =         1.883019	     107.889045
	 B(14,4,16)       =         1.886357	     108.080288
	 B(15,4,16)       =         1.885449	     108.028274
	*D(1,2,4,14)      =         1.050897	      60.211940
	 D(1,2,4,15)      =        -3.141278	    -179.981947
	 D(1,2,4,16)      =        -1.043187	     -59.770237
	 D(1,3,5,7)       =        -3.098545	    -177.533573
	 D(1,3,5,17)      =         0.041694	       2.388876
	 D(1,3,6,8)       =         3.099193	     177.570692
	 D(1,3,6,18)      =        -0.040470	      -2.318764
	*D(2,1,3,5)       =         1.513585	      86.722005
	*D(2,1,3,6)       =        -1.591176	     -91.167668
	*D(3,1,2,4)       =        -2.093855	    -119.969070
	 D(3,1,2,12)      =         0.036500	       2.091308
	 D(3,1,2,13)      =         2.059552	     118.003650
	 D(3,5,7,9)       =        -0.004970	      -0.284771
	 D(3,5,7,19)      =        -3.140830	    -179.956306
	 D(3,6,8,9)       =         0.003443	       0.197264
	 D(3,6,8,20)      =         3.139989	     179.908139
	 D(4,2,1,10)      =         2.059035	     117.973987
	 D(4,2,1,11)      =         0.027895	       1.598279
	 D(5,3,1,10)      =        -2.627530	    -150.546382
	 D(5,3,1,11)      =        -0.613540	     -35.153255
	 D(5,3,6,8)       =        -0.006275	      -0.359522
	 D(5,3,6,18)      =         3.137247	     179.751022
	 D(5,7,9,8)       =         0.001980	       0.113471
	 D(5,7,9,21)      =        -3.134133	    -179.572584
	 D(6,3,1,10)      =         0.550895	      31.563946
	 D(6,3,1,11)      =         2.564885	     146.957072
	 D(6,3,5,7)       =         0.007038	       0.403275
	 D(6,3,5,17)      =        -3.135908	    -179.674276
	 D(6,8,9,7)       =        -0.001225	      -0.070191
	 D(6,8,9,21)      =         3.134888	     179.615825
	 D(7,9,8,20)      =        -3.137761	    -179.780455
	 D(8,9,7,19)      =         3.137830	     179.784408
	 D(9,7,5,17)      =         3.137979	     179.792978
	 D(9,8,6,18)      =        -3.140083	    -179.913514
	 D(10,1,2,12)     =        -2.093795	    -119.965636
	 D(10,1,2,13)     =        -0.070743	      -4.053294
	 D(11,1,2,12)     =         2.158251	     123.658657
	 D(11,1,2,13)     =        -2.101883	    -120.429002
	 D(12,2,4,14)     =        -1.078450	     -61.790605
	 D(12,2,4,15)     =         1.012562	      58.015508
	 D(12,2,4,16)     =         3.110652	     178.227218
	 D(13,2,4,14)     =        -3.097911	    -177.497215
	 D(13,2,4,15)     =        -1.006900	     -57.691102
	 D(13,2,4,16)     =         1.091190	      62.520608
	 D(17,5,7,19)     =         0.002120	       0.121443
	 D(18,6,8,20)     =        -0.003537	      -0.202639
	 D(19,7,9,21)     =         0.001717	       0.098353
	 D(20,8,9,21)     =        -0.001648	      -0.094439

	Current energy   :      -350.0601869676

	Energy change for the previous step:
		Projected    :        -0.0042189653
		Actual       :        -0.0022361073

	Performing BFGS update.
	Previous computed or guess Hessian on step 1.
	Steps to be used in Hessian update: 1
	Taking RFO optimization step.
	Going to follow RFO solution 1.
	Using RFO vector 1.
	Norm of target step-size    0.03951
	Projected energy change by RFO approximation:        -0.0001407728

	Back-transformation to cartesian coordinates...
	Successfully converged to displaced geometry.

	Back-transformation to cartesian coordinates to adjust frozen coordinates...
	Successfully converged to displaced geometry.

	--- Internal Coordinate Step in ANG or DEG, aJ/ANG or AJ/DEG ---
	 ---------------------------------------------------------------------------
	   Coordinate                Previous        Force       Change         New 
	   ----------                --------       ------       ------       ------
	    1 R(1,2)          =      1.551461     0.015864     0.003359     1.554820
	    2 R(1,3)          =      1.510404     0.011016     0.001924     1.512328
	    3 R(1,10)         =      1.093115    -0.003027    -0.000586     1.092529
	    4 R(1,11)         =      1.094106    -0.001332    -0.000277     1.093829
	    5 R(2,4)          =      1.529211     0.011354     0.002187     1.531398
	    6 R(2,12)         =      1.093040    -0.002300    -0.000464     1.092575
	    7 R(2,13)         =      1.094051    -0.004103    -0.000762     1.093289
	    8 R(3,5)          =      1.396145     0.024051     0.003071     1.399216
	    9 R(3,6)          =      1.395699     0.022485     0.002848     1.398548
	   10 R(4,14)         =      1.092563     0.001849     0.000283     1.092846
	   11 R(4,15)         =      1.091945    -0.001004    -0.000213     1.091733
	   12 R(4,16)         =      1.092459     0.000504     0.000051     1.092510
	   13 R(5,7)          =      1.392077     0.009689     0.001093     1.393169
	   14 R(5,17)         =      1.082868     0.002664     0.000371     1.083238
	   15 R(6,8)          =      1.392386     0.009734     0.001092     1.393478
	   16 R(6,18)         =      1.082766     0.002691     0.000374     1.083140
	   17 R(7,9)          =      1.391914     0.014976     0.001765     1.393679
	   18 R(7,19)         =      1.081754     0.001744     0.000210     1.081963
	   19 R(8,9)          =      1.391790     0.014340     0.001675     1.393465
	   20 R(8,20)         =      1.081764     0.001739     0.000209     1.081974
	   21 R(9,21)         =      1.081560     0.000288    -0.000035     1.081525
	   22 B(1,2,4)        =    113.010240    -0.000012    -0.076048   112.934192
	   23 B(1,2,12)       =    109.288814     0.000003    -0.150064   109.138749
	   24 B(1,2,13)       =    109.639297    -0.000000     0.125657   109.764954
	   25 B(1,3,5)        =    120.538715     0.000042     0.111897   120.650612
	   26 B(1,3,6)        =    120.848419     0.000025     0.065985   120.914405
	   27 B(2,1,3)        =    113.024034     0.000010     0.047303   113.071337
	   28 B(2,1,10)       =    110.120443    -0.000026    -0.071507   110.048936
	   29 B(2,1,11)       =    109.454016    -0.000038    -0.381551   109.072465
	   30 B(2,4,14)       =    110.642297     0.000022     0.069751   110.712048
	   31 B(2,4,15)       =    111.086425     0.000048     0.278481   111.364905
	   32 B(2,4,16)       =    110.988571     0.000010    -0.011007   110.977564
	   33 B(3,1,10)       =    108.912770     0.000025     0.319971   109.232740
	   34 B(3,1,11)       =    108.906869     0.000028     0.107201   109.014071
	   35 B(3,5,7)        =    120.815413     0.000026     0.088351   120.903764
	   36 B(3,5,17)       =    119.463285    -0.000030    -0.127138   119.336147
	   37 B(3,6,8)        =    120.797005     0.000031     0.100108   120.897112
	   38 B(3,6,18)       =    119.494560    -0.000036    -0.150350   119.344210
	   39 B(4,2,12)       =    109.391901     0.000000    -0.143242   109.248658
	   40 B(4,2,13)       =    109.168838     0.000009     0.154089   109.322927
	   41 B(5,3,6)        =    118.580139    -0.000068    -0.177768   118.402372
	   42 B(5,7,9)        =    120.129215     0.000000    -0.009184   120.120031
	   43 B(5,7,19)       =    119.844442    -0.000002    -0.007110   119.837332
	   44 B(6,8,9)        =    120.146781    -0.000000    -0.013368   120.133412
	   45 B(6,8,20)       =    119.821257    -0.000003    -0.007266   119.813991
	   46 B(7,5,17)       =    119.721257     0.000004     0.038329   119.759586
	   47 B(7,9,8)        =    119.530249     0.000011     0.012264   119.542513
	   48 B(7,9,21)       =    120.228457    -0.000006    -0.007639   120.220817
	   49 B(8,6,18)       =    119.708344     0.000006     0.050181   119.758524
	   50 B(8,9,21)       =    120.240546    -0.000005    -0.004492   120.236055
	   51 B(9,7,19)       =    120.025527     0.000002     0.016759   120.042286
	   52 B(9,8,20)       =    120.031330     0.000003     0.021069   120.052399
	   53 B(10,1,11)      =    106.186246     0.000002    -0.023957   106.162289
	   54 B(12,2,13)      =    106.107927     0.000002     0.099425   106.207352
	   55 B(14,4,15)      =    107.889045    -0.000033    -0.045852   107.843192
[...]
	 R(1,3)           =         2.857886	       1.512328
	 R(1,10)          =         2.064581	       1.092529
	 R(1,11)          =         2.067038	       1.093829
	 R(2,4)           =         2.893923	       1.531398
	 R(2,12)          =         2.064668	       1.092575
	 R(2,13)          =         2.066017	       1.093289
	 R(3,5)           =         2.644135	       1.399216
	 R(3,6)           =         2.642872	       1.398548
	 R(4,14)          =         2.065179	       1.092846
	 R(4,15)          =         2.063076	       1.091733
	 R(4,16)          =         2.064545	       1.092510
	 R(5,7)           =         2.632709	       1.393169
	 R(5,17)          =         2.047024	       1.083238
	 R(6,8)           =         2.633292	       1.393478
	 R(6,18)          =         2.046838	       1.083140
	 R(7,9)           =         2.633671	       1.393679
	 R(7,19)          =         2.044615	       1.081963
	 R(8,9)           =         2.633267	       1.393465
	 R(8,20)          =         2.044634	       1.081974
	 R(9,21)          =         2.043786	       1.081525
	 B(1,2,4)         =         1.971073	     112.934192
	 B(1,2,12)        =         1.904831	     109.138749
	 B(1,2,13)        =         1.915760	     109.764954
	 B(1,3,5)         =         2.105750	     120.650612
	 B(1,3,6)         =         2.110354	     120.914405
	 B(2,1,3)         =         1.973467	     113.071337
	 B(2,1,10)        =         1.920716	     110.048936
	 B(2,1,11)        =         1.903674	     109.072465
	 B(2,4,14)        =         1.932290	     110.712048
	 B(2,4,15)        =         1.943684	     111.364905
	 B(2,4,16)        =         1.936924	     110.977564
	 B(3,1,10)        =         1.906471	     109.232740
	 B(3,1,11)        =         1.902654	     109.014071
	 B(3,5,7)         =         2.110169	     120.903764
	 B(3,5,17)        =         2.082809	     119.336147
	 B(3,6,8)         =         2.110053	     120.897112
	 B(3,6,18)        =         2.082949	     119.344210
	 B(4,2,12)        =         1.906749	     109.248658
	 B(4,2,13)        =         1.908045	     109.322927
	 B(5,3,6)         =         2.066511	     118.402372
	 B(5,7,9)         =         2.096490	     120.120031
	 B(5,7,19)        =         2.091556	     119.837332
	 B(6,8,9)         =         2.096724	     120.133412
	 B(6,8,20)        =         2.091149	     119.813991
	 B(7,5,17)        =         2.090199	     119.759586
	 B(7,9,8)         =         2.086410	     119.542513
	 B(7,9,21)        =         2.098249	     120.220817
	 B(8,6,18)        =         2.090181	     119.758524
	 B(8,9,21)        =         2.098515	     120.236055
	 B(9,7,19)        =         2.095133	     120.042286
	 B(9,8,20)        =         2.095310	     120.052399
	 B(10,1,11)       =         1.852881	     106.162289
	 B(12,2,13)       =         1.853668	     106.207352
	 B(14,4,15)       =         1.882219	     107.843192
	 B(14,4,16)       =         1.882337	     107.849993
	 B(15,4,16)       =         1.884056	     107.948469
	*D(1,2,4,14)      =         1.050897	      60.211940
	 D(1,2,4,15)      =        -3.138274	    -179.809882
	 D(1,2,4,16)      =        -1.038817	     -59.519821
	 D(1,3,5,7)       =        -3.100422	    -177.641090
	 D(1,3,5,17)      =         0.045682	       2.617412
	 D(1,3,6,8)       =         3.100897	     177.668322
	 D(1,3,6,18)      =        -0.043189	      -2.474552
	*D(2,1,3,5)       =         1.513585	      86.722005
	*D(2,1,3,6)       =        -1.591176	     -91.167668
	*D(3,1,2,4)       =        -2.093855	    -119.969070
	 D(3,1,2,12)      =         0.030534	       1.749457
	 D(3,1,2,13)      =         2.055416	     117.766661
	 D(3,5,7,9)       =        -0.001822	      -0.104390
	 D(3,5,7,19)      =        -3.139656	    -179.889060
	 D(3,6,8,9)       =         0.000673	       0.038582
	 D(3,6,8,20)      =         3.139441	     179.876726
	 D(4,2,1,10)      =         2.052150	     117.579542
	 D(4,2,1,11)      =         0.026088	       1.494735
	 D(5,3,1,10)      =        -2.624495	    -150.372496
	 D(5,3,1,11)      =        -0.606933	     -34.774717
	 D(5,3,6,8)       =        -0.004673	      -0.267762
	 D(5,3,6,18)      =         3.134426	     179.589364
	 D(5,7,9,8)       =        -0.002282	      -0.130770
	 D(5,7,9,21)      =        -3.138907	    -179.846151
	 D(6,3,1,10)      =         0.553930	      31.737832
	 D(6,3,1,11)      =         2.571492	     147.335610
	 D(6,3,5,7)       =         0.005247	       0.300649
	 D(6,3,5,17)      =        -3.131834	    -179.440849
	 D(6,8,9,7)       =         0.002851	       0.163330
	 D(6,8,9,21)      =         3.139475	     179.878667
	 D(7,9,8,20)      =        -3.135910	    -179.674425
	 D(8,9,7,19)      =         3.135544	     179.653455
	 D(9,7,5,17)      =         3.135240	     179.636022
	 D(9,8,6,18)      =        -3.138415	    -179.817957
	 D(10,1,2,12)     =        -2.106646	    -120.701931
	 D(10,1,2,13)     =        -0.081764	      -4.684727
	 D(11,1,2,12)     =         2.150477	     123.213262
	 D(11,1,2,13)     =        -2.107826	    -120.769534
	 D(12,2,4,14)     =        -1.072411	     -61.444608
	 D(12,2,4,15)     =         1.021604	      58.533571
	 D(12,2,4,16)     =         3.121061	     178.823631
	 D(13,2,4,14)     =        -3.094057	    -177.276423
	 D(13,2,4,15)     =        -1.000043	     -57.298244
	 D(13,2,4,16)     =         1.099415	      62.991816
	 D(17,5,7,19)     =        -0.002594	      -0.148647
	 D(18,6,8,20)     =         0.000352	       0.020186
	 D(19,7,9,21)     =        -0.001081	      -0.061926
	 D(20,8,9,21)     =         0.000714	       0.040912

	Current energy   :      -350.0602448515

	Energy change for the previous step:
		Projected    :        -0.0001407728
		Actual       :        -0.0000578838

	Performing BFGS update.
	Previous computed or guess Hessian on step 1.
	Steps to be used in Hessian update: 2 1
	Taking RFO optimization step.
	Going to follow RFO solution 1.
	Using RFO vector 1.
	Norm of target step-size    0.00794
	Projected energy change by RFO approximation:        -0.0000038536

	Back-transformation to cartesian coordinates...
	Successfully converged to displaced geometry.

	Back-transformation to cartesian coordinates to adjust frozen coordinates...
	Successfully converged to displaced geometry.

	--- Internal Coordinate Step in ANG or DEG, aJ/ANG or AJ/DEG ---
	 ---------------------------------------------------------------------------
	   Coordinate                Previous        Force       Change         New 
	   ----------                --------       ------       ------       ------
	    1 R(1,2)          =      1.554820     0.003592     0.001012     1.555832
	    2 R(1,3)          =      1.512328    -0.004435    -0.001045     1.511283
	    3 R(1,10)         =      1.092529    -0.000709    -0.000190     1.092339
	    4 R(1,11)         =      1.093829     0.000244     0.000018     1.093848
	    5 R(2,4)          =      1.531398    -0.000658    -0.000115     1.531284
	    6 R(2,12)         =      1.092575     0.000207    -0.000005     1.092571
	    7 R(2,13)         =      1.093289    -0.001340    -0.000319     1.092970
	    8 R(3,5)          =      1.399216     0.000949     0.000201     1.399417
	    9 R(3,6)          =      1.398548     0.001154     0.000222     1.398769
	   10 R(4,14)         =      1.092846     0.000648     0.000127     1.092973
	   11 R(4,15)         =      1.091733    -0.000293    -0.000082     1.091651
	   12 R(4,16)         =      1.092510     0.001261     0.000236     1.092746
	   13 R(5,7)          =      1.393169    -0.000961    -0.000171     1.392999
	   14 R(5,17)         =      1.083238     0.000811     0.000144     1.083382
	   15 R(6,8)          =      1.393478    -0.000800    -0.000144     1.393334
	   16 R(6,18)         =      1.083140     0.000806     0.000143     1.083283
	   17 R(7,9)          =      1.393679     0.000756     0.000126     1.393805
	   18 R(7,19)         =      1.081963     0.000272     0.000031     1.081995
	   19 R(8,9)          =      1.393465     0.000486     0.000082     1.393547
	   20 R(8,20)         =      1.081974     0.000280     0.000033     1.082007
	   21 R(9,21)         =      1.081525     0.000394     0.000043     1.081568
	   22 B(1,2,4)        =    112.934192    -0.000017    -0.083007   112.851185
	   23 B(1,2,12)       =    109.138749     0.000005     0.011371   109.150120
	   24 B(1,2,13)       =    109.764954    -0.000000    -0.031607   109.733346
	   25 B(1,3,5)        =    120.650612     0.000002     0.010425   120.661038
	   26 B(1,3,6)        =    120.914405     0.000001     0.006119   120.920523
	   27 B(2,1,3)        =    113.071337    -0.000011    -0.043904   113.027433
	   28 B(2,1,10)       =    110.048936    -0.000003    -0.055859   109.993077
	   29 B(2,1,11)       =    109.072465     0.000001    -0.016923   109.055542
	   30 B(2,4,14)       =    110.712048    -0.000005    -0.027138   110.684910
	   31 B(2,4,15)       =    111.364905    -0.000000     0.013186   111.378091
	   32 B(2,4,16)       =    110.977564     0.000006     0.033279   111.010843
	   33 B(3,1,10)       =    109.232740     0.000007     0.042803   109.275543
	   34 B(3,1,11)       =    109.014071     0.000005     0.037214   109.051285
	   35 B(3,5,7)        =    120.903764    -0.000000     0.004281   120.908046
	   36 B(3,5,17)       =    119.336147    -0.000005    -0.034086   119.302061
	   37 B(3,6,8)        =    120.897112     0.000002     0.011311   120.908423
	   38 B(3,6,18)       =    119.344210    -0.000007    -0.043122   119.301088
	   39 B(4,2,12)       =    109.248658     0.000005     0.015486   109.264144
	   40 B(4,2,13)       =    109.322927     0.000009     0.039245   109.362172
	   41 B(5,3,6)        =    118.402372    -0.000003    -0.016533   118.385839
	   42 B(5,7,9)        =    120.120031     0.000002     0.005793   120.125824
	   43 B(5,7,19)       =    119.837332    -0.000002    -0.009129   119.828203
	   44 B(6,8,9)        =    120.133412    -0.000000    -0.001850   120.131563
	   45 B(6,8,20)       =    119.813991    -0.000001    -0.005140   119.808851
	   46 B(7,5,17)       =    119.759586     0.000005     0.030195   119.789781
	   47 B(7,9,8)        =    119.542513    -0.000000    -0.003165   119.539348
	   48 B(7,9,21)       =    120.220817    -0.000000     0.000152   120.220969
	   49 B(8,6,18)       =    119.758524     0.000005     0.031951   119.790475
	   50 B(8,9,21)       =    120.236055     0.000001     0.003335   120.239390
	   51 B(9,7,19)       =    120.042286     0.000000     0.003071   120.045357
	   52 B(9,8,20)       =    120.052399     0.000001     0.006799   120.059198
	   53 B(10,1,11)      =    106.162289     0.000001     0.042817   106.205106
	   54 B(12,2,13)      =    106.207352    -0.000001     0.057222   106.264574
	   55 B(14,4,15)      =    107.843192     0.000003     0.005743   107.848935
	   56 B(14,4,16)      =    107.849993    -0.000002    -0.021029   107.828964
	   57 B(15,4,16)      =    107.948469    -0.000002    -0.005327   107.943142
	   58 *D(1,2,4,14)    =     60.211940    -0.000000     0.000000    60.211940
	   59 D(1,2,4,15)     =   -179.809882     0.000000    -0.002203  -179.812084
	   60 D(1,2,4,16)     =    -59.519821     0.000000     0.022469   -59.497352
	   61 D(1,3,5,7)      =   -177.641090     0.000000     0.071079  -177.570011
	   62 D(1,3,5,17)     =      2.617412    -0.000000    -0.065059     2.552353
	   63 D(1,3,6,8)      =    177.668322    -0.000000    -0.055402   177.612920
	   64 D(1,3,6,18)     =     -2.474552     0.000000     0.044431    -2.430121
	   65 *D(2,1,3,5)     =     86.722005     0.000000     0.000000    86.722005
	   66 *D(2,1,3,6)     =    -91.167668    -0.000000    -0.000000   -91.167668
	   67 *D(3,1,2,4)     =   -119.969070     0.000000     0.000000  -119.969070
	   68 D(3,1,2,12)     =      1.749457    -0.000000    -0.027695     1.721762
	   69 D(3,1,2,13)     =    117.766661     0.000000     0.029795   117.796456
	   70 D(3,5,7,9)      =     -0.104390    -0.000001    -0.112197    -0.216587
	   71 D(3,5,7,19)     =   -179.889060    -0.000000    -0.042080  -179.931140
	   72 D(3,6,8,9)      =      0.038582     0.000000     0.080981     0.119564
	   73 D(3,6,8,20)     =    179.876726     0.000000     0.016210   179.892935
	   74 D(4,2,1,10)     =    117.579542     0.000000     0.016551   117.596093
	   75 D(4,2,1,11)     =      1.494735     0.000000     0.006183     1.500918
	   76 D(5,3,1,10)     =   -150.372496    -0.000001    -0.070917  -150.443413
	   77 D(5,3,1,11)     =    -34.774717     0.000001     0.024333   -34.750385
	   78 D(5,3,6,8)      =     -0.267762    -0.000000    -0.055947    -0.323709
	   79 D(5,3,6,18)     =    179.589364     0.000000     0.043886   179.633250
	   80 D(5,7,9,8)      =     -0.130770     0.000001     0.134659     0.003889
	   81 D(5,7,9,21)     =   -179.846151     0.000000     0.046455  -179.799696
	   82 D(6,3,1,10)     =     31.737832    -0.000001    -0.070917    31.666914
	   83 D(6,3,1,11)     =    147.335610     0.000001     0.024333   147.359943
	   84 D(6,3,5,7)      =      0.300649     0.000000     0.071532     0.372181
	   85 D(6,3,5,17)     =   -179.440849    -0.000000    -0.064606  -179.505455
	   86 D(6,8,9,7)      =      0.163330    -0.000001    -0.119230     0.044100
	   87 D(6,8,9,21)     =    179.878667    -0.000000    -0.031019   179.847648
	   88 D(7,9,8,20)     =   -179.674425    -0.000000    -0.054276  -179.728701
	   89 D(8,9,7,19)     =    179.653455     0.000000     0.064363   179.717818
	   90 D(9,7,5,17)     =    179.636022     0.000000     0.024434   179.660456
	   91 D(9,8,6,18)     =   -179.817957    -0.000000    -0.019230  -179.837187
	   92 D(10,1,2,12)    =   -120.701931    -0.000000    -0.011144  -120.713075
	   93 D(10,1,2,13)    =     -4.684727     0.000000     0.046346    -4.638381
	   94 D(11,1,2,12)    =    123.213262    -0.000000    -0.021512   123.191750
	   95 D(11,1,2,13)    =   -120.769534     0.000000     0.035978  -120.733556
	   96 D(12,2,4,14)    =    -61.444608     0.000000     0.030137   -61.414471
	   97 D(12,2,4,15)    =     58.533571     0.000000     0.027934    58.561505
	   98 D(12,2,4,16)    =    178.823631     0.000001     0.052606   178.876237
	   99 D(13,2,4,14)    =   -177.276423    -0.000001    -0.069005  -177.345428
	  100 D(13,2,4,15)    =    -57.298244    -0.000001    -0.071208   -57.369452
	  101 D(13,2,4,16)    =     62.991816    -0.000001    -0.046536    62.945280
	  102 D(17,5,7,19)    =     -0.148647     0.000001     0.094551    -0.054096
	  103 D(18,6,8,20)    =      0.020186    -0.000000    -0.084002    -0.063815
	  104 D(19,7,9,21)    =     -0.061926    -0.000000    -0.023841    -0.085767
	  105 D(20,8,9,21)    =      0.040912     0.000000     0.033935     0.074847
	 ---------------------------------------------------------------------------
	Successfully symmetrized geometry.

  ==> Convergence Check <==

  Measures of convergence in internal coordinates in au.
  Criteria marked as inactive (o), active & met (*), and active & unmet ( ).
  ---------------------------------------------------------------------------------------------
   Step     Total Energy     Delta E     MAX Force     RMS Force      MAX Disp      RMS Disp   
  ---------------------------------------------------------------------------------------------
    Convergence Criteria             o    2.50e-03 *    1.70e-03 *    1.00e-02 *    6.70e-03 *
  ---------------------------------------------------------------------------------------------
      3    -350.06024485   -5.79e-05 o    5.38e-04 *    8.90e-05 *    2.35e-03 *    7.75e-04 *  ~
  ---------------------------------------------------------------------------------------------


  **** Optimization is complete! (in 3 steps) ****

  ==> Optimization Summary <==

  Measures of convergence in internal coordinates in au.
  --------------------------------------------------------------------------------------------------------------- ~
   Step         Total Energy             Delta E       MAX Force       RMS Force        MAX Disp        RMS Disp  ~
  --------------------------------------------------------------------------------------------------------------- ~
      1    -350.057950860323   -350.057950860323      0.01600386      0.00396860      0.05186977      0.01706885  ~
      2    -350.060186967633     -0.002236107310      0.00291922      0.00059804      0.01285078      0.00385593  ~
      3    -350.060244851452     -0.000057883818      0.00053835      0.00008903      0.00235025      0.00077484  ~
  --------------------------------------------------------------------------------------------------------------- ~

	Writing optimization data to binary file.
	Final energy is   -350.0602448514516
	Final (previous) structure:
	Cartesian Geometry (in Angstrom)
	    C    -1.2491474107  -1.0529679198   0.4163610007
	    C    -2.3535737863  -0.4999916628  -0.5280573537
	    C     0.0951348808  -0.3926120917   0.2066650061
	    C    -3.5317003612   0.1189529154   0.2296404329
	    C     0.4200796257   0.7921871225   0.8763421162
	    C     1.0249583163  -0.9253006659  -0.6920047055
	    C     1.6372768941   1.4311386618   0.6503046774
	    C     2.2439587993  -0.2901137726  -0.9208207089
	    C     2.5533801961   0.8920037203  -0.2510433301
	    H    -1.1453004512  -2.1319403743   0.2797803187
	    H    -1.5602749513  -0.9060426120   1.4546651259
	    H    -1.9159841682   0.2514874836  -1.1895069080
	    H    -2.7206113123  -1.3003512313  -1.1761233703
	    H    -3.1966707965   0.9545895193   0.8491392888
	    H    -4.2924457349   0.4954628343  -0.4569359134
	    H    -4.0042574794  -0.6158604588   0.8856261298
	    H    -0.2851773087   1.2131852667   1.5825844725
	    H     0.7919420907  -1.8454699865  -1.2137170652
	    H     1.8715523821   2.3456187491   1.1789690686
	    H     2.9513025986  -0.7187407597  -1.6183958922
	    H     3.4998173955   1.3853349959  -0.4259060327
	Saving final (previous) structure.
			--------------------------
			 OPTKING Finished Execution 
			--------------------------

    Final optimized geometry and variables:
    Molecular point group: c1
    Full point group: C1

    Geometry (in Angstrom), charge = 0, multiplicity = 1:

    C           -1.249147415577    -1.052967923926     0.416361002289
    C           -2.353573795505    -0.499991664757    -0.528057355735
    C            0.095134881157    -0.392612093216     0.206665006880
    C           -3.531700375057     0.118952915869     0.229640433793
    C            0.420079627374     0.792187125592     0.876342119613
    C            1.024958320337    -0.925300669539    -0.692004708229
    C            1.637276900563     1.431138667468     0.650304679961
    C            2.243958808134    -0.290113773765    -0.920820712551
    C            2.553380206150     0.892003723835    -0.251043331052
    H           -1.145300455686    -2.131940382705     0.279780319772
    H           -1.560274957459    -0.906042615524     1.454665131586
    H           -1.915984175780     0.251487484625    -1.189506912705
    H           -2.720611322995    -1.300351236397    -1.176123374899
    H           -3.196670809107     0.954589523070     0.849139292184
    H           -4.292445751738     0.495462836210    -0.456935915161
    H           -4.004257495167    -0.615860461210     0.885626133306
    H           -0.285177309861     1.213185271516     1.582584478707
    H            0.791942093833    -1.845469993799    -1.213717069952
    H            1.871552389429     2.345618758329     1.178969073226
    H            2.951302610167    -0.718740762566    -1.618395898571
    H            3.499817409287     1.385335001322    -0.425906034389

	Removing binary optimization data file.
	Cleaning optimization helper files.

    Psi4 stopped on: Wednesday, 02 June 2021 12:16AM
    Psi4 wall time for execution: 0:00:42.02

*** Psi4 exiting successfully. Buy a developer a beer!
