
    -----------------------------------------------------------------------
          Psi4: An Open-Source Ab Initio Electronic Structure Package
                               Psi4 1.3.2 release

                         Git: Rev {HEAD} ecbda83 


    R. M. Parrish, L. A. Burns, D. G. A. Smith, A. C. Simmonett,
    A. E. DePrince III, E. G. Hohenstein, U. Bozkaya, A. Yu. Sokolov,
    R. Di Remigio, R. M. Richard, J. F. Gonthier, A. M. James,
    H. R. McAlexander, A. Kumar, M. Saitow, X. Wang, B. P. Pritchard,
    P. Verma, H. F. Schaefer III, K. Patkowski, R. A. King, E. F. Valeev,
    F. A. Evangelista, J. M. Turney, T. D. Crawford, and C. D. Sherrill,
    J. Chem. Theory Comput. 13(7) pp 3185--3197 (2017).
    (doi: 10.1021/acs.jctc.7b00174)


                         Additional Contributions by
    P. Kraus, H. Kruse, M. H. Lechner, M. C. Schieber, R. A. Shaw,
    A. Alenaizan, R. Galvelis, Z. L. Glick, S. Lehtola, and J. P. Misiewicz

    -----------------------------------------------------------------------


    Psi4 started on: Wednesday, 02 June 2021 12:15AM

    Process ID: 77411
    Host:       daniele-Precision-5750
    PSIDATADIR: /home/daniele/anaconda3/envs/poltype/share/psi4
    Memory:     500.0 MiB
    Threads:    1
    
  ==> Input File <==

--------------------------------------------------------------------------
molecule { 
0 1
 C   -1.288949   -0.875807    0.507867
 C   -2.381200   -0.291880   -0.433220
 C    0.108942   -0.307157    0.227550
 C   -3.784694   -0.233808    0.202843
 C    0.535663    0.897857    0.835765
 C    0.978311   -0.951203   -0.684626
 C    1.811296    1.428228    0.561769
 C    2.254229   -0.420755   -0.957456
 C    2.672843    0.767198   -0.331827
 H   -1.282669   -1.971607    0.442654
 H   -1.542754   -0.659132    1.554139
 H   -2.092873    0.725793   -0.730825
 H   -2.400271   -0.866400   -1.368677
 H   -3.789197    0.394993    1.099705
 H   -4.512568    0.182538   -0.501582
 H   -4.129388   -1.233901    0.486784
 H   -0.120963    1.427132    1.524821
 H    0.667815   -1.867741   -1.184386
 H    2.131212    2.351312    1.041782
 H    2.917720   -0.930622   -1.653650
 H    3.659724    1.175443   -0.541145
}
set optking { 
  frozen_dihedral = ("
    4 2 1 3
    2 1 3 5
    2 1 3 6
    1 2 4 14
  ")
}
set {
  geom_maxiter 400
  g_convergence GAU_LOOSE
  dynamic_level 1
}
memory 700MB
set_num_threads(8)
psi4_io.set_default_path("/home/daniele/PSI4_sctatch/Psi4-propbenzene")
for _ in range(1):
  try:
    set opt_coordinates both
    optimize('wb97x-d/6-311G')
    break
  except OptimizationConvergenceError:
    break
  else:
    try:
      set opt_coordinates cartesian
      optimize('wb97x-d/6-311G')
      break
    except OptimizationConvergenceError:
      pass
clean()
--------------------------------------------------------------------------

  Memory set to 667.572 MiB by Python driver.
  Threads set to 8 by Python driver.
gradient() will perform analytic gradient computation.

*** tstart() called on daniele-Precision-5750
*** at Wed Jun  2 00:15:04 2021

   => Loading Basis Set <=

    Name: 6-311G
    Role: ORBITAL
    Keyword: BASIS
    atoms 1-9   entry C          line    92 file /home/daniele/anaconda3/envs/poltype/share/psi4/basis/6-311g.gbs 
    atoms 10-21 entry H          line    21 file /home/daniele/anaconda3/envs/poltype/share/psi4/basis/6-311g.gbs 


         ---------------------------------------------------------
                                   SCF
               by Justin Turney, Rob Parrish, Andy Simmonett
                          and Daniel G. A. Smith
                              RKS Reference
                        8 Threads,    667 MiB Core
         ---------------------------------------------------------

  ==> Geometry <==

    Molecular point group: c1
    Full point group: C1

    Geometry (in Angstrom), charge = 0, multiplicity = 1:

       Center              X                  Y                   Z               Mass       
    ------------   -----------------  -----------------  -----------------  -----------------
         C           -1.291455059441    -0.866397105411     0.513571475546    12.000000000000
         C           -2.383706059441    -0.282470105411    -0.427515524454    12.000000000000
         C            0.106435940559    -0.297747105411     0.233254475546    12.000000000000
         C           -3.787200059441    -0.224398105411     0.208547475546    12.000000000000
         C            0.533156940559     0.907266894589     0.841469475546    12.000000000000
         C            0.975804940559    -0.941793105411    -0.678921524454    12.000000000000
         C            1.808789940559     1.437637894589     0.567473475546    12.000000000000
         C            2.251722940559    -0.411345105411    -0.951751524454    12.000000000000
         C            2.670336940559     0.776607894589    -0.326122524454    12.000000000000
         H           -1.285175059441    -1.962197105411     0.448358475546     1.007825032230
         H           -1.545260059441    -0.649722105411     1.559843475546     1.007825032230
         H           -2.095379059441     0.735202894589    -0.725120524454     1.007825032230
         H           -2.402777059441    -0.856990105411    -1.362972524454     1.007825032230
         H           -3.791703059441     0.404402894589     1.105409475546     1.007825032230
         H           -4.515074059441     0.191947894589    -0.495877524454     1.007825032230
         H           -4.131894059441    -1.224491105411     0.492488475546     1.007825032230
         H           -0.123469059441     1.436541894589     1.530525475546     1.007825032230
         H            0.665308940559    -1.858331105411    -1.178681524454     1.007825032230
         H            2.128705940559     2.360721894589     1.047486475546     1.007825032230
         H            2.915213940559    -0.921212105411    -1.647945524454     1.007825032230
         H            3.657217940559     1.184852894589    -0.535440524454     1.007825032230

  Running in c1 symmetry.

  Rotational constants: A =      0.13851  B =      0.02835  C =      0.02519 [cm^-1]
  Rotational constants: A =   4152.40930  B =    849.91064  C =    755.10600 [MHz]
  Nuclear repulsion =  407.287862853039314

  Charge       = 0
  Multiplicity = 1
  Electrons    = 66
  Nalpha       = 33
  Nbeta        = 33

  ==> Algorithm <==

  SCF Algorithm Type is DF.
  DIIS enabled.
  MOM disabled.
  Fractional occupation disabled.
  Guess Type is SAD.
  Energy threshold   = 1.00e-08
  Density threshold  = 1.00e-08
  Integral threshold = 0.00e+00

  ==> Primary Basis <==

  Basis Set: 6-311G
    Blend: 6-311G
    Number of shells: 99
    Number of basis function: 153
    Number of Cartesian functions: 153
    Spherical Harmonics?: true
    Max angular momentum: 1

  ==> DFT Potential <==

   => Composite Functional: WB97X-D <= 

    wB97X-D Hyb-GGA Exchange-Correlation Functional

    J.-D. Chai and M. Head-Gordon, Phys. Chem. Chem. Phys. 10, 6615 (2008)

    Deriv               =              1
    GGA                 =           TRUE
    Meta                =          FALSE

    Exchange Hybrid     =           TRUE
    MP2 Hybrid          =          FALSE

   => Exchange-Correlation Functionals <=

    1.0000   wB97D range-separated functional

   => Exact (HF) Exchange <=

    0.7780            HF,LR [omega = 0.2000]
    0.2220               HF 

   => Molecular Quadrature <=

    Radial Scheme          =       TREUTLER
    Pruning Scheme         =           FLAT
    Nuclear Scheme         =       TREUTLER

    BS radius alpha        =              1
    Pruning alpha          =              1
    Radial Points          =             75
    Spherical Points       =            302
    Total Points           =         470084
    Total Blocks           =           3430
    Max Points             =            256
    Max Functions          =            142

   => WB97X-D: Empirical Dispersion <=

    Chai and Head-Gordon Dispersion Correction
    Chai, J.-D.; Head-Gordon, M. (2010), J. Chem. Phys., 132: 6615-6620

        s6 =       1.000000

   => Loading Basis Set <=

    Name: (6-311G AUX)
    Role: JKFIT
    Keyword: DF_BASIS_SCF
    atoms 1-9   entry C          line   125 file /home/daniele/anaconda3/envs/poltype/share/psi4/basis/cc-pvtz-jkfit.gbs 
    atoms 10-21 entry H          line    51 file /home/daniele/anaconda3/envs/poltype/share/psi4/basis/cc-pvtz-jkfit.gbs 

  ==> Pre-Iterations <==

   -------------------------------------------------------
    Irrep   Nso     Nmo     Nalpha   Nbeta   Ndocc  Nsocc
   -------------------------------------------------------
     A        153     153       0       0       0       0
   -------------------------------------------------------
    Total     153     153      33      33      33       0
   -------------------------------------------------------

  ==> Integral Setup <==

  ==> DiskDFJK: Density-Fitted J/K Matrices <==

    J tasked:                  Yes
    K tasked:                  Yes
    wK tasked:                 Yes
    Omega:               2.000E-01
    OpenMP threads:              8
    Integrals threads:           8
    Memory [MiB]:              114
    Algorithm:                Disk
    Integral Cache:           NONE
    Schwarz Cutoff:          1E-12
    Fitting Condition:       1E-10

   => Auxiliary Basis Set <=

  Basis Set: (6-311G AUX)
    Blend: CC-PVTZ-JKFIT
    Number of shells: 345
    Number of basis function: 1071
    Number of Cartesian functions: 1284
    Spherical Harmonics?: true
    Max angular momentum: 4

  Cached 33.4% of DFT collocation blocks in 0.433 [GiB].

  Minimum eigenvalue in the overlap matrix is 2.7644967988E-04.
  Using Symmetric Orthogonalization.

  SCF Guess: Superposition of Atomic Densities via on-the-fly atomic UHF.

  ==> Iterations <==

                           Total Energy        Delta E     RMS |[F,P]|

   @DF-RKS iter SAD:  -349.21699177214873   -3.49217e+02   0.00000e+00 
   @DF-RKS iter   1:  -349.71696379460224   -4.99972e-01   5.12768e-03 DIIS
   @DF-RKS iter   2:  -349.90518350979283   -1.88220e-01   3.56492e-03 DIIS
   @DF-RKS iter   3:  -350.05968048961773   -1.54497e-01   2.26078e-04 DIIS
   @DF-RKS iter   4:  -350.06039711485715   -7.16625e-04   1.30642e-04 DIIS
   @DF-RKS iter   5:  -350.06061496219178   -2.17847e-04   2.04965e-05 DIIS
   @DF-RKS iter   6:  -350.06062009286239   -5.13067e-06   9.67498e-06 DIIS
   @DF-RKS iter   7:  -350.06062128556312   -1.19270e-06   1.93670e-06 DIIS
   @DF-RKS iter   8:  -350.06062134358660   -5.80235e-08   5.83017e-07 DIIS
   @DF-RKS iter   9:  -350.06062134828471   -4.69811e-09   1.61392e-07 DIIS
   @DF-RKS iter  10:  -350.06062134877067   -4.85954e-10   3.91488e-08 DIIS
   @DF-RKS iter  11:  -350.06062134880727   -3.66072e-11   1.87461e-08 DIIS
   @DF-RKS iter  12:  -350.06062134881654   -9.26548e-12   5.23675e-09 DIIS
  Energy and wave function converged.


  ==> Post-Iterations <==

    Orbital Energies [Eh]
    ---------------------

    Doubly Occupied:                                                      

       1A    -10.304443     2A    -10.293608     3A    -10.293254  
       4A    -10.291843     5A    -10.291263     6A    -10.290990  
       7A    -10.288176     8A    -10.283625     9A    -10.272899  
      10A     -0.958347    11A     -0.895053    12A     -0.846308  
      13A     -0.845059    14A     -0.777581    15A     -0.700705  
      16A     -0.698823    17A     -0.671222    18A     -0.603708  
      19A     -0.560270    20A     -0.547980    21A     -0.528708  
      22A     -0.515375    23A     -0.508415    24A     -0.498130  
      25A     -0.471781    26A     -0.457781    27A     -0.443295  
      28A     -0.427449    29A     -0.422273    30A     -0.409395  
      31A     -0.405054    32A     -0.327180    33A     -0.316860  

    Virtual:                                                              

      34A      0.062356    35A      0.065010    36A      0.119519  
      37A      0.134101    38A      0.144627    39A      0.158711  
      40A      0.168680    41A      0.174497    42A      0.190215  
      43A      0.203542    44A      0.210753    45A      0.215510  
      46A      0.220291    47A      0.225403    48A      0.232227  
      49A      0.290623    50A      0.302196    51A      0.313150  
      52A      0.353230    53A      0.361261    54A      0.364804  
      55A      0.375945    56A      0.390741    57A      0.403445  
      58A      0.406970    59A      0.421401    60A      0.439709  
      61A      0.471502    62A      0.482292    63A      0.491672  
      64A      0.493361    65A      0.500211    66A      0.518537  
      67A      0.538790    68A      0.554340    69A      0.560750  
      70A      0.573268    71A      0.580727    72A      0.595681  
      73A      0.626780    74A      0.635907    75A      0.646893  
      76A      0.663405    77A      0.676081    78A      0.681788  
      79A      0.684201    80A      0.690665    81A      0.698928  
      82A      0.699414    83A      0.702978    84A      0.714513  
      85A      0.721186    86A      0.733291    87A      0.747525  
      88A      0.752487    89A      0.763337    90A      0.782904  
      91A      0.804471    92A      0.848920    93A      0.862422  
      94A      0.875260    95A      0.911265    96A      0.937865  
      97A      0.956615    98A      0.965891    99A      1.002680  
     100A      1.050013   101A      1.101174   102A      1.136344  
     103A      1.158226   104A      1.220149   105A      1.368090  
     106A      2.298473   107A      2.336495   108A      2.347424  
     109A      2.350573   110A      2.363110   111A      2.384593  
     112A      2.392354   113A      2.403848   114A      2.415619  
     115A      2.449744   116A      2.453074   117A      2.605118  
     118A      2.638919   119A      2.672194   120A      2.698342  
     121A      2.792096   122A      2.802397   123A      2.825079  
     124A      2.839461   125A      2.907025   126A      2.919672  
     127A      2.939270   128A      2.962367   129A      2.966415  
     130A      2.981516   131A      2.992469   132A      3.043282  
     133A      3.077970   134A      3.127145   135A      3.150841  
     136A      3.162501   137A      3.203667   138A      3.206115  
     139A      3.269939   140A      3.299214   141A      3.339092  
     142A      3.366828   143A      3.387154   144A      3.532824  
     145A     23.255851   146A     23.471347   147A     23.483771  
     148A     23.523757   149A     23.637035   150A     23.715273  
     151A     23.738151   152A     23.752328   153A     23.991016  

    Final Occupation by Irrep:
              A 
    DOCC [    33 ]

  @DF-RKS Final Energy:  -350.06062134881654

   => Energetics <=

    Nuclear Repulsion Energy =            407.2878628530393144
    One-Electron Energy =               -1277.2078251647219531
    Two-Electron Energy =                 556.1897000885813895
    DFT Exchange-Correlation Energy =     -36.3189425212008032
    Empirical Dispersion Energy =          -0.0114166045144709
    VV10 Nonlocal Energy =                  0.0000000000000000
    Total Energy =                       -350.0606213488165395

Computation Completed


Properties will be evaluated at   0.000000,   0.000000,   0.000000 [a0]

Properties computed using the SCF density matrix

  Nuclear Dipole Moment: [e a0]
     X:    -9.8662      Y:    -1.0868      Z:     0.2232

  Electronic Dipole Moment: [e a0]
     X:     9.7174      Y:     1.0716      Z:    -0.2442

  Dipole Moment: [e a0]
     X:    -0.1488      Y:    -0.0152      Z:    -0.0210     Total:     0.1511

  Dipole Moment: [D]
     X:    -0.3783      Y:    -0.0386      Z:    -0.0535     Total:     0.3840


*** tstop() called on daniele-Precision-5750 at Wed Jun  2 00:15:15 2021
Module time:
	user time   =      78.96 seconds =       1.32 minutes
	system time =       2.50 seconds =       0.04 minutes
	total time  =         11 seconds =       0.18 minutes
Total time:
	user time   =      78.96 seconds =       1.32 minutes
	system time =       2.50 seconds =       0.04 minutes
	total time  =         11 seconds =       0.18 minutes

*** tstart() called on daniele-Precision-5750
*** at Wed Jun  2 00:15:15 2021


         ------------------------------------------------------------
                                   SCF GRAD                          
                          Rob Parrish, Justin Turney,                
                       Andy Simmonett, and Alex Sokolov              
         ------------------------------------------------------------

  ==> Geometry <==

    Molecular point group: c1
    Full point group: C1

    Geometry (in Angstrom), charge = 0, multiplicity = 1:

       Center              X                  Y                   Z               Mass       
    ------------   -----------------  -----------------  -----------------  -----------------
         C           -1.291455059441    -0.866397105411     0.513571475546    12.000000000000
         C           -2.383706059441    -0.282470105411    -0.427515524454    12.000000000000
         C            0.106435940559    -0.297747105411     0.233254475546    12.000000000000
         C           -3.787200059441    -0.224398105411     0.208547475546    12.000000000000
         C            0.533156940559     0.907266894589     0.841469475546    12.000000000000
         C            0.975804940559    -0.941793105411    -0.678921524454    12.000000000000
         C            1.808789940559     1.437637894589     0.567473475546    12.000000000000
         C            2.251722940559    -0.411345105411    -0.951751524454    12.000000000000
         C            2.670336940559     0.776607894589    -0.326122524454    12.000000000000
         H           -1.285175059441    -1.962197105411     0.448358475546     1.007825032230
         H           -1.545260059441    -0.649722105411     1.559843475546     1.007825032230
         H           -2.095379059441     0.735202894589    -0.725120524454     1.007825032230
         H           -2.402777059441    -0.856990105411    -1.362972524454     1.007825032230
         H           -3.791703059441     0.404402894589     1.105409475546     1.007825032230
         H           -4.515074059441     0.191947894589    -0.495877524454     1.007825032230
         H           -4.131894059441    -1.224491105411     0.492488475546     1.007825032230
         H           -0.123469059441     1.436541894589     1.530525475546     1.007825032230
         H            0.665308940559    -1.858331105411    -1.178681524454     1.007825032230
         H            2.128705940559     2.360721894589     1.047486475546     1.007825032230
         H            2.915213940559    -0.921212105411    -1.647945524454     1.007825032230
         H            3.657217940559     1.184852894589    -0.535440524454     1.007825032230

  Nuclear repulsion =  407.287862853039314

  ==> Basis Set <==

  Basis Set: 6-311G
    Blend: 6-311G
    Number of shells: 99
    Number of basis function: 153
    Number of Cartesian functions: 153
    Spherical Harmonics?: true
    Max angular momentum: 1

  ==> DFJKGrad: Density-Fitted SCF Gradients <==

    Gradient:                    1
    J tasked:                  Yes
    K tasked:                  Yes
    wK tasked:                 Yes
    Omega:               2.000E-01
    OpenMP threads:              8
    Integrals threads:           8
    Memory [MiB]:              500
    Schwarz Cutoff:          0E+00
    Fitting Condition:       1E-10

   => Auxiliary Basis Set <=

  Basis Set: (6-311G AUX)
    Blend: CC-PVTZ-JKFIT
    Number of shells: 345
    Number of basis function: 1071
    Number of Cartesian functions: 1284
    Spherical Harmonics?: true
    Max angular momentum: 4

  ==> DFT Potential <==

   => Composite Functional: WB97X-D <= 

    wB97X-D Hyb-GGA Exchange-Correlation Functional

    J.-D. Chai and M. Head-Gordon, Phys. Chem. Chem. Phys. 10, 6615 (2008)

    Deriv               =              1
    GGA                 =           TRUE
    Meta                =          FALSE

    Exchange Hybrid     =           TRUE
    MP2 Hybrid          =          FALSE

   => Exchange-Correlation Functionals <=

    1.0000   wB97D range-separated functional

   => Exact (HF) Exchange <=

    0.7780            HF,LR [omega = 0.2000]
    0.2220               HF 

   => Molecular Quadrature <=

    Radial Scheme          =       TREUTLER
    Pruning Scheme         =           FLAT
    Nuclear Scheme         =       TREUTLER

    BS radius alpha        =              1
    Pruning alpha          =              1
    Radial Points          =             75
    Spherical Points       =            302
    Total Points           =         470084
    Total Blocks           =           3430
    Max Points             =            256
    Max Functions          =            142


  -Total Gradient:
     Atom            X                  Y                   Z
    ------   -----------------  -----------------  -----------------
       1       -0.004957877370    -0.005074372995    -0.001788323570
       2       -0.001133937473    -0.005135360897    -0.000986505644
       3       -0.000800579962     0.002026217196     0.004589771900
       4       -0.002664257879     0.004076220267     0.003540900337
       5       -0.007306752693     0.005300998265     0.006317470419
       6       -0.004545386898    -0.009161648326    -0.005303830864
       7        0.004099808488     0.007825466560     0.004150630054
       8        0.006238415260    -0.004315187477    -0.005516799066
       9        0.006201348440     0.002881535993    -0.001015458042
      10       -0.001539046304    -0.003084622413     0.002378366067
      11        0.001029232895    -0.002554512810     0.002769446574
      12       -0.000329943707     0.002375832339    -0.002716360104
      13        0.001169267472    -0.000047622822    -0.003194135012
      14       -0.001264999847     0.001351605565     0.001615315521
      15       -0.001425183417     0.001023463947    -0.001439556873
      16       -0.000300641379    -0.001609799445    -0.000347431175
      17       -0.001304367830     0.003704900835     0.002267349648
      18        0.000250073597    -0.003229524164    -0.003474210793
      19        0.001658140579     0.003845212521     0.001858678785
      20        0.002999650904    -0.001986203759    -0.002756043778
      21        0.004070179400     0.001729471590    -0.000941340683


*** tstop() called on daniele-Precision-5750 at Wed Jun  2 00:15:19 2021
Module time:
	user time   =      37.17 seconds =       0.62 minutes
	system time =       0.44 seconds =       0.01 minutes
	total time  =          4 seconds =       0.07 minutes
Total time:
	user time   =     116.14 seconds =       1.94 minutes
	system time =       2.94 seconds =       0.05 minutes
	total time  =         15 seconds =       0.25 minutes

			-----------------------------------------
			 OPTKING 2.0: for geometry optimizations 
			  - R.A. King,  Bethel University        
			-----------------------------------------
	At level 1: Red. Int., RFO, no backsteps, dynamic trust

	Internal coordinates to be generated automatically.
	Detected frag 1 with atoms:  1 2 3 4 5 6 7 8 9 10 11 12 13 14 15 16 17 18 19 20
	 21
	---Fragment 1 Bond Connectivity---
	 1 : 2 3 10 11
	 2 : 1 4 12 13
	 3 : 1 5 6
	 4 : 2 14 15 16
	 5 : 3 7 17
	 6 : 3 8 18
	 7 : 5 9 19
	 8 : 6 9 20
	 9 : 7 8 21
	 10 : 1
	 11 : 1
	 12 : 2
	 13 : 2
	 14 : 4
	 15 : 4
	 16 : 4
	 17 : 5
	 18 : 6
	 19 : 7
	 20 : 8
	 21 : 9

	Assuming in current code that numbering for constraints corresponds to unified fragment.
	Frozen dihedral atom list: 
	     4     2     1     3
	     2     1     3     5
	     2     1     3     6
	     1     2     4    14
	---Fragment 1 Geometry and Gradient---
	 C          -2.4404963657       -1.6372532451        0.9705094346
	 C          -4.5045516159       -0.5337911379       -0.8078872556
	 C           0.2011347776       -0.5626604839        0.4407870763
	 C          -7.1567708947       -0.4240509623        0.3940976129
	 C           1.0075205995        1.7144859535        1.5901468517
	 C           1.8440040895       -1.7797310361       -1.2829757419
	 C           3.4181176061        2.7167418884        1.0723694522
	 C           4.2551396681       -0.7773295923       -1.7985497207
	 C           5.0462054803        1.4675762276       -0.6162822546
	 H          -2.4286288856       -3.7080151334        0.8472747248
	 H          -2.9201183050       -1.2277968369        2.9476769674
	 H          -3.9596925514        1.3893321174       -1.3702791992
	 H          -4.5405905829       -1.6194765915       -2.5756447877
	 H          -7.1652803314        0.7642107151        2.0889211653
	 H          -8.5322534085        0.3627289511       -0.9370727130
	 H          -7.8081481517       -2.3139528323        0.9306683387
	 H          -0.2333227073        2.7146707485        2.8922739768
	 H           1.2572516865       -3.5117368396       -2.2273852704
	 H           4.0226712293        4.4611178391        1.9794625589
	 H           5.5089559448       -1.7408385827       -3.1141657109
	 H           6.9111402888        2.2390474697       -1.0118359477
	            -0.0049578774       -0.0050743730       -0.0017883236
	            -0.0011339375       -0.0051353609       -0.0009865056
	            -0.0008005800        0.0020262172        0.0045897719
	            -0.0026642579        0.0040762203        0.0035409003
	            -0.0073067527        0.0053009983        0.0063174704
	            -0.0045453869       -0.0091616483       -0.0053038309
	             0.0040998085        0.0078254666        0.0041506301
	             0.0062384153       -0.0043151875       -0.0055167991
	             0.0062013484        0.0028815360       -0.0010154580
	            -0.0015390463       -0.0030846224        0.0023783661
	             0.0010292329       -0.0025545128        0.0027694466
	            -0.0003299437        0.0023758323       -0.0027163601
	             0.0011692675       -0.0000476228       -0.0031941350
	            -0.0012649998        0.0013516056        0.0016153155
	            -0.0014251834        0.0010234639       -0.0014395569
	            -0.0003006414       -0.0016097994       -0.0003474312
	            -0.0013043678        0.0037049008        0.0022673496
	             0.0002500736       -0.0032295242       -0.0034742108
	             0.0016581406        0.0038452125        0.0018586788
	             0.0029996509       -0.0019862038       -0.0027560438
	             0.0040701794        0.0017294716       -0.0009413407

	Previous optimization step data not found.  Starting new optimization.

	---Fragment 1 Intrafragment Coordinates---
	 - Coordinate -           - BOHR/RAD -       - ANG/DEG -
	 R(1,2)           =         2.939498	       1.555515
	 R(1,3)           =         2.900616	       1.534940
	 R(1,10)          =         2.074460	       1.097757
	 R(1,11)          =         2.075303	       1.098203
	 R(2,4)           =         2.913945	       1.541993
	 R(2,12)          =         2.076429	       1.098799
	 R(2,13)          =         2.074844	       1.097960
	 R(3,5)           =         2.675198	       1.415654
	 R(3,6)           =         2.674255	       1.415155
	 R(4,14)          =         2.069895	       1.095341
	 R(4,15)          =         2.069538	       1.095153
	 R(4,16)          =         2.069766	       1.095273
	 R(5,7)           =         2.661501	       1.408406
	 R(5,17)          =         2.058057	       1.089077
	 R(6,8)           =         2.661616	       1.408467
	 R(6,18)          =         2.058162	       1.089133
	 R(7,9)           =         2.657561	       1.406321
	 R(7,19)          =         2.056976	       1.088505
	 R(8,9)           =         2.657658	       1.406372
	 R(8,20)          =         2.057000	       1.088518
	 R(9,21)          =         2.056602	       1.088307
	 B(1,2,4)         =         1.986342	     113.809018
	 B(1,2,12)        =         1.904224	     109.104010
	 B(1,2,13)        =         1.908399	     109.343210
	 B(1,3,5)         =         2.107612	     120.757273
	 B(1,3,6)         =         2.104341	     120.569873
	 B(2,1,3)         =         1.971347	     112.949873
	 B(2,1,10)        =         1.920691	     110.047483
	 B(2,1,11)        =         1.917763	     109.879707
	 B(2,4,14)        =         1.942400	     111.291327
	 B(2,4,15)        =         1.932565	     110.727814
	 B(2,4,16)        =         1.937984	     111.038307
	 B(3,1,10)        =         1.932375	     110.716937
	 B(3,1,11)        =         1.887430	     108.141760
	 B(3,5,7)         =         2.105952	     120.662157
	 B(3,5,17)        =         2.098748	     120.249386
	 B(3,6,8)         =         2.105951	     120.662113
	 B(3,6,18)        =         2.098581	     120.239836
	 B(4,2,12)        =         1.891965	     108.401614
	 B(4,2,13)        =         1.934074	     110.814268
	 B(5,3,6)         =         2.070477	     118.629622
	 B(5,7,9)         =         2.096106	     120.098030
	 B(5,7,19)        =         2.094111	     119.983711
	 B(6,8,9)         =         2.096238	     120.105608
	 B(6,8,20)        =         2.093999	     119.977322
	 B(7,5,17)        =         2.078485	     119.088416
	 B(7,9,8)         =         2.091345	     119.825261
	 B(7,9,21)        =         2.096036	     120.094004
	 B(8,6,18)        =         2.078651	     119.097944
	 B(8,9,21)        =         2.095799	     120.080455
	 B(9,7,19)        =         2.092968	     119.918256
	 B(9,8,20)        =         2.092948	     119.917070
	 B(10,1,11)       =         1.828506	     104.765678
	 B(12,2,13)       =         1.832189	     104.976717
	 B(14,4,15)       =         1.881460	     107.799699
	 B(14,4,16)       =         1.886643	     108.096669
	 B(15,4,16)       =         1.880438	     107.741180
	*D(1,2,4,14)      =         1.050792	      60.205970
	 D(1,2,4,15)      =        -3.140001	    -179.908810
	 D(1,2,4,16)      =        -1.051797	     -60.263520
	 D(1,3,5,7)       =        -3.125085	    -179.054158
	 D(1,3,5,17)      =         0.017811	       1.020468
	 D(1,3,6,8)       =         3.125949	     179.103710
	 D(1,3,6,18)      =        -0.017744	      -1.016665
	*D(2,1,3,5)       =         1.510915	      86.569077
	*D(2,1,3,6)       =        -1.588367	     -91.006744
	*D(3,1,2,4)       =        -2.625828	    -150.448850
	 D(3,1,2,12)      =        -0.510546	     -29.252124
	 D(3,1,2,13)      =         1.484280	      85.043008
	 D(3,5,7,9)       =         0.009024	       0.517023
	 D(3,5,7,19)      =        -3.132976	    -179.506314
	 D(3,6,8,9)       =        -0.010600	      -0.607357
	 D(3,6,8,20)      =         3.131106	     179.399181
	 D(4,2,1,10)      =         1.487999	      85.256080
	 D(4,2,1,11)      =        -0.516734	     -29.606685
	 D(5,3,1,10)      =        -2.609321	    -149.503072
	 D(5,3,1,11)      =        -0.615345	     -35.256658
	 D(5,3,6,8)       =         0.025780	       1.477058
	 D(5,3,6,18)      =        -3.117914	    -178.643317
	 D(5,7,9,8)       =         0.006658	       0.381504
	 D(5,7,9,21)      =        -3.138292	    -179.810884
	 D(6,3,1,10)      =         0.574582	      32.921106
	 D(6,3,1,11)      =         2.568558	     147.167521
	 D(6,3,5,7)       =        -0.024995	      -1.432115
	 D(6,3,5,17)      =         3.117900	     178.642511
	 D(6,8,9,7)       =        -0.005879	      -0.336835
	 D(6,8,9,21)      =         3.139071	     179.855527
	 D(7,9,8,20)      =         3.135600	     179.656631
	 D(8,9,7,19)      =        -3.134527	    -179.595175
	 D(9,7,5,17)      =        -3.133856	    -179.556747
	 D(9,8,6,18)      =         3.133070	     179.511659
	 D(10,1,2,12)     =        -2.679904	    -153.547194
	 D(10,1,2,13)     =        -0.685078	     -39.252062
	 D(11,1,2,12)     =         1.598548	      91.590041
	 D(11,1,2,13)     =        -2.689811	    -154.114828
	 D(12,2,4,14)     =        -1.071310	     -61.381557
	 D(12,2,4,15)     =         1.021082	      58.503663
	 D(12,2,4,16)     =         3.109286	     178.148954
	 D(13,2,4,14)     =        -3.073172	    -176.079782
	 D(13,2,4,15)     =        -0.980780	     -56.194562
	 D(13,2,4,16)     =         1.107424	      63.450729
	 D(17,5,7,19)     =         0.007329	       0.419917
	 D(18,6,8,20)     =        -0.008409	      -0.481802
	 D(19,7,9,21)     =         0.003708	       0.212437
	 D(20,8,9,21)     =        -0.002636	      -0.151008

	Current energy   :      -350.0606213488

	Generating empirical Hessian (Schlegel '84) for each fragment.
	Taking RFO optimization step.
	Going to follow RFO solution 1.
	Using RFO vector 1.
	Norm of target step-size    0.15677
	Projected energy change by RFO approximation:        -0.0046550348

	Back-transformation to cartesian coordinates...
	Successfully converged to displaced geometry.

	Back-transformation to cartesian coordinates to adjust frozen coordinates...
	Successfully converged to displaced geometry.

	--- Internal Coordinate Step in ANG or DEG, aJ/ANG or AJ/DEG ---
	 ---------------------------------------------------------------------------
	   Coordinate                Previous        Force       Change         New 
	   ----------                --------       ------       ------       ------
	    1 R(1,2)          =      1.555515    -0.058334    -0.013541     1.541974
	    2 R(1,3)          =      1.534940    -0.112412    -0.024514     1.510426
	    3 R(1,10)         =      1.097757    -0.024090    -0.004496     1.093260
	    4 R(1,11)         =      1.098203    -0.015685    -0.002932     1.095271
	    5 R(2,4)          =      1.541993    -0.055687    -0.012409     1.529585
	    6 R(2,12)         =      1.098799    -0.023452    -0.004392     1.094407
	    7 R(2,13)         =      1.097960    -0.022412    -0.004186     1.093774
	    8 R(3,5)          =      1.415654    -0.135175    -0.020093     1.395560
	    9 R(3,6)          =      1.415155    -0.130049    -0.019281     1.395874
	   10 R(4,14)         =      1.095341    -0.017416    -0.003225     1.092116
	   11 R(4,15)         =      1.095153    -0.018629    -0.003448     1.091705
	   12 R(4,16)         =      1.095273    -0.012161    -0.002251     1.093021
	   13 R(5,7)          =      1.408406    -0.114909    -0.016520     1.391885
	   14 R(5,17)         =      1.089077    -0.033142    -0.006013     1.083064
	   15 R(6,8)          =      1.408467    -0.111171    -0.015942     1.392525
	   16 R(6,18)         =      1.089133    -0.034961    -0.006344     1.082788
	   17 R(7,9)          =      1.406321    -0.100713    -0.014198     1.392122
	   18 R(7,19)         =      1.088505    -0.037609    -0.006811     1.081694
	   19 R(8,9)          =      1.406372    -0.105238    -0.014823     1.391548
	   20 R(8,20)         =      1.088518    -0.037243    -0.006745     1.081773
	   21 R(9,21)         =      1.088307    -0.037211    -0.006734     1.081573
	   22 B(1,2,4)        =    113.809018    -0.000202    -0.976261   112.832757
	   23 B(1,2,12)       =    109.104010    -0.000014    -0.477082   108.626928
	   24 B(1,2,13)       =    109.343210     0.000081     0.253886   109.597096
	   25 B(1,3,5)        =    120.757273    -0.000106    -0.283351   120.473921
	   26 B(1,3,6)        =    120.569873     0.000098     0.320738   120.890611
	   27 B(2,1,3)        =    112.949873     0.000041    -0.189827   112.760047
	   28 B(2,1,10)       =    110.047483    -0.000005     0.045884   110.093367
	   29 B(2,1,11)       =    109.879707    -0.000143    -1.062025   108.817682
	   30 B(2,4,14)       =    111.291327    -0.000152    -0.816703   110.474624
	   31 B(2,4,15)       =    110.727814     0.000024     0.283465   111.011279
	   32 B(2,4,16)       =    111.038307     0.000079     0.318372   111.356680
	   33 B(3,1,10)       =    110.716937    -0.000071    -0.613985   110.102952
	   34 B(3,1,11)       =    108.141760     0.000040     0.276397   108.418157
	   35 B(3,5,7)        =    120.662157     0.000049     0.122014   120.784171
	   36 B(3,5,17)       =    120.249386    -0.000179    -0.773665   119.475720
	   37 B(3,6,8)        =    120.662113     0.000060     0.163433   120.825545
	   38 B(3,6,18)       =    120.239836    -0.000186    -0.797001   119.442835
	   39 B(4,2,12)       =    108.401614     0.000089     0.447741   108.849355
	   40 B(4,2,13)       =    110.814268     0.000020    -0.283447   110.530821
	   41 B(5,3,6)        =    118.629622     0.000008    -0.037354   118.592268
	   42 B(5,7,9)        =    120.098030     0.000010     0.067353   120.165382
	   43 B(5,7,19)       =    119.983711    -0.000033    -0.160112   119.823599
	   44 B(6,8,9)        =    120.105608    -0.000018    -0.005877   120.099731
	   45 B(6,8,20)       =    119.977322    -0.000012    -0.095291   119.882031
	   46 B(7,5,17)       =    119.088416     0.000131     0.651675   119.740091
	   47 B(7,9,8)        =    119.825261    -0.000107    -0.292544   119.532717
	   48 B(7,9,21)       =    120.094004     0.000052     0.136943   120.230946
	   49 B(8,6,18)       =    119.097944     0.000126     0.633648   119.731591
	   50 B(8,9,21)       =    120.080455     0.000055     0.155360   120.235815
	   51 B(9,7,19)       =    119.918256     0.000023     0.092386   120.010642
	   52 B(9,8,20)       =    119.917070     0.000030     0.100870   120.017939
	   53 B(10,1,11)      =    104.765678     0.000145     1.660156   106.425834
	   54 B(12,2,13)      =    104.976717     0.000046     1.186484   106.163200
	   55 B(14,4,15)      =    107.799699     0.000045     0.296342   108.096041
	   56 B(14,4,16)      =    108.096669     0.000022    -0.231438   107.865231
	   57 B(15,4,16)      =    107.741180    -0.000016     0.163315   107.904495
	   58 *D(1,2,4,14)    =     60.205970    -0.000000    -0.000000    60.205970
	   59 D(1,2,4,15)     =   -179.908810    -0.000006     0.021073  -179.887738
	   60 D(1,2,4,16)     =    -60.263520     0.000005     0.627413   -59.636107
	   61 D(1,3,5,7)      =   -179.054158     0.000009     1.483220  -177.570938
	   62 D(1,3,5,17)     =      1.020468     0.000008     1.359557     2.380025
	   63 D(1,3,6,8)      =    179.103710    -0.000011    -1.572026   177.531684
	   64 D(1,3,6,18)     =     -1.016665    -0.000009    -1.389977    -2.406643
	   65 *D(2,1,3,5)     =     86.569077     0.000000     0.000000    86.569077
	   66 *D(2,1,3,6)     =    -91.006744    -0.000000    -0.000000   -91.006744
	   67 *D(3,1,2,4)     =   -150.448850    -0.000000    -0.000000  -150.448850
	   68 D(3,1,2,12)     =    -29.252124    -0.000007    -0.410194   -29.662318
	   69 D(3,1,2,13)     =     85.043008     0.000013     0.878249    85.921257
	   70 D(3,5,7,9)      =      0.517023    -0.000004    -0.592643    -0.075620
	   71 D(3,5,7,19)     =   -179.506314    -0.000002    -0.345953  -179.852267
	   72 D(3,6,8,9)      =     -0.607357     0.000005     0.741027     0.133669
	   73 D(3,6,8,20)     =    179.399181     0.000003     0.535758   179.934940
	   74 D(4,2,1,10)     =     85.256080     0.000015     0.903106    86.159186
	   75 D(4,2,1,11)     =    -29.606685    -0.000005    -0.514475   -30.121160
	   76 D(5,3,1,10)     =   -149.503072    -0.000007    -0.541208  -150.044280
	   77 D(5,3,1,11)     =    -35.256658     0.000029     1.269021   -33.987637
	   78 D(5,3,6,8)      =      1.477058    -0.000010    -1.565913    -0.088855
	   79 D(5,3,6,18)     =   -178.643317    -0.000009    -1.383864  -180.027181
	   80 D(5,7,9,8)      =      0.381504    -0.000002    -0.263386     0.118118
	   81 D(5,7,9,21)     =   -179.810884     0.000001     0.191148  -179.619736
	   82 D(6,3,1,10)     =     32.921106    -0.000007    -0.541208    32.379898
	   83 D(6,3,1,11)     =    147.167521     0.000029     1.269021   148.436542
	   84 D(6,3,5,7)      =     -1.432115     0.000010     1.491968     0.059853
	   85 D(6,3,5,17)     =    178.642511     0.000009     1.368305   180.010815
	   86 D(6,8,9,7)      =     -0.336835     0.000001     0.190093    -0.146742
	   87 D(6,8,9,21)     =    179.855527    -0.000002    -0.264428   179.591098
	   88 D(7,9,8,20)     =    179.656631     0.000003     0.395629   180.052260
	   89 D(8,9,7,19)     =   -179.595175    -0.000003    -0.510481  -180.105656
	   90 D(9,7,5,17)     =   -179.556747    -0.000003    -0.469707  -180.026454
	   91 D(9,8,6,18)     =    179.511659     0.000004     0.560160   180.071819
	   92 D(10,1,2,12)    =   -153.547194     0.000008     0.492911  -153.054282
	   93 D(10,1,2,13)    =    -39.252062     0.000029     1.781355   -37.470707
	   94 D(11,1,2,12)    =     91.590041    -0.000013    -0.924669    90.665372
	   95 D(11,1,2,13)    =   -154.114828     0.000008     0.363774  -153.751054
	   96 D(12,2,4,14)    =    -61.381557     0.000020     0.927955   -60.453602
	   97 D(12,2,4,15)    =     58.503663     0.000014     0.949027    59.452691
	   98 D(12,2,4,16)    =    178.148954     0.000025     1.555367   179.704322
	   99 D(13,2,4,14)    =   -176.079782    -0.000007    -0.602131  -176.681912
	  100 D(13,2,4,15)    =    -56.194562    -0.000013    -0.581058   -56.775620
	  101 D(13,2,4,16)    =     63.450729    -0.000002     0.025282    63.476011
	  102 D(17,5,7,19)    =      0.419917    -0.000002    -0.223018     0.196899
	  103 D(18,6,8,20)    =     -0.481802     0.000002     0.354891    -0.126911
	  104 D(19,7,9,21)    =      0.212437    -0.000000    -0.055946     0.156491
	  105 D(20,8,9,21)    =     -0.151008    -0.000000    -0.058892    -0.209900
	 ---------------------------------------------------------------------------
	Successfully symmetrized geometry.

  ==> Convergence Check <==

  Measures of convergence in internal coordinates in au.
  Criteria marked as inactive (o), active & met (*), and active & unmet ( ).
  --------------------------------------------------------------------------------------------- ~
   Step     Total Energy     Delta E     MAX Force     RMS Force      MAX Disp      RMS Disp    ~
  --------------------------------------------------------------------------------------------- ~
    Convergence Criteria             o    2.50e-03 *    1.70e-03 *    1.00e-02 *    6.70e-03 *  ~
  --------------------------------------------------------------------------------------------- ~
      1    -350.06062135   -3.50e+02 o    1.64e-02      4.02e-03      4.63e-02      1.53e-02    ~
  ---------------------------------------------------------------------------------------------

	Writing optimization data to binary file.
	Structure for next step:
	Cartesian Geometry (in Angstrom)
	    C    -1.2767099374  -0.8620849233   0.5057225527
	    C    -2.3494210149  -0.2828475971  -0.4384481693
	    C     0.1009901084  -0.3043259578   0.2369591851
	    C    -3.7375330338  -0.2298086245   0.2018342668
	    C     0.5124241764   0.8858526744   0.8384446659
	    C     0.9693433752  -0.9377000760  -0.6536938592
	    C     1.7612817377   1.4319310516   0.5564899880
	    C     2.2194665828  -0.3947883754  -0.9392875850
	    C     2.6198878669   0.7920557639  -0.3330937846
	    H    -1.2613760244  -1.9527870716   0.4325649709
	    H    -1.5505156045  -0.6248219979   1.5393357670
	    H    -2.0528668230   0.7311184763  -0.7242020536
	    H    -2.3760085634  -0.8646227893  -1.3642846147
	    H    -3.7227886028   0.3995238984   1.0942694353
	    H    -4.4730015319   0.1824265160  -0.4916842302
	    H    -4.0770611591  -1.2253173173   0.4991198042
	    H    -0.1499145549   1.3892289413   1.5319477551
	    H     0.6643032128  -1.8621022469  -1.1278895013
	    H     2.0653475400   2.3539772236   1.0333934097
	    H     2.8807450447  -0.8990359272  -1.6311531727
	    H     3.5930089947   1.2122171493  -0.5482658443
			--------------------------
			 OPTKING Finished Execution 
			--------------------------

    Structure for next step:
    Molecular point group: c1
    Full point group: C1

    Geometry (in Angstrom), charge = 0, multiplicity = 1:

    C           -1.270837699317    -0.862169306631     0.506187345008
    C           -2.343548780988    -0.282931978180    -0.437983380734
    C            0.106862351889    -0.304410338998     0.237423976308
    C           -3.731660805379    -0.229893005404     0.202299057956
    C            0.518296421497     0.885768297893     0.838909459486
    C            0.975215622064    -0.937784459660    -0.653229071456
    C            1.767153987744     1.431846677295     0.556954780455
    C            2.225338834652    -0.394872756953    -0.938822798411
    C            2.625760120280     0.791971387084    -0.332628995624
    H           -1.255503786228    -1.952871459246     0.433029762906
    H           -1.544643367474    -0.624906380375     1.539800563352
    H           -2.046994587955     0.731034099167    -0.723737266120
    H           -2.370136329651    -0.864707172662    -1.363819829768
    H           -3.716916374292     0.399439519989     1.094734229923
    H           -4.467129306367     0.182342136715    -0.491219441818
    H           -4.071188932041    -1.225401702056     0.499584596489
    H           -0.144042312358     1.389144566735     1.532412551401
    H            0.670175458479    -1.862186634169    -1.127424715430
    H            2.071219791198     2.353892852923     1.033858204058
    H            2.886617299170    -0.899120310689    -1.630688388794
    H            3.598881251958     1.212132774063    -0.547801056140

gradient() will perform analytic gradient computation.

*** tstart() called on daniele-Precision-5750
*** at Wed Jun  2 00:15:20 2021

   => Loading Basis Set <=

    Name: 6-311G
    Role: ORBITAL
    Keyword: BASIS
    atoms 1-9   entry C          line    92 file /home/daniele/anaconda3/envs/poltype/share/psi4/basis/6-311g.gbs 
    atoms 10-21 entry H          line    21 file /home/daniele/anaconda3/envs/poltype/share/psi4/basis/6-311g.gbs 


         ---------------------------------------------------------
                                   SCF
               by Justin Turney, Rob Parrish, Andy Simmonett
                          and Daniel G. A. Smith
                              RKS Reference
                        8 Threads,    667 MiB Core
         ---------------------------------------------------------

  ==> Geometry <==

    Molecular point group: c1
    Full point group: C1

    Geometry (in Angstrom), charge = 0, multiplicity = 1:

       Center              X                  Y                   Z               Mass       
    ------------   -----------------  -----------------  -----------------  -----------------
         C           -1.270837699317    -0.862169306631     0.506187345008    12.000000000000
         C           -2.343548780988    -0.282931978180    -0.437983380734    12.000000000000
         C            0.106862351889    -0.304410338998     0.237423976308    12.000000000000
         C           -3.731660805379    -0.229893005404     0.202299057956    12.000000000000
         C            0.518296421497     0.885768297893     0.838909459486    12.000000000000
         C            0.975215622064    -0.937784459660    -0.653229071456    12.000000000000
         C            1.767153987744     1.431846677295     0.556954780455    12.000000000000
         C            2.225338834652    -0.394872756953    -0.938822798411    12.000000000000
         C            2.625760120280     0.791971387084    -0.332628995624    12.000000000000
         H           -1.255503786228    -1.952871459246     0.433029762906     1.007825032230
         H           -1.544643367474    -0.624906380375     1.539800563352     1.007825032230
         H           -2.046994587955     0.731034099167    -0.723737266120     1.007825032230
         H           -2.370136329651    -0.864707172662    -1.363819829768     1.007825032230
         H           -3.716916374292     0.399439519989     1.094734229923     1.007825032230
         H           -4.467129306367     0.182342136715    -0.491219441818     1.007825032230
         H           -4.071188932041    -1.225401702056     0.499584596489     1.007825032230
         H           -0.144042312358     1.389144566735     1.532412551401     1.007825032230
         H            0.670175458479    -1.862186634169    -1.127424715430     1.007825032230
         H            2.071219791198     2.353892852923     1.033858204058     1.007825032230
         H            2.886617299170    -0.899120310689    -1.630688388794     1.007825032230
         H            3.598881251958     1.212132774063    -0.547801056140     1.007825032230

  Running in c1 symmetry.

  Rotational constants: A =      0.14090  B =      0.02917  C =      0.02592 [cm^-1]
  Rotational constants: A =   4223.99772  B =    874.37149  C =    777.20804 [MHz]
  Nuclear repulsion =  412.074968242141836

  Charge       = 0
  Multiplicity = 1
  Electrons    = 66
  Nalpha       = 33
  Nbeta        = 33

  ==> Algorithm <==

  SCF Algorithm Type is DF.
  DIIS enabled.
  MOM disabled.
  Fractional occupation disabled.
  Guess Type is READ.
  Energy threshold   = 1.00e-08
  Density threshold  = 1.00e-08
  Integral threshold = 0.00e+00

  ==> Primary Basis <==

  Basis Set: 6-311G
    Blend: 6-311G
    Number of shells: 99
    Number of basis function: 153
    Number of Cartesian functions: 153
    Spherical Harmonics?: true
    Max angular momentum: 1

  ==> DFT Potential <==

   => Composite Functional: WB97X-D <= 

    wB97X-D Hyb-GGA Exchange-Correlation Functional

    J.-D. Chai and M. Head-Gordon, Phys. Chem. Chem. Phys. 10, 6615 (2008)

    Deriv               =              1
    GGA                 =           TRUE
    Meta                =          FALSE

    Exchange Hybrid     =           TRUE
    MP2 Hybrid          =          FALSE

   => Exchange-Correlation Functionals <=

    1.0000   wB97D range-separated functional

   => Exact (HF) Exchange <=

    0.7780            HF,LR [omega = 0.2000]
    0.2220               HF 

   => Molecular Quadrature <=

    Radial Scheme          =       TREUTLER
    Pruning Scheme         =           FLAT
    Nuclear Scheme         =       TREUTLER

    BS radius alpha        =              1
    Pruning alpha          =              1
    Radial Points          =             75
    Spherical Points       =            302
    Total Points           =         470050
    Total Blocks           =           3450
    Max Points             =            256
    Max Functions          =            143

   => WB97X-D: Empirical Dispersion <=

    Chai and Head-Gordon Dispersion Correction
    Chai, J.-D.; Head-Gordon, M. (2010), J. Chem. Phys., 132: 6615-6620

        s6 =       1.000000

   => Loading Basis Set <=

    Name: (6-311G AUX)
    Role: JKFIT
    Keyword: DF_BASIS_SCF
    atoms 1-9   entry C          line   125 file /home/daniele/anaconda3/envs/poltype/share/psi4/basis/cc-pvtz-jkfit.gbs 
    atoms 10-21 entry H          line    51 file /home/daniele/anaconda3/envs/poltype/share/psi4/basis/cc-pvtz-jkfit.gbs 

   => Loading Basis Set <=

    Name: 6-311G
    Role: ORBITAL
    Keyword: BASIS
    atoms 1-9   entry C          line    92 file /home/daniele/anaconda3/envs/poltype/share/psi4/basis/6-311g.gbs 
    atoms 10-21 entry H          line    21 file /home/daniele/anaconda3/envs/poltype/share/psi4/basis/6-311g.gbs 

  Reading orbitals from file 180, no projection.

  ==> Pre-Iterations <==

   -------------------------------------------------------
    Irrep   Nso     Nmo     Nalpha   Nbeta   Ndocc  Nsocc
   -------------------------------------------------------
     A        153     153       0       0       0       0
   -------------------------------------------------------
    Total     153     153      33      33      33       0
   -------------------------------------------------------

  ==> Integral Setup <==

  ==> DiskDFJK: Density-Fitted J/K Matrices <==

    J tasked:                  Yes
    K tasked:                  Yes
    wK tasked:                 Yes
    Omega:               2.000E-01
    OpenMP threads:              8
    Integrals threads:           8
    Memory [MiB]:              114
    Algorithm:                Disk
    Integral Cache:           NONE
    Schwarz Cutoff:          1E-12
    Fitting Condition:       1E-10

   => Auxiliary Basis Set <=

  Basis Set: (6-311G AUX)
    Blend: CC-PVTZ-JKFIT
    Number of shells: 345
    Number of basis function: 1071
    Number of Cartesian functions: 1284
    Spherical Harmonics?: true
    Max angular momentum: 4

  Cached 33.3% of DFT collocation blocks in 0.436 [GiB].

  Minimum eigenvalue in the overlap matrix is 2.4447881318E-04.
  Using Symmetric Orthogonalization.

  SCF Guess: Orbitals guess was supplied from a previous computation.

  ==> Iterations <==

                           Total Energy        Delta E     RMS |[F,P]|

   @DF-RKS iter   0:  -350.13289118377577   -3.50133e+02   6.44470e-04 
   @DF-RKS iter   1:  -350.06263408559255    7.02571e-02   1.01121e-04 DIIS
   @DF-RKS iter   2:  -350.06275340657976   -1.19321e-04   7.05285e-05 DIIS
   @DF-RKS iter   3:  -350.06281609576013   -6.26892e-05   9.44372e-06 DIIS
   @DF-RKS iter   4:  -350.06281820974328   -2.11398e-06   4.68234e-06 DIIS
   @DF-RKS iter   5:  -350.06281857040875   -3.60665e-07   1.82590e-06 DIIS
   @DF-RKS iter   6:  -350.06281863294851   -6.25398e-08   6.28303e-07 DIIS
   @DF-RKS iter   7:  -350.06281863900330   -6.05479e-09   1.33246e-07 DIIS
   @DF-RKS iter   8:  -350.06281863949221   -4.88910e-10   3.11261e-08 DIIS
   @DF-RKS iter   9:  -350.06281863950807   -1.58593e-11   1.28936e-08 DIIS
   @DF-RKS iter  10:  -350.06281863951074   -2.67164e-12   2.66858e-09 DIIS
  Energy and wave function converged.


  ==> Post-Iterations <==

    Orbital Energies [Eh]
    ---------------------

    Doubly Occupied:                                                      

       1A    -10.296663     2A    -10.288423     3A    -10.288224  
       4A    -10.286066     5A    -10.285640     6A    -10.285395  
       7A    -10.283515     8A    -10.280372     9A    -10.270618  
      10A     -0.967088    11A     -0.901364    12A     -0.850751  
      13A     -0.848976    14A     -0.779414    15A     -0.704050  
      16A     -0.699968    17A     -0.672477    18A     -0.607933  
      19A     -0.565720    20A     -0.547600    21A     -0.532227  
      22A     -0.518304    23A     -0.509924    24A     -0.500287  
      25A     -0.472700    26A     -0.460311    27A     -0.445405  
      28A     -0.426909    29A     -0.422527    30A     -0.410254  
      31A     -0.406179    32A     -0.329152    33A     -0.318363  

    Virtual:                                                              

      34A      0.066142    35A      0.069123    36A      0.120094  
      37A      0.135537    38A      0.144387    39A      0.159423  
      40A      0.169776    41A      0.175565    42A      0.192683  
      43A      0.205274    44A      0.212915    45A      0.217046  
      46A      0.223962    47A      0.230779    48A      0.237326  
      49A      0.298678    50A      0.307037    51A      0.316740  
      52A      0.359396    53A      0.367827    54A      0.371301  
      55A      0.381968    56A      0.393424    57A      0.404840  
      58A      0.412824    59A      0.424208    60A      0.440165  
      61A      0.472932    62A      0.483490    63A      0.496046  
      64A      0.501239    65A      0.506886    66A      0.525717  
      67A      0.541238    68A      0.555718    69A      0.564719  
      70A      0.575892    71A      0.586888    72A      0.602264  
      73A      0.632509    74A      0.640526    75A      0.650760  
      76A      0.667988    77A      0.684197    78A      0.685633  
      79A      0.688833    80A      0.692909    81A      0.701258  
      82A      0.701897    83A      0.707286    84A      0.721367  
      85A      0.728013    86A      0.737154    87A      0.750473  
      88A      0.757575    89A      0.766448    90A      0.787868  
      91A      0.810848    92A      0.855050    93A      0.868768  
      94A      0.890570    95A      0.921261    96A      0.949696  
      97A      0.967030    98A      0.975266    99A      1.013818  
     100A      1.053698   101A      1.105339   102A      1.143601  
     103A      1.161869   104A      1.221775   105A      1.373544  
     106A      2.303724   107A      2.336684   108A      2.350190  
     109A      2.358937   110A      2.369718   111A      2.387280  
     112A      2.396965   113A      2.406316   114A      2.419277  
     115A      2.455659   116A      2.461697   117A      2.617300  
     118A      2.645673   119A      2.676134   120A      2.704138  
     121A      2.774831   122A      2.786317   123A      2.823647  
     124A      2.841543   125A      2.911152   126A      2.917056  
     127A      2.936766   128A      2.960640   129A      2.966909  
     130A      2.984985   131A      2.995620   132A      3.052344  
     133A      3.083136   134A      3.118537   135A      3.155696  
     136A      3.183234   137A      3.209506   138A      3.230033  
     139A      3.285277   140A      3.317863   141A      3.361676  
     142A      3.399026   143A      3.420991   144A      3.545396  
     145A     23.255156   146A     23.474619   147A     23.489297  
     148A     23.529451   149A     23.645820   150A     23.734247  
     151A     23.756352   152A     23.770367   153A     24.027383  

    Final Occupation by Irrep:
              A 
    DOCC [    33 ]

  @DF-RKS Final Energy:  -350.06281863951074

   => Energetics <=

    Nuclear Repulsion Energy =            412.0749682421418356
    One-Electron Energy =               -1286.7032725462518101
    Two-Electron Energy =                 560.9739399618058542
    DFT Exchange-Correlation Energy =     -36.3968680845856198
    Empirical Dispersion Energy =          -0.0115862126209700
    VV10 Nonlocal Energy =                  0.0000000000000000
    Total Energy =                       -350.0628186395106809

Computation Completed


Properties will be evaluated at   0.000000,   0.000000,   0.000000 [a0]

Properties computed using the SCF density matrix

  Nuclear Dipole Moment: [e a0]
     X:    -9.7400      Y:    -1.0886      Z:     0.2332

  Electronic Dipole Moment: [e a0]
     X:     9.5949      Y:     1.0718      Z:    -0.2554

  Dipole Moment: [e a0]
     X:    -0.1451      Y:    -0.0168      Z:    -0.0222     Total:     0.1478

  Dipole Moment: [D]
     X:    -0.3689      Y:    -0.0428      Z:    -0.0565     Total:     0.3756


*** tstop() called on daniele-Precision-5750 at Wed Jun  2 00:15:28 2021
Module time:
	user time   =      65.71 seconds =       1.10 minutes
	system time =       1.55 seconds =       0.03 minutes
	total time  =          8 seconds =       0.13 minutes
Total time:
	user time   =     183.07 seconds =       3.05 minutes
	system time =       4.54 seconds =       0.08 minutes
	total time  =         24 seconds =       0.40 minutes

*** tstart() called on daniele-Precision-5750
*** at Wed Jun  2 00:15:28 2021


         ------------------------------------------------------------
                                   SCF GRAD                          
                          Rob Parrish, Justin Turney,                
                       Andy Simmonett, and Alex Sokolov              
         ------------------------------------------------------------

  ==> Geometry <==

    Molecular point group: c1
    Full point group: C1

    Geometry (in Angstrom), charge = 0, multiplicity = 1:

       Center              X                  Y                   Z               Mass       
    ------------   -----------------  -----------------  -----------------  -----------------
         C           -1.270837699317    -0.862169306631     0.506187345008    12.000000000000
         C           -2.343548780988    -0.282931978180    -0.437983380734    12.000000000000
         C            0.106862351889    -0.304410338998     0.237423976308    12.000000000000
         C           -3.731660805379    -0.229893005404     0.202299057956    12.000000000000
         C            0.518296421497     0.885768297893     0.838909459486    12.000000000000
         C            0.975215622064    -0.937784459660    -0.653229071456    12.000000000000
         C            1.767153987744     1.431846677295     0.556954780455    12.000000000000
         C            2.225338834652    -0.394872756953    -0.938822798411    12.000000000000
         C            2.625760120280     0.791971387084    -0.332628995624    12.000000000000
         H           -1.255503786228    -1.952871459246     0.433029762906     1.007825032230
         H           -1.544643367474    -0.624906380375     1.539800563352     1.007825032230
         H           -2.046994587955     0.731034099167    -0.723737266120     1.007825032230
         H           -2.370136329651    -0.864707172662    -1.363819829768     1.007825032230
         H           -3.716916374292     0.399439519989     1.094734229923     1.007825032230
         H           -4.467129306367     0.182342136715    -0.491219441818     1.007825032230
         H           -4.071188932041    -1.225401702056     0.499584596489     1.007825032230
         H           -0.144042312358     1.389144566735     1.532412551401     1.007825032230
         H            0.670175458479    -1.862186634169    -1.127424715430     1.007825032230
         H            2.071219791198     2.353892852923     1.033858204058     1.007825032230
         H            2.886617299170    -0.899120310689    -1.630688388794     1.007825032230
         H            3.598881251958     1.212132774063    -0.547801056140     1.007825032230

  Nuclear repulsion =  412.074968242141836

  ==> Basis Set <==

  Basis Set: 6-311G
    Blend: 6-311G
    Number of shells: 99
    Number of basis function: 153
    Number of Cartesian functions: 153
    Spherical Harmonics?: true
    Max angular momentum: 1

  ==> DFJKGrad: Density-Fitted SCF Gradients <==

    Gradient:                    1
    J tasked:                  Yes
    K tasked:                  Yes
    wK tasked:                 Yes
    Omega:               2.000E-01
    OpenMP threads:              8
    Integrals threads:           8
    Memory [MiB]:              500
    Schwarz Cutoff:          0E+00
    Fitting Condition:       1E-10

   => Auxiliary Basis Set <=

  Basis Set: (6-311G AUX)
    Blend: CC-PVTZ-JKFIT
    Number of shells: 345
    Number of basis function: 1071
    Number of Cartesian functions: 1284
    Spherical Harmonics?: true
    Max angular momentum: 4

  ==> DFT Potential <==

   => Composite Functional: WB97X-D <= 

    wB97X-D Hyb-GGA Exchange-Correlation Functional

    J.-D. Chai and M. Head-Gordon, Phys. Chem. Chem. Phys. 10, 6615 (2008)

    Deriv               =              1
    GGA                 =           TRUE
    Meta                =          FALSE

    Exchange Hybrid     =           TRUE
    MP2 Hybrid          =          FALSE

   => Exchange-Correlation Functionals <=

    1.0000   wB97D range-separated functional

   => Exact (HF) Exchange <=

    0.7780            HF,LR [omega = 0.2000]
    0.2220               HF 

   => Molecular Quadrature <=

    Radial Scheme          =       TREUTLER
    Pruning Scheme         =           FLAT
    Nuclear Scheme         =       TREUTLER

    BS radius alpha        =              1
    Pruning alpha          =              1
    Radial Points          =             75
    Spherical Points       =            302
    Total Points           =         470050
    Total Blocks           =           3450
    Max Points             =            256
    Max Functions          =            143


  -Total Gradient:
     Atom            X                  Y                   Z
    ------   -----------------  -----------------  -----------------
       1       -0.001059827867    -0.000860196759    -0.003828814178
       2       -0.000080579075    -0.003366635593     0.000738961290
       3        0.002091927212     0.003827231013     0.001718036678
       4        0.000865569109     0.002486651303     0.001793238952
       5       -0.000891665746    -0.002144719260    -0.000759138376
       6       -0.001145934150     0.000616153061     0.001370638063
       7       -0.000059841090    -0.001294530343    -0.001019570492
       8       -0.000657019985     0.001024439037     0.000827473538
       9       -0.001378142835    -0.000526186990     0.000296912503
      10        0.000491664781    -0.000128227726    -0.000140059962
      11        0.000501603301     0.000141696807     0.000351399073
      12        0.000223153808     0.000248374324    -0.000136941012
      13        0.000082784790    -0.000277517442    -0.000057252112
      14        0.000327281403    -0.000176081812    -0.000232495945
      15        0.000357991113     0.000179285556    -0.000459345900
      16       -0.000004438231    -0.000088811729    -0.000216480811
      17        0.000277070955     0.000110757481    -0.000284127654
      18        0.000271636301     0.000368226302    -0.000100622915
      19       -0.000087266731    -0.000189573283    -0.000123464242
      20       -0.000063838417     0.000140162273     0.000130261352
      21        0.000049563405    -0.000126021889     0.000128231042


*** tstop() called on daniele-Precision-5750 at Wed Jun  2 00:15:33 2021
Module time:
	user time   =      36.19 seconds =       0.60 minutes
	system time =       0.44 seconds =       0.01 minutes
	total time  =          5 seconds =       0.08 minutes
Total time:
	user time   =     219.27 seconds =       3.65 minutes
	system time =       4.98 seconds =       0.08 minutes
	total time  =         29 seconds =       0.48 minutes

			-----------------------------------------
			 OPTKING 2.0: for geometry optimizations 
			  - R.A. King,  Bethel University        
			-----------------------------------------
	At level 1: Red. Int., RFO, no backsteps, dynamic trust

	Previous internal coordinate definitions found.
	---Fragment 1 Geometry and Gradient---
	 C          -2.4015352016       -1.6292638633        0.9565554502
	 C          -4.4286653577       -0.5346639509       -0.8276686371
	 C           0.2019405782       -0.5752521705        0.4486662908
	 C          -7.0518169153       -0.4344348184        0.3822898150
	 C           0.9794382884        1.6738594936        1.5853091225
	 C           1.8428904390       -1.7721557935       -1.2344240422
	 C           3.3394370583        2.7057980737        1.0524919993
	 C           4.2052809338       -0.7462013650       -1.7741179693
	 C           4.9619674985        1.4966090208       -0.6285777031
	 H          -2.3725583054       -3.6903922162        0.8183076561
	 H          -2.9189529260       -1.1809019130        2.9098013526
	 H          -3.8682591515        1.3814542358       -1.3676652198
	 H          -4.4789085430       -1.6340597351       -2.5772459627
	 H          -7.0239539786        0.7548312965        2.0687478747
	 H          -8.4416509560        0.3445766995       -0.9282702125
	 H          -7.6934320866       -2.3156736106        0.9440780639
	 H          -0.2722005208        2.6251027798        2.8958400334
	 H           1.2664480725       -3.5190227331       -2.1305239392
	 H           3.9140381510        4.4482128207        1.9537088582
	 H           5.4549161244       -1.6990911410       -3.0815544508
	 H           6.8008999242        2.2905989707       -1.0351939673
	            -0.0010598279       -0.0008601968       -0.0038288142
	            -0.0000805791       -0.0033666356        0.0007389613
	             0.0020919272        0.0038272310        0.0017180367
	             0.0008655691        0.0024866513        0.0017932390
	            -0.0008916657       -0.0021447193       -0.0007591384
	            -0.0011459342        0.0006161531        0.0013706381
	            -0.0000598411       -0.0012945303       -0.0010195705
	            -0.0006570200        0.0010244390        0.0008274735
	            -0.0013781428       -0.0005261870        0.0002969125
	             0.0004916648       -0.0001282277       -0.0001400600
	             0.0005016033        0.0001416968        0.0003513991
	             0.0002231538        0.0002483743       -0.0001369410
	             0.0000827848       -0.0002775174       -0.0000572521
	             0.0003272814       -0.0001760818       -0.0002324959
	             0.0003579911        0.0001792856       -0.0004593459
	            -0.0000044382       -0.0000888117       -0.0002164808
	             0.0002770710        0.0001107575       -0.0002841277
	             0.0002716363        0.0003682263       -0.0001006229
	            -0.0000872667       -0.0001895733       -0.0001234642
	            -0.0000638384        0.0001401623        0.0001302614
	             0.0000495634       -0.0001260219        0.0001282310

	---Fragment 1 Intrafragment Coordinates---
	 - Coordinate -           - BOHR/RAD -       - ANG/DEG -
	 R(1,2)           =         2.913908	       1.541974
	 R(1,3)           =         2.854291	       1.510426
	 R(1,10)          =         2.065963	       1.093260
	 R(1,11)          =         2.069763	       1.095271
	 R(2,4)           =         2.890496	       1.529585
	 R(2,12)          =         2.068130	       1.094407
	 R(2,13)          =         2.066934	       1.093774
	 R(3,5)           =         2.637226	       1.395560
	 R(3,6)           =         2.637819	       1.395874
	 R(4,14)          =         2.063800	       1.092116
	 R(4,15)          =         2.063023	       1.091705
	 R(4,16)          =         2.065511	       1.093021
	 R(5,7)           =         2.630282	       1.391885
	 R(5,17)          =         2.046694	       1.083064
	 R(6,8)           =         2.631490	       1.392525
	 R(6,18)          =         2.046173	       1.082788
	 R(7,9)           =         2.630730	       1.392122
	 R(7,19)          =         2.044106	       1.081694
	 R(8,9)           =         2.629646	       1.391548
	 R(8,20)          =         2.044255	       1.081773
	 R(9,21)          =         2.043876	       1.081573
	 B(1,2,4)         =         1.969303	     112.832757
	 B(1,2,12)        =         1.895898	     108.626928
	 B(1,2,13)        =         1.912830	     109.597096
	 B(1,3,5)         =         2.102667	     120.473921
	 B(1,3,6)         =         2.109939	     120.890611
	 B(2,1,3)         =         1.968034	     112.760047
	 B(2,1,10)        =         1.921492	     110.093367
	 B(2,1,11)        =         1.899227	     108.817682
	 B(2,4,14)        =         1.928146	     110.474624
	 B(2,4,15)        =         1.937512	     111.011279
	 B(2,4,16)        =         1.943541	     111.356680
	 B(3,1,10)        =         1.921659	     110.102952
	 B(3,1,11)        =         1.892254	     108.418157
	 B(3,5,7)         =         2.108081	     120.784171
	 B(3,5,17)        =         2.085245	     119.475720
	 B(3,6,8)         =         2.108804	     120.825545
	 B(3,6,18)        =         2.084671	     119.442835
	 B(4,2,12)        =         1.899780	     108.849355
	 B(4,2,13)        =         1.929127	     110.530821
	 B(5,3,6)         =         2.069826	     118.592268
	 B(5,7,9)         =         2.097282	     120.165382
	 B(5,7,19)        =         2.091316	     119.823599
	 B(6,8,9)         =         2.096136	     120.099731
	 B(6,8,20)        =         2.092336	     119.882031
	 B(7,5,17)        =         2.089859	     119.740091
	 B(7,9,8)         =         2.086239	     119.532717
	 B(7,9,21)        =         2.098426	     120.230946
	 B(8,6,18)        =         2.089710	     119.731591
	 B(8,9,21)        =         2.098511	     120.235815
	 B(9,7,19)        =         2.094581	     120.010642
	 B(9,8,20)        =         2.094708	     120.017939
	 B(10,1,11)       =         1.857481	     106.425834
	 B(12,2,13)       =         1.852897	     106.163200
	 B(14,4,15)       =         1.886632	     108.096041
	 B(14,4,16)       =         1.882603	     107.865231
	 B(15,4,16)       =         1.883289	     107.904495
	*D(1,2,4,14)      =         1.050792	      60.205970
	 D(1,2,4,15)      =        -3.139633	    -179.887738
	 D(1,2,4,16)      =        -1.040846	     -59.636107
	 D(1,3,5,7)       =        -3.099198	    -177.570938
	 D(1,3,5,17)      =         0.041539	       2.380025
	 D(1,3,6,8)       =         3.098512	     177.531684
	 D(1,3,6,18)      =        -0.042004	      -2.406643
	*D(2,1,3,5)       =         1.510915	      86.569077
	*D(2,1,3,6)       =        -1.588367	     -91.006744
	*D(3,1,2,4)       =        -2.625828	    -150.448850
	 D(3,1,2,12)      =        -0.517705	     -29.662318
	 D(3,1,2,13)      =         1.499609	      85.921257
	 D(3,5,7,9)       =        -0.001320	      -0.075620
	 D(3,5,7,19)      =        -3.139014	    -179.852267
	 D(3,6,8,9)       =         0.002333	       0.133669
	 D(3,6,8,20)      =         3.140457	     179.934940
	 D(4,2,1,10)      =         1.503761	      86.159186
	 D(4,2,1,11)      =        -0.525713	     -30.121160
	 D(5,3,1,10)      =        -2.618767	    -150.044280
	 D(5,3,1,11)      =        -0.593196	     -33.987637
	 D(5,3,6,8)       =        -0.001551	      -0.088855
	 D(5,3,6,18)      =         3.141118	     179.972819
	 D(5,7,9,8)       =         0.002062	       0.118118
	 D(5,7,9,21)      =        -3.134956	    -179.619736
	 D(6,3,1,10)      =         0.565136	      32.379898
	 D(6,3,1,11)      =         2.590706	     148.436542
	 D(6,3,5,7)       =         0.001045	       0.059853
	 D(6,3,5,17)      =        -3.141404	    -179.989185
	 D(6,8,9,7)       =        -0.002561	      -0.146742
	 D(6,8,9,21)      =         3.134456	     179.591098
	 D(7,9,8,20)      =        -3.140681	    -179.947740
	 D(8,9,7,19)      =         3.139749	     179.894344
	 D(9,7,5,17)      =         3.141131	     179.973546
	 D(9,8,6,18)      =        -3.140339	    -179.928181
	 D(10,1,2,12)     =        -2.671301	    -153.054282
	 D(10,1,2,13)     =        -0.653987	     -37.470707
	 D(11,1,2,12)     =         1.582409	      90.665372
	 D(11,1,2,13)     =        -2.683462	    -153.751054
	 D(12,2,4,14)     =        -1.055114	     -60.453602
	 D(12,2,4,15)     =         1.037645	      59.452691
	 D(12,2,4,16)     =         3.136432	     179.704322
	 D(13,2,4,14)     =        -3.083681	    -176.681912
	 D(13,2,4,15)     =        -0.990921	     -56.775620
	 D(13,2,4,16)     =         1.107865	      63.476011
	 D(17,5,7,19)     =         0.003437	       0.196899
	 D(18,6,8,20)     =        -0.002215	      -0.126911
	 D(19,7,9,21)     =         0.002731	       0.156491
	 D(20,8,9,21)     =        -0.003663	      -0.209900

	Current energy   :      -350.0628186395

	Energy change for the previous step:
		Projected    :        -0.0046550348
		Actual       :        -0.0021972907

	Performing BFGS update.
	Previous computed or guess Hessian on step 1.
	Steps to be used in Hessian update: 1
	Taking RFO optimization step.
	Going to follow RFO solution 1.
	Using RFO vector 1.
	Norm of target step-size    0.03207
	Projected energy change by RFO approximation:        -0.0001373783

	Back-transformation to cartesian coordinates...
	Successfully converged to displaced geometry.

	Back-transformation to cartesian coordinates to adjust frozen coordinates...
	Successfully converged to displaced geometry.

	--- Internal Coordinate Step in ANG or DEG, aJ/ANG or AJ/DEG ---
	 ---------------------------------------------------------------------------
	   Coordinate                Previous        Force       Change         New 
	   ----------                --------       ------       ------       ------
	    1 R(1,2)          =      1.541974     0.020592     0.004216     1.546190
	    2 R(1,3)          =      1.510426     0.009961     0.001678     1.512104
	    3 R(1,10)         =      1.093260    -0.001170    -0.000257     1.093004
	    4 R(1,11)         =      1.095271    -0.001994    -0.000378     1.094893
	    5 R(2,4)          =      1.529585     0.007501     0.001374     1.530959
	    6 R(2,12)         =      1.094407    -0.002663    -0.000512     1.093895
	    7 R(2,13)         =      1.093774    -0.001540    -0.000316     1.093458
	    8 R(3,5)          =      1.395560     0.026001     0.003287     1.398847
	    9 R(3,6)          =      1.395874     0.020199     0.002502     1.398375
	   10 R(4,14)         =      1.092116     0.002268     0.000344     1.092460
	   11 R(4,15)         =      1.091705    -0.000932    -0.000202     1.091503
	   12 R(4,16)         =      1.093021    -0.000226    -0.000067     1.092955
	   13 R(5,7)          =      1.391885     0.009758     0.001085     1.392970
	   14 R(5,17)         =      1.083064     0.002474     0.000335     1.083399
	   15 R(6,8)          =      1.392525     0.010155     0.001125     1.393649
	   16 R(6,18)         =      1.082788     0.002832     0.000390     1.083179
	   17 R(7,9)          =      1.392122     0.014324     0.001661     1.393783
	   18 R(7,19)         =      1.081694     0.002008     0.000247     1.081941
	   19 R(8,9)          =      1.391548     0.014791     0.001704     1.393253
	   20 R(8,20)         =      1.081773     0.001543     0.000171     1.081944
	   21 R(9,21)         =      1.081573     0.000269    -0.000040     1.081532
	   22 B(1,2,4)        =    112.832757     0.000010     0.027031   112.859789
	   23 B(1,2,12)       =    108.626928     0.000006    -0.032505   108.594423
	   24 B(1,2,13)       =    109.597096     0.000000     0.115015   109.712111
	   25 B(1,3,5)        =    120.473921     0.000036     0.089753   120.563675
	   26 B(1,3,6)        =    120.890611     0.000030     0.079911   120.970521
	   27 B(2,1,3)        =    112.760047     0.000052     0.203013   112.963059
	   28 B(2,1,10)       =    110.093367    -0.000034    -0.138473   109.954894
	   29 B(2,1,11)       =    108.817682    -0.000043    -0.304018   108.513664
	   30 B(2,4,14)       =    110.474624     0.000022     0.068539   110.543163
	   31 B(2,4,15)       =    111.011279     0.000059     0.331434   111.342713
	   32 B(2,4,16)       =    111.356680    -0.000007    -0.090975   111.265704
	   33 B(3,1,10)       =    110.102952     0.000006     0.166989   110.269941
	   34 B(3,1,11)       =    108.418157     0.000013     0.154237   108.572394
	   35 B(3,5,7)        =    120.784171     0.000031     0.103564   120.887735
	   36 B(3,5,17)       =    119.475720    -0.000034    -0.138415   119.337305
	   37 B(3,6,8)        =    120.825545     0.000025     0.079452   120.904997
	   38 B(3,6,18)       =    119.442835    -0.000033    -0.137042   119.305793
	   39 B(4,2,12)       =    108.849355    -0.000011    -0.113507   108.735848
	   40 B(4,2,13)       =    110.530821    -0.000005     0.012452   110.543273
	   41 B(5,3,6)        =    118.592268    -0.000066    -0.169519   118.422750
	   42 B(5,7,9)        =    120.165382    -0.000010    -0.038638   120.126745
	   43 B(5,7,19)       =    119.823599     0.000005     0.019159   119.842758
	   44 B(6,8,9)        =    120.099731     0.000006     0.001680   120.101411
	   45 B(6,8,20)       =    119.882031    -0.000008    -0.023422   119.858609
	   46 B(7,5,17)       =    119.740091     0.000003     0.034425   119.774516
	   47 B(7,9,8)        =    119.532717     0.000015     0.023499   119.556216
	   48 B(7,9,21)       =    120.230946    -0.000010    -0.022567   120.208379
	   49 B(8,6,18)       =    119.731591     0.000008     0.057243   119.788835
	   50 B(8,9,21)       =    120.235815    -0.000005    -0.000859   120.234955
	   51 B(9,7,19)       =    120.010642     0.000005     0.019605   120.030247
	   52 B(9,8,20)       =    120.017939     0.000002     0.021942   120.039881
	   53 B(10,1,11)      =    106.425834     0.000003    -0.103133   106.322701
	   54 B(12,2,13)      =    106.163200    -0.000001    -0.014488   106.148712
	   55 B(14,4,15)      =    108.096041    -0.000036    -0.025707   108.070334
[...]
	 R(1,3)           =         2.857462	       1.512104
	 R(1,10)          =         2.065477	       1.093004
	 R(1,11)          =         2.069048	       1.094893
	 R(2,4)           =         2.893094	       1.530959
	 R(2,12)          =         2.067162	       1.093895
	 R(2,13)          =         2.066336	       1.093458
	 R(3,5)           =         2.643439	       1.398847
	 R(3,6)           =         2.642546	       1.398375
	 R(4,14)          =         2.064450	       1.092460
	 R(4,15)          =         2.062642	       1.091503
	 R(4,16)          =         2.065385	       1.092955
	 R(5,7)           =         2.632333	       1.392970
	 R(5,17)          =         2.047327	       1.083399
	 R(6,8)           =         2.633615	       1.393649
	 R(6,18)          =         2.046911	       1.083179
	 R(7,9)           =         2.633868	       1.393783
	 R(7,19)          =         2.044572	       1.081941
	 R(8,9)           =         2.632866	       1.393253
	 R(8,20)          =         2.044577	       1.081944
	 R(9,21)          =         2.043800	       1.081532
	 B(1,2,4)         =         1.969775	     112.859789
	 B(1,2,12)        =         1.895330	     108.594423
	 B(1,2,13)        =         1.914838	     109.712111
	 B(1,3,5)         =         2.104233	     120.563675
	 B(1,3,6)         =         2.111334	     120.970521
	 B(2,1,3)         =         1.971577	     112.963059
	 B(2,1,10)        =         1.919075	     109.954894
	 B(2,1,11)        =         1.893921	     108.513664
	 B(2,4,14)        =         1.929342	     110.543163
	 B(2,4,15)        =         1.943297	     111.342713
	 B(2,4,16)        =         1.941953	     111.265704
	 B(3,1,10)        =         1.924574	     110.269941
	 B(3,1,11)        =         1.894946	     108.572394
	 B(3,5,7)         =         2.109889	     120.887735
	 B(3,5,17)        =         2.082829	     119.337305
	 B(3,6,8)         =         2.110190	     120.904997
	 B(3,6,18)        =         2.082279	     119.305793
	 B(4,2,12)        =         1.897799	     108.735848
	 B(4,2,13)        =         1.929344	     110.543273
	 B(5,3,6)         =         2.066867	     118.422750
	 B(5,7,9)         =         2.096607	     120.126745
	 B(5,7,19)        =         2.091651	     119.842758
	 B(6,8,9)         =         2.096165	     120.101411
	 B(6,8,20)        =         2.091927	     119.858609
	 B(7,5,17)        =         2.090460	     119.774516
	 B(7,9,8)         =         2.086650	     119.556216
	 B(7,9,21)        =         2.098032	     120.208379
	 B(8,6,18)        =         2.090710	     119.788835
	 B(8,9,21)        =         2.098496	     120.234955
	 B(9,7,19)        =         2.094923	     120.030247
	 B(9,8,20)        =         2.095091	     120.039881
	 B(10,1,11)       =         1.855681	     106.322701
	 B(12,2,13)       =         1.852645	     106.148712
	 B(14,4,15)       =         1.886183	     108.070334
	 B(14,4,16)       =         1.878705	     107.641885
	 B(15,4,16)       =         1.881926	     107.826403
	*D(1,2,4,14)      =         1.050792	      60.205970
	 D(1,2,4,15)      =        -3.135609	    -179.657187
	 D(1,2,4,16)      =        -1.035704	     -59.341467
	 D(1,3,5,7)       =        -3.098887	    -177.553137
	 D(1,3,5,17)      =         0.046947	       2.689884
	 D(1,3,6,8)       =         3.098221	     177.514976
	 D(1,3,6,18)      =        -0.047269	      -2.708321
	*D(2,1,3,5)       =         1.510915	      86.569077
	*D(2,1,3,6)       =        -1.588367	     -91.006744
	*D(3,1,2,4)       =        -2.625828	    -150.448850
	 D(3,1,2,12)      =        -0.520291	     -29.810506
	 D(3,1,2,13)      =         1.497498	      85.800288
	 D(3,5,7,9)       =         0.000432	       0.024747
	 D(3,5,7,19)      =        -3.137984	    -179.793250
	 D(3,6,8,9)       =         0.000552	       0.031607
	 D(3,6,8,20)      =         3.140149	     179.917265
	 D(4,2,1,10)      =         1.499239	      85.900044
	 D(4,2,1,11)      =        -0.523704	     -30.006049
	 D(5,3,1,10)      =        -2.617186	    -149.953696
	 D(5,3,1,11)      =        -0.590623	     -33.840182
	 D(5,3,6,8)       =        -0.001947	      -0.111579
	 D(5,3,6,18)      =         3.135748	     179.665123
	 D(5,7,9,8)       =        -0.001855	      -0.106275
	 D(5,7,9,21)      =        -3.139202	    -179.863022
	 D(6,3,1,10)      =         0.566717	      32.470483
	 D(6,3,1,11)      =         2.593280	     148.583997
	 D(6,3,5,7)       =         0.001456	       0.083437
	 D(6,3,5,17)      =        -3.135895	    -179.673543
	 D(6,8,9,7)       =         0.001369	       0.078412
	 D(6,8,9,21)      =         3.138715	     179.835094
	 D(7,9,8,20)      =        -3.138225	    -179.807038
	 D(8,9,7,19)      =         3.136555	     179.711379
	 D(9,7,5,17)      =         3.137765	     179.780673
	 D(9,8,6,18)      =        -3.137125	    -179.744026
	 D(10,1,2,12)     =        -2.678410	    -153.461612
	 D(10,1,2,13)     =        -0.660621	     -37.850818
	 D(11,1,2,12)     =         1.581832	      90.632295
	 D(11,1,2,13)     =        -2.683564	    -153.756911
	 D(12,2,4,14)     =        -1.053334	     -60.351586
	 D(12,2,4,15)     =         1.043450	      59.785257
	 D(12,2,4,16)     =        -3.139830	    -179.899023
	 D(13,2,4,14)     =        -3.080559	    -176.503036
	 D(13,2,4,15)     =        -0.983776	     -56.366192
	 D(13,2,4,16)     =         1.116130	      63.949528
	 D(17,5,7,19)     =        -0.000651	      -0.037324
	 D(18,6,8,20)     =         0.002472	       0.141633
	 D(19,7,9,21)     =        -0.000792	      -0.045368
	 D(20,8,9,21)     =        -0.000879	      -0.050356

	Current energy   :      -350.0628740461

	Energy change for the previous step:
		Projected    :        -0.0001373783
		Actual       :        -0.0000554065

	Performing BFGS update.
	Previous computed or guess Hessian on step 1.
	Steps to be used in Hessian update: 2 1
	Taking RFO optimization step.
	Going to follow RFO solution 1.
	Using RFO vector 1.
	Norm of target step-size    0.00732
	Projected energy change by RFO approximation:        -0.0000029080

	Back-transformation to cartesian coordinates...
	Successfully converged to displaced geometry.

	Back-transformation to cartesian coordinates to adjust frozen coordinates...
	Successfully converged to displaced geometry.

	--- Internal Coordinate Step in ANG or DEG, aJ/ANG or AJ/DEG ---
	 ---------------------------------------------------------------------------
	   Coordinate                Previous        Force       Change         New 
	   ----------                --------       ------       ------       ------
	    1 R(1,2)          =      1.546190     0.001515     0.000504     1.546694
	    2 R(1,3)          =      1.512104    -0.004574    -0.001099     1.511005
	    3 R(1,10)         =      1.093004     0.000105    -0.000014     1.092989
	    4 R(1,11)         =      1.094893     0.000112    -0.000011     1.094882
	    5 R(2,4)          =      1.530959    -0.000858    -0.000200     1.530759
	    6 R(2,12)         =      1.093895     0.000245     0.000002     1.093897
	    7 R(2,13)         =      1.093458    -0.000457    -0.000126     1.093332
	    8 R(3,5)          =      1.398847     0.001696     0.000320     1.399168
	    9 R(3,6)          =      1.398375     0.001196     0.000208     1.398584
	   10 R(4,14)         =      1.092460     0.000921     0.000180     1.092640
	   11 R(4,15)         =      1.091503    -0.000600    -0.000144     1.091359
	   12 R(4,16)         =      1.092955     0.001264     0.000232     1.093187
	   13 R(5,7)          =      1.392970    -0.000940    -0.000174     1.392797
	   14 R(5,17)         =      1.083399     0.000780     0.000135     1.083533
	   15 R(6,8)          =      1.393649    -0.000334    -0.000079     1.393570
	   16 R(6,18)         =      1.083179     0.000792     0.000138     1.083316
	   17 R(7,9)          =      1.393783     0.001339     0.000204     1.393987
	   18 R(7,19)         =      1.081941     0.000249     0.000025     1.081966
	   19 R(8,9)          =      1.393253     0.000235     0.000037     1.393289
	   20 R(8,20)         =      1.081944     0.000336     0.000038     1.081982
	   21 R(9,21)         =      1.081532     0.000447     0.000049     1.081581
	   22 B(1,2,4)        =    112.859789    -0.000026    -0.112061   112.747728
	   23 B(1,2,12)       =    108.594423     0.000003    -0.019749   108.574674
	   24 B(1,2,13)       =    109.712111     0.000006    -0.003336   109.708775
	   25 B(1,3,5)        =    120.563675     0.000000     0.002595   120.566270
	   26 B(1,3,6)        =    120.970521     0.000004     0.016734   120.987256
	   27 B(2,1,3)        =    112.963059    -0.000010    -0.035601   112.927459
	   28 B(2,1,10)       =    109.954894    -0.000005    -0.057986   109.896908
	   29 B(2,1,11)       =    108.513664    -0.000003    -0.059245   108.454419
	   30 B(2,4,14)       =    110.543163     0.000005     0.026201   110.569364
	   31 B(2,4,15)       =    111.342713    -0.000003     0.001700   111.344412
	   32 B(2,4,16)       =    111.265704     0.000004     0.016485   111.282190
	   33 B(3,1,10)       =    110.269941     0.000009     0.060594   110.330535
	   34 B(3,1,11)       =    108.572394     0.000006     0.049098   108.621492
	   35 B(3,5,7)        =    120.887735     0.000000     0.007296   120.895031
	   36 B(3,5,17)       =    119.337305    -0.000007    -0.044965   119.292340
	   37 B(3,6,8)        =    120.904997     0.000002     0.011482   120.916479
	   38 B(3,6,18)       =    119.305793    -0.000006    -0.038247   119.267546
	   39 B(4,2,12)       =    108.735848     0.000012     0.066491   108.802339
	   40 B(4,2,13)       =    110.543273     0.000009     0.029031   110.572303
	   41 B(5,3,6)        =    118.422750    -0.000004    -0.019313   118.403437
	   42 B(5,7,9)        =    120.126745     0.000001     0.001663   120.128408
	   43 B(5,7,19)       =    119.842758    -0.000001    -0.003380   119.839378
	   44 B(6,8,9)        =    120.101411     0.000000    -0.000273   120.101139
	   45 B(6,8,20)       =    119.858609    -0.000001    -0.006624   119.851985
	   46 B(7,5,17)       =    119.774516     0.000007     0.037895   119.812411
	   47 B(7,9,8)        =    119.556216     0.000000    -0.000771   119.555445
	   48 B(7,9,21)       =    120.208379    -0.000000     0.000757   120.209136
	   49 B(8,6,18)       =    119.788835     0.000004     0.026965   119.815800
	   50 B(8,9,21)       =    120.234955    -0.000000     0.000303   120.235259
	   51 B(9,7,19)       =    120.030247    -0.000000     0.001641   120.031888
	   52 B(9,8,20)       =    120.039881     0.000001     0.006836   120.046718
	   53 B(10,1,11)      =    106.322701     0.000002     0.047647   106.370347
	   54 B(12,2,13)      =    106.148712    -0.000002     0.049374   106.198087
	   55 B(14,4,15)      =    108.070334    -0.000001    -0.002762   108.067571
	   56 B(14,4,16)      =    107.641885    -0.000005    -0.036444   107.605441
	   57 B(15,4,16)      =    107.826403    -0.000001    -0.007743   107.818660
	   58 *D(1,2,4,14)    =     60.205970     0.000000    -0.000000    60.205970
	   59 D(1,2,4,15)     =   -179.657187     0.000000     0.015186  -179.642001
	   60 D(1,2,4,16)     =    -59.341467    -0.000000     0.017718   -59.323748
	   61 D(1,3,5,7)      =   -177.553137    -0.000000    -0.007556  -177.560692
	   62 D(1,3,5,17)     =      2.689884    -0.000001    -0.080756     2.609128
	   63 D(1,3,6,8)      =    177.514976     0.000000     0.015994   177.530971
	   64 D(1,3,6,18)     =     -2.708321     0.000001     0.086710    -2.621611
	   65 *D(2,1,3,5)     =     86.569077     0.000000     0.000000    86.569077
	   66 *D(2,1,3,6)     =    -91.006744    -0.000000    -0.000000   -91.006744
	   67 *D(3,1,2,4)     =   -150.448850    -0.000000    -0.000000  -150.448850
	   68 D(3,1,2,12)     =    -29.810506     0.000000    -0.001541   -29.812047
	   69 D(3,1,2,13)     =     85.800288     0.000001     0.044551    85.844839
	   70 D(3,5,7,9)      =      0.024747    -0.000000    -0.045441    -0.020694
	   71 D(3,5,7,19)     =   -179.793250    -0.000000    -0.019703  -179.812953
	   72 D(3,6,8,9)      =      0.031607     0.000000     0.027840     0.059447
	   73 D(3,6,8,20)     =    179.917265    -0.000000    -0.002781   179.914484
	   74 D(4,2,1,10)     =     85.900044    -0.000000    -0.009836    85.890207
	   75 D(4,2,1,11)     =    -30.006049    -0.000000    -0.001591   -30.007640
	   76 D(5,3,1,10)     =   -149.953696    -0.000001    -0.055836  -150.009532
	   77 D(5,3,1,11)     =    -33.840182     0.000001     0.063565   -33.776616
	   78 D(5,3,6,8)      =     -0.111579     0.000000     0.015498    -0.096082
	   79 D(5,3,6,18)     =    179.665123     0.000001     0.086214   179.751337
	   80 D(5,7,9,8)      =     -0.106275     0.000000     0.088421    -0.017854
	   81 D(5,7,9,21)     =   -179.863022     0.000000    -0.009549  -179.872571
	   82 D(6,3,1,10)     =     32.470483    -0.000001    -0.055836    32.414647
	   83 D(6,3,1,11)     =    148.583997     0.000001     0.063565   148.647563
	   84 D(6,3,5,7)      =      0.083437    -0.000000    -0.006710     0.076727
	   85 D(6,3,5,17)     =   -179.673543    -0.000000    -0.079910  -179.753453
	   86 D(6,8,9,7)      =      0.078412    -0.000000    -0.079698    -0.001285
	   87 D(6,8,9,21)     =    179.835094     0.000000     0.018300   179.853394
	   88 D(7,9,8,20)     =   -179.807038    -0.000000    -0.049001  -179.856039
	   89 D(8,9,7,19)     =    179.711379     0.000000     0.062624   179.774003
	   90 D(9,7,5,17)     =    179.780673     0.000000     0.027937   179.808610
	   91 D(9,8,6,18)     =   -179.744026    -0.000000    -0.043116  -179.787142
	   92 D(10,1,2,12)    =   -153.461612    -0.000000    -0.011378  -153.472990
	   93 D(10,1,2,13)    =    -37.850818     0.000000     0.034715   -37.816104
	   94 D(11,1,2,12)    =     90.632295     0.000000    -0.003132    90.629163
	   95 D(11,1,2,13)    =   -153.756911     0.000000     0.042960  -153.713951
	   96 D(12,2,4,14)    =    -60.351586     0.000001     0.051117   -60.300470
	   97 D(12,2,4,15)    =     59.785257     0.000001     0.066303    59.851560
	   98 D(12,2,4,16)    =   -179.899023     0.000001     0.068835  -179.830188
	   99 D(13,2,4,14)    =   -176.503036    -0.000001    -0.063774  -176.566810
	  100 D(13,2,4,15)    =    -56.366192    -0.000001    -0.048588   -56.414780
	  101 D(13,2,4,16)    =     63.949528    -0.000001    -0.046056    63.903472
	  102 D(17,5,7,19)    =     -0.037324     0.000000     0.053675     0.016351
	  103 D(18,6,8,20)    =      0.141633    -0.000000    -0.073737     0.067896
	  104 D(19,7,9,21)    =     -0.045368    -0.000000    -0.035347    -0.080715
	  105 D(20,8,9,21)    =     -0.050356     0.000000     0.048996    -0.001360
	 ---------------------------------------------------------------------------
	Successfully symmetrized geometry.

  ==> Convergence Check <==

  Measures of convergence in internal coordinates in au.
  Criteria marked as inactive (o), active & met (*), and active & unmet ( ).
  ---------------------------------------------------------------------------------------------
   Step     Total Energy     Delta E     MAX Force     RMS Force      MAX Disp      RMS Disp   
  ---------------------------------------------------------------------------------------------
    Convergence Criteria             o    2.50e-03 *    1.70e-03 *    1.00e-02 *    6.70e-03 *
  ---------------------------------------------------------------------------------------------
      3    -350.06287405   -5.54e-05 o    5.55e-04 *    8.93e-05 *    2.08e-03 *    7.14e-04 *  ~
  ---------------------------------------------------------------------------------------------


  **** Optimization is complete! (in 3 steps) ****

  ==> Optimization Summary <==

  Measures of convergence in internal coordinates in au.
  --------------------------------------------------------------------------------------------------------------- ~
   Step         Total Energy             Delta E       MAX Force       RMS Force        MAX Disp        RMS Disp  ~
  --------------------------------------------------------------------------------------------------------------- ~
      1    -350.060621348817   -350.060621348817      0.01640729      0.00401566      0.04632435      0.01529888  ~
      2    -350.062818639511     -0.002197290694      0.00315600      0.00060952      0.00826443      0.00312975  ~
      3    -350.062874046053     -0.000055406542      0.00055523      0.00008932      0.00207679      0.00071443  ~
  --------------------------------------------------------------------------------------------------------------- ~

	Writing optimization data to binary file.
	Final energy is   -350.0628740460527
	Final (previous) structure:
	Cartesian Geometry (in Angstrom)
	    C    -1.2737146881  -0.8610939064   0.5050598049
	    C    -2.3517195384  -0.2803390381  -0.4390444769
	    C     0.1066756598  -0.3050727142   0.2370661324
	    C    -3.7399251294  -0.2277761814   0.2043514687
	    C     0.5230618652   0.8863556132   0.8403033893
	    C     0.9770573005  -0.9389793989  -0.6551511605
	    C     1.7738424083   1.4311866737   0.5591030700
	    C     2.2292047829  -0.3975600422  -0.9401951840
	    C     2.6311683633   0.7906898412  -0.3338618457
	    H    -1.2631948534  -1.9516752202   0.4330972401
	    H    -1.5510332348  -0.6234789517   1.5372537442
	    H    -2.0571669299   0.7343092072  -0.7224762627
	    H    -2.3802703574  -0.8589794169  -1.3664119423
	    H    -3.7249776287   0.4012598438   1.0974129410
	    H    -4.4818864785   0.1799559057  -0.4845806037
	    H    -4.0749682860  -1.2234051608   0.5060443673
	    H    -0.1373646137   1.3871148257   1.5380351785
	    H     0.6713712901  -1.8652112362  -1.1262418880
	    H     2.0800565924   2.3518361359   1.0378866724
	    H     2.8897291988  -0.9029523755  -1.6322126222
	    H     3.6034785718   1.2113721774  -0.5514653346
	Saving final (previous) structure.
			--------------------------
			 OPTKING Finished Execution 
			--------------------------

    Final optimized geometry and variables:
    Molecular point group: c1
    Full point group: C1

    Geometry (in Angstrom), charge = 0, multiplicity = 1:

    C           -1.273714693057    -0.861093909826     0.505059806838
    C           -2.351719547614    -0.280339039230    -0.439044478579
    C            0.106675660195    -0.305072715398     0.237066133373
    C           -3.739925144094    -0.227776182261     0.204351469483
    C            0.523061867244     0.886355616723     0.840303392634
    C            0.977057304313    -0.938979402640    -0.655151163051
    C            1.773842415291     1.431186679307     0.559103072154
    C            2.229204791636    -0.397560043755    -0.940195187647
    C            2.631168373667     0.790689844339    -0.333861847006
    H           -1.263194858397    -1.951675227867     0.433097241756
    H           -1.551033240919    -0.623478954111     1.537253750250
    H           -2.057166937991     0.734309210119    -0.722476265578
    H           -2.380270366805    -0.858979420287    -1.366411947707
    H           -3.724977643338     0.401259845412     1.097412945344
    H           -4.481886496130     0.179955906404    -0.484580605633
    H           -4.074968301983    -1.223405165657     0.506044369242
    H           -0.137364614230     1.387114831186     1.538035184557
    H            0.671371292712    -1.865211243530    -1.126241892414
    H            2.080056600570     2.351836145172     1.037886676490
    H            2.889729210137    -0.902952379031    -1.632212628633
    H            3.603478585916     1.211372182135    -0.551465336812

	Removing binary optimization data file.
	Cleaning optimization helper files.

    Psi4 stopped on: Wednesday, 02 June 2021 12:15AM
    Psi4 wall time for execution: 0:00:41.45

*** Psi4 exiting successfully. Buy a developer a beer!
