
    -----------------------------------------------------------------------
          Psi4: An Open-Source Ab Initio Electronic Structure Package
                               Psi4 1.3.2 release

                         Git: Rev {HEAD} ecbda83 


    R. M. Parrish, L. A. Burns, D. G. A. Smith, A. C. Simmonett,
    A. E. DePrince III, E. G. Hohenstein, U. Bozkaya, A. Yu. Sokolov,
    R. Di Remigio, R. M. Richard, J. F. Gonthier, A. M. James,
    H. R. McAlexander, A. Kumar, M. Saitow, X. Wang, B. P. Pritchard,
    P. Verma, H. F. Schaefer III, K. Patkowski, R. A. King, E. F. Valeev,
    F. A. Evangelista, J. M. Turney, T. D. Crawford, and C. D. Sherrill,
    J. Chem. Theory Comput. 13(7) pp 3185--3197 (2017).
    (doi: 10.1021/acs.jctc.7b00174)


                         Additional Contributions by
    P. Kraus, H. Kruse, M. H. Lechner, M. C. Schieber, R. A. Shaw,
    A. Alenaizan, R. Galvelis, Z. L. Glick, S. Lehtola, and J. P. Misiewicz

    -----------------------------------------------------------------------


    Psi4 started on: Wednesday, 02 June 2021 12:36AM

    Process ID: 79230
    Host:       daniele-Precision-5750
    PSIDATADIR: /home/daniele/anaconda3/envs/poltype/share/psi4
    Memory:     500.0 MiB
    Threads:    1
    
  ==> Input File <==

--------------------------------------------------------------------------
molecule { 
0 1
 C   -1.548819    0.414150    0.250616
 C   -2.207465   -0.970274    0.011497
 C   -0.026476    0.380033    0.053909
 C   -3.737648   -0.968103    0.203324
 C    0.839100    0.168977    1.153838
 C    0.542375    0.610706   -1.221613
 C    2.236609    0.166661    0.978839
 C    1.940112    0.608396   -1.395870
 C    2.787888    0.384209   -0.296446
 H   -1.782331    0.768574    1.263326
 H   -1.989128    1.158816   -0.425628
 H   -1.962828   -1.315112   -1.002361
 H   -1.751697   -1.706282    0.687549
 H   -4.223253   -0.274295   -0.491199
 H   -4.151566   -1.965725    0.021758
 H   -4.009011   -0.675275    1.223298
 H    0.430362    0.003646    2.149647
 H   -0.098297    0.790938   -2.083722
 H    2.891129   -0.002795    1.831922
 H    2.365356    0.781509   -2.382762
 H    3.867820    0.381726   -0.431637
}
set optking { 
  frozen_dihedral = ("
    2 1 3 5
    2 1 3 6
    4 2 1 3
    1 2 4 14
  ")
}
set {
  geom_maxiter 400
  g_convergence GAU_LOOSE
  dynamic_level 1
}
memory 700MB
set_num_threads(8)
psi4_io.set_default_path("/home/daniele/PSI4_sctatch/Psi4-propbenzene")
for _ in range(1):
  try:
    set opt_coordinates both
    optimize('wb97x-d/6-311G')
    break
  except OptimizationConvergenceError:
    break
  else:
    try:
      set opt_coordinates cartesian
      optimize('wb97x-d/6-311G')
      break
    except OptimizationConvergenceError:
      pass
clean()
--------------------------------------------------------------------------

  Memory set to 667.572 MiB by Python driver.
  Threads set to 8 by Python driver.
gradient() will perform analytic gradient computation.

*** tstart() called on daniele-Precision-5750
*** at Wed Jun  2 00:36:11 2021

   => Loading Basis Set <=

    Name: 6-311G
    Role: ORBITAL
    Keyword: BASIS
    atoms 1-9   entry C          line    92 file /home/daniele/anaconda3/envs/poltype/share/psi4/basis/6-311g.gbs 
    atoms 10-21 entry H          line    21 file /home/daniele/anaconda3/envs/poltype/share/psi4/basis/6-311g.gbs 


         ---------------------------------------------------------
                                   SCF
               by Justin Turney, Rob Parrish, Andy Simmonett
                          and Daniel G. A. Smith
                              RKS Reference
                        8 Threads,    667 MiB Core
         ---------------------------------------------------------

  ==> Geometry <==

    Molecular point group: c1
    Full point group: C1

    Geometry (in Angstrom), charge = 0, multiplicity = 1:

       Center              X                  Y                   Z               Mass       
    ------------   -----------------  -----------------  -----------------  -----------------
         C           -1.543932677439     0.351976066038     0.273763407861    12.000000000000
         C           -2.202578677439    -1.032447933962     0.034644407861    12.000000000000
         C           -0.021589677439     0.317859066038     0.077056407861    12.000000000000
         C           -3.732761677439    -1.030276933962     0.226471407861    12.000000000000
         C            0.843986322561     0.106803066038     1.176985407861    12.000000000000
         C            0.547261322561     0.548532066038    -1.198465592139    12.000000000000
         C            2.241495322561     0.104487066038     1.001986407861    12.000000000000
         C            1.944998322561     0.546222066038    -1.372722592139    12.000000000000
         C            2.792774322561     0.322035066038    -0.273298592139    12.000000000000
         H           -1.777444677439     0.706400066038     1.286473407861     1.007825032230
         H           -1.984241677439     1.096642066038    -0.402480592139     1.007825032230
         H           -1.957941677439    -1.377285933962    -0.979213592139     1.007825032230
         H           -1.746810677439    -1.768455933962     0.710696407861     1.007825032230
         H           -4.218366677439    -0.336468933962    -0.468051592139     1.007825032230
         H           -4.146679677439    -2.027898933962     0.044905407861     1.007825032230
         H           -4.004124677439    -0.737448933962     1.246445407861     1.007825032230
         H            0.435248322561    -0.058527933962     2.172794407861     1.007825032230
         H           -0.093410677439     0.728764066038    -2.060574592139     1.007825032230
         H            2.896015322561    -0.064968933962     1.855069407861     1.007825032230
         H            2.370242322561     0.719335066038    -2.359614592139     1.007825032230
         H            3.872706322561     0.319552066038    -0.408489592139     1.007825032230

  Running in c1 symmetry.

  Rotational constants: A =      0.14458  B =      0.02764  C =      0.02470 [cm^-1]
  Rotational constants: A =   4334.42706  B =    828.74347  C =    740.43670 [MHz]
  Nuclear repulsion =  406.602556436886516

  Charge       = 0
  Multiplicity = 1
  Electrons    = 66
  Nalpha       = 33
  Nbeta        = 33

  ==> Algorithm <==

  SCF Algorithm Type is DF.
  DIIS enabled.
  MOM disabled.
  Fractional occupation disabled.
  Guess Type is SAD.
  Energy threshold   = 1.00e-08
  Density threshold  = 1.00e-08
  Integral threshold = 0.00e+00

  ==> Primary Basis <==

  Basis Set: 6-311G
    Blend: 6-311G
    Number of shells: 99
    Number of basis function: 153
    Number of Cartesian functions: 153
    Spherical Harmonics?: true
    Max angular momentum: 1

  ==> DFT Potential <==

   => Composite Functional: WB97X-D <= 

    wB97X-D Hyb-GGA Exchange-Correlation Functional

    J.-D. Chai and M. Head-Gordon, Phys. Chem. Chem. Phys. 10, 6615 (2008)

    Deriv               =              1
    GGA                 =           TRUE
    Meta                =          FALSE

    Exchange Hybrid     =           TRUE
    MP2 Hybrid          =          FALSE

   => Exchange-Correlation Functionals <=

    1.0000   wB97D range-separated functional

   => Exact (HF) Exchange <=

    0.7780            HF,LR [omega = 0.2000]
    0.2220               HF 

   => Molecular Quadrature <=

    Radial Scheme          =       TREUTLER
    Pruning Scheme         =           FLAT
    Nuclear Scheme         =       TREUTLER

    BS radius alpha        =              1
    Pruning alpha          =              1
    Radial Points          =             75
    Spherical Points       =            302
    Total Points           =         470096
    Total Blocks           =           3485
    Max Points             =            256
    Max Functions          =            136

   => WB97X-D: Empirical Dispersion <=

    Chai and Head-Gordon Dispersion Correction
    Chai, J.-D.; Head-Gordon, M. (2010), J. Chem. Phys., 132: 6615-6620

        s6 =       1.000000

   => Loading Basis Set <=

    Name: (6-311G AUX)
    Role: JKFIT
    Keyword: DF_BASIS_SCF
    atoms 1-9   entry C          line   125 file /home/daniele/anaconda3/envs/poltype/share/psi4/basis/cc-pvtz-jkfit.gbs 
    atoms 10-21 entry H          line    51 file /home/daniele/anaconda3/envs/poltype/share/psi4/basis/cc-pvtz-jkfit.gbs 

  ==> Pre-Iterations <==

   -------------------------------------------------------
    Irrep   Nso     Nmo     Nalpha   Nbeta   Ndocc  Nsocc
   -------------------------------------------------------
     A        153     153       0       0       0       0
   -------------------------------------------------------
    Total     153     153      33      33      33       0
   -------------------------------------------------------

  ==> Integral Setup <==

  ==> DiskDFJK: Density-Fitted J/K Matrices <==

    J tasked:                  Yes
    K tasked:                  Yes
    wK tasked:                 Yes
    Omega:               2.000E-01
    OpenMP threads:              8
    Integrals threads:           8
    Memory [MiB]:              114
    Algorithm:                Disk
    Integral Cache:           NONE
    Schwarz Cutoff:          1E-12
    Fitting Condition:       1E-10

   => Auxiliary Basis Set <=

  Basis Set: (6-311G AUX)
    Blend: CC-PVTZ-JKFIT
    Number of shells: 345
    Number of basis function: 1071
    Number of Cartesian functions: 1284
    Spherical Harmonics?: true
    Max angular momentum: 4

  Cached 33.3% of DFT collocation blocks in 0.435 [GiB].

  Minimum eigenvalue in the overlap matrix is 2.7536671201E-04.
  Using Symmetric Orthogonalization.

  SCF Guess: Superposition of Atomic Densities via on-the-fly atomic UHF.

  ==> Iterations <==

                           Total Energy        Delta E     RMS |[F,P]|

   @DF-RKS iter SAD:  -349.21928562364997   -3.49219e+02   0.00000e+00 
   @DF-RKS iter   1:  -349.71964789535411   -5.00362e-01   5.12516e-03 DIIS
   @DF-RKS iter   2:  -349.90841677812568   -1.88769e-01   3.55576e-03 DIIS
   @DF-RKS iter   3:  -350.06206619784427   -1.53649e-01   2.25151e-04 DIIS
   @DF-RKS iter   4:  -350.06278040318125   -7.14205e-04   1.29859e-04 DIIS
   @DF-RKS iter   5:  -350.06299566034028   -2.15257e-04   1.88813e-05 DIIS
   @DF-RKS iter   6:  -350.06300031624033   -4.65590e-06   8.16724e-06 DIIS
   @DF-RKS iter   7:  -350.06300114988147   -8.33641e-07   1.99601e-06 DIIS
   @DF-RKS iter   8:  -350.06300120867701   -5.87955e-08   5.83074e-07 DIIS
   @DF-RKS iter   9:  -350.06300121328110   -4.60409e-09   1.55578e-07 DIIS
   @DF-RKS iter  10:  -350.06300121371993   -4.38831e-10   3.71688e-08 DIIS
   @DF-RKS iter  11:  -350.06300121374426   -2.43290e-11   1.56101e-08 DIIS
   @DF-RKS iter  12:  -350.06300121374932   -5.05906e-12   2.80416e-09 DIIS
  Energy and wave function converged.


  ==> Post-Iterations <==

    Orbital Energies [Eh]
    ---------------------

    Doubly Occupied:                                                      

       1A    -10.304646     2A    -10.293565     3A    -10.293470  
       4A    -10.291890     5A    -10.291791     6A    -10.291175  
       7A    -10.288623     8A    -10.283923     9A    -10.272759  
      10A     -0.958483    11A     -0.895685    12A     -0.846554  
      13A     -0.845227    14A     -0.777673    15A     -0.700767  
      16A     -0.698498    17A     -0.671255    18A     -0.603789  
      19A     -0.561795    20A     -0.547959    21A     -0.528263  
      22A     -0.515318    23A     -0.508542    24A     -0.500339  
      25A     -0.464520    26A     -0.462299    27A     -0.445391  
      28A     -0.426192    29A     -0.422969    30A     -0.408885  
      31A     -0.407514    32A     -0.327179    33A     -0.317230  

    Virtual:                                                              

      34A      0.062767    35A      0.064502    36A      0.120067  
      37A      0.133430    38A      0.146157    39A      0.158851  
      40A      0.166072    41A      0.174565    42A      0.190224  
      43A      0.206358    44A      0.208450    45A      0.219029  
      46A      0.222232    47A      0.230089    48A      0.238804  
      49A      0.280663    50A      0.301344    51A      0.308462  
      52A      0.352631    53A      0.360416    54A      0.368826  
      55A      0.373994    56A      0.388859    57A      0.399712  
      58A      0.409122    59A      0.422984    60A      0.444185  
      61A      0.477369    62A      0.479040    63A      0.490949  
      64A      0.494173    65A      0.495785    66A      0.518554  
      67A      0.539974    68A      0.555438    69A      0.561290  
      70A      0.576002    71A      0.583304    72A      0.592211  
      73A      0.627148    74A      0.637302    75A      0.642228  
      76A      0.668300    77A      0.676304    78A      0.681634  
      79A      0.687934    80A      0.691052    81A      0.699327  
      82A      0.703632    83A      0.706328    84A      0.716417  
      85A      0.718922    86A      0.724500    87A      0.747534  
      88A      0.756915    89A      0.772473    90A      0.802454  
      91A      0.805920    92A      0.848163    93A      0.868089  
      94A      0.875690    95A      0.923331    96A      0.935969  
      97A      0.964720    98A      0.966040    99A      1.001818  
     100A      1.071687   101A      1.118965   102A      1.131879  
     103A      1.184143   104A      1.218754   105A      1.364867  
     106A      2.302595   107A      2.340382   108A      2.346937  
     109A      2.352116   110A      2.354684   111A      2.396516  
     112A      2.406318   113A      2.410919   114A      2.415376  
     115A      2.425172   116A      2.457279   117A      2.606115  
     118A      2.637149   119A      2.671951   120A      2.698078  
     121A      2.792361   122A      2.813271   123A      2.823544  
     124A      2.841436   125A      2.905393   126A      2.923597  
     127A      2.936406   128A      2.957362   129A      2.973539  
     130A      2.976600   131A      3.000968   132A      3.060108  
     133A      3.072563   134A      3.137470   135A      3.144979  
     136A      3.153972   137A      3.188801   138A      3.211940  
     139A      3.276272   140A      3.295344   141A      3.341305  
     142A      3.368687   143A      3.384191   144A      3.534860  
     145A     23.260202   146A     23.470930   147A     23.483410  
     148A     23.534778   149A     23.632365   150A     23.720440  
     151A     23.744320   152A     23.750406   153A     23.991136  

    Final Occupation by Irrep:
              A 
    DOCC [    33 ]

  @DF-RKS Final Energy:  -350.06300121374932

   => Energetics <=

    Nuclear Repulsion Energy =            406.6025564368865162
    One-Electron Energy =               -1275.8275518814355109
    Two-Electron Energy =                 555.4919989893944603
    DFT Exchange-Correlation Energy =     -36.3185874297727196
    Empirical Dispersion Energy =          -0.0114173288220841
    VV10 Nonlocal Energy =                  0.0000000000000000
    Total Energy =                       -350.0630012137493168

Computation Completed


Properties will be evaluated at   0.000000,   0.000000,   0.000000 [a0]

Properties computed using the SCF density matrix

  Nuclear Dipole Moment: [e a0]
     X:    -9.7073      Y:    -2.6253      Z:     0.5981

  Electronic Dipole Moment: [e a0]
     X:     9.5728      Y:     2.5890      Z:    -0.5909

  Dipole Moment: [e a0]
     X:    -0.1345      Y:    -0.0362      Z:     0.0071     Total:     0.1395

  Dipole Moment: [D]
     X:    -0.3420      Y:    -0.0921      Z:     0.0181     Total:     0.3546


*** tstop() called on daniele-Precision-5750 at Wed Jun  2 00:36:22 2021
Module time:
	user time   =      77.55 seconds =       1.29 minutes
	system time =       2.26 seconds =       0.04 minutes
	total time  =         11 seconds =       0.18 minutes
Total time:
	user time   =      77.55 seconds =       1.29 minutes
	system time =       2.26 seconds =       0.04 minutes
	total time  =         11 seconds =       0.18 minutes

*** tstart() called on daniele-Precision-5750
*** at Wed Jun  2 00:36:22 2021


         ------------------------------------------------------------
                                   SCF GRAD                          
                          Rob Parrish, Justin Turney,                
                       Andy Simmonett, and Alex Sokolov              
         ------------------------------------------------------------

  ==> Geometry <==

    Molecular point group: c1
    Full point group: C1

    Geometry (in Angstrom), charge = 0, multiplicity = 1:

       Center              X                  Y                   Z               Mass       
    ------------   -----------------  -----------------  -----------------  -----------------
         C           -1.543932677439     0.351976066038     0.273763407861    12.000000000000
         C           -2.202578677439    -1.032447933962     0.034644407861    12.000000000000
         C           -0.021589677439     0.317859066038     0.077056407861    12.000000000000
         C           -3.732761677439    -1.030276933962     0.226471407861    12.000000000000
         C            0.843986322561     0.106803066038     1.176985407861    12.000000000000
         C            0.547261322561     0.548532066038    -1.198465592139    12.000000000000
         C            2.241495322561     0.104487066038     1.001986407861    12.000000000000
         C            1.944998322561     0.546222066038    -1.372722592139    12.000000000000
         C            2.792774322561     0.322035066038    -0.273298592139    12.000000000000
         H           -1.777444677439     0.706400066038     1.286473407861     1.007825032230
         H           -1.984241677439     1.096642066038    -0.402480592139     1.007825032230
         H           -1.957941677439    -1.377285933962    -0.979213592139     1.007825032230
         H           -1.746810677439    -1.768455933962     0.710696407861     1.007825032230
         H           -4.218366677439    -0.336468933962    -0.468051592139     1.007825032230
         H           -4.146679677439    -2.027898933962     0.044905407861     1.007825032230
         H           -4.004124677439    -0.737448933962     1.246445407861     1.007825032230
         H            0.435248322561    -0.058527933962     2.172794407861     1.007825032230
         H           -0.093410677439     0.728764066038    -2.060574592139     1.007825032230
         H            2.896015322561    -0.064968933962     1.855069407861     1.007825032230
         H            2.370242322561     0.719335066038    -2.359614592139     1.007825032230
         H            3.872706322561     0.319552066038    -0.408489592139     1.007825032230

  Nuclear repulsion =  406.602556436886516

  ==> Basis Set <==

  Basis Set: 6-311G
    Blend: 6-311G
    Number of shells: 99
    Number of basis function: 153
    Number of Cartesian functions: 153
    Spherical Harmonics?: true
    Max angular momentum: 1

  ==> DFJKGrad: Density-Fitted SCF Gradients <==

    Gradient:                    1
    J tasked:                  Yes
    K tasked:                  Yes
    wK tasked:                 Yes
    Omega:               2.000E-01
    OpenMP threads:              8
    Integrals threads:           8
    Memory [MiB]:              500
    Schwarz Cutoff:          0E+00
    Fitting Condition:       1E-10

   => Auxiliary Basis Set <=

  Basis Set: (6-311G AUX)
    Blend: CC-PVTZ-JKFIT
    Number of shells: 345
    Number of basis function: 1071
    Number of Cartesian functions: 1284
    Spherical Harmonics?: true
    Max angular momentum: 4

  ==> DFT Potential <==

   => Composite Functional: WB97X-D <= 

    wB97X-D Hyb-GGA Exchange-Correlation Functional

    J.-D. Chai and M. Head-Gordon, Phys. Chem. Chem. Phys. 10, 6615 (2008)

    Deriv               =              1
    GGA                 =           TRUE
    Meta                =          FALSE

    Exchange Hybrid     =           TRUE
    MP2 Hybrid          =          FALSE

   => Exchange-Correlation Functionals <=

    1.0000   wB97D range-separated functional

   => Exact (HF) Exchange <=

    0.7780            HF,LR [omega = 0.2000]
    0.2220               HF 

   => Molecular Quadrature <=

    Radial Scheme          =       TREUTLER
    Pruning Scheme         =           FLAT
    Nuclear Scheme         =       TREUTLER

    BS radius alpha        =              1
    Pruning alpha          =              1
    Radial Points          =             75
    Spherical Points       =            302
    Total Points           =         470096
    Total Blocks           =           3485
    Max Points             =            256
    Max Functions          =            136


  -Total Gradient:
     Atom            X                  Y                   Z
    ------   -----------------  -----------------  -----------------
       1       -0.006507524302     0.003877870841     0.001958830088
       2        0.000870586364    -0.000913185954    -0.000454233364
       3       -0.001346199885    -0.007183194039    -0.001660165780
       4       -0.004085557131     0.000409110766     0.000624574820
       5       -0.004911533450     0.000257380525     0.010336817885
       6       -0.007374400074     0.003671349438    -0.008046185715
       7        0.006400236839    -0.000641539127     0.007093778592
       8        0.004761851865     0.002183060101    -0.008052011624
       9        0.006831256108    -0.000005753277    -0.000982222056
      10       -0.001323131548     0.003184892931     0.001272548023
      11       -0.001142274812     0.003323550913     0.000623998977
      12        0.000661550364    -0.002398153252    -0.001850436609
      13        0.000934094992    -0.002917463944     0.000371561133
      14       -0.001135494587     0.000592285349    -0.001337622239
      15       -0.000885936729    -0.002132093913    -0.000444126640
      16       -0.000779195397    -0.000191962656     0.001766571511
      17        0.000282592875    -0.001105651466     0.004405947586
      18       -0.000840663296     0.000526305825    -0.004426075366
      19        0.002999469990    -0.000865856068     0.003332139567
      20        0.002106370513     0.000516024779    -0.003985372839
      21        0.004535590005    -0.000173240773    -0.000589276824


*** tstop() called on daniele-Precision-5750 at Wed Jun  2 00:36:26 2021
Module time:
	user time   =      35.84 seconds =       0.60 minutes
	system time =       0.49 seconds =       0.01 minutes
	total time  =          4 seconds =       0.07 minutes
Total time:
	user time   =     113.40 seconds =       1.89 minutes
	system time =       2.75 seconds =       0.05 minutes
	total time  =         15 seconds =       0.25 minutes

			-----------------------------------------
			 OPTKING 2.0: for geometry optimizations 
			  - R.A. King,  Bethel University        
			-----------------------------------------
	At level 1: Red. Int., RFO, no backsteps, dynamic trust

	Internal coordinates to be generated automatically.
	Detected frag 1 with atoms:  1 2 3 4 5 6 7 8 9 10 11 12 13 14 15 16 17 18 19 20
	 21
	---Fragment 1 Bond Connectivity---
	 1 : 2 3 10 11
	 2 : 1 4 12 13
	 3 : 1 5 6
	 4 : 2 14 15 16
	 5 : 3 7 17
	 6 : 3 8 18
	 7 : 5 9 19
	 8 : 6 9 20
	 9 : 7 8 21
	 10 : 1
	 11 : 1
	 12 : 2
	 13 : 2
	 14 : 4
	 15 : 4
	 16 : 4
	 17 : 5
	 18 : 6
	 19 : 7
	 20 : 8
	 21 : 9

	Assuming in current code that numbering for constraints corresponds to unified fragment.
	Frozen dihedral atom list: 
	     2     1     3     5
	     2     1     3     6
	     4     2     1     3
	     1     2     4    14
	---Fragment 1 Geometry and Gradient---
	 C          -2.9176099165        0.6651383675        0.5173378640
	 C          -4.1622704701       -1.9510438340        0.0654684426
	 C          -0.0407985775        0.6006665813        0.1456155071
	 C          -7.0538972620       -1.9469412386        0.4279689361
	 C           1.5949030033        0.2018285442        2.2241800745
	 C           1.0341740187        1.0365753758       -2.2647717399
	 C           4.2358122711        0.1974519385        1.8934798923
	 C           3.6755141441        1.0322101085       -2.5940697454
	 C           5.2775785999        0.6085580776       -0.5164594896
	 H          -3.3588836435        1.3349026598        2.4310824085
	 H          -3.7496733371        2.0723531625       -0.7605780900
	 H          -3.6999735400       -2.6026932116       -1.8504455075
	 H          -3.3009937734       -3.3418973801        1.3430215692
	 H          -7.9715577171       -0.6358341349       -0.8844893217
	 H          -7.8360889204       -3.8321735953        0.0848589224
	 H          -7.5666990125       -1.3935765167        2.3554404512
	 H           0.8225001262       -0.1106017659        4.1059863578
	 H          -0.1765205976        1.3771644949       -3.8939216402
	 H           5.4726758148       -0.1227734919        3.5055731246
	 H           4.4791088406        1.3593462672       -4.4590253408
	 H           7.3183543140        0.6038658876       -0.7719334542
	            -0.0065075243        0.0038778708        0.0019588301
	             0.0008705864       -0.0009131860       -0.0004542334
	            -0.0013461999       -0.0071831940       -0.0016601658
	            -0.0040855571        0.0004091108        0.0006245748
	            -0.0049115334        0.0002573805        0.0103368179
	            -0.0073744001        0.0036713494       -0.0080461857
	             0.0064002368       -0.0006415391        0.0070937786
	             0.0047618519        0.0021830601       -0.0080520116
	             0.0068312561       -0.0000057533       -0.0009822221
	            -0.0013231315        0.0031848929        0.0012725480
	            -0.0011422748        0.0033235509        0.0006239990
	             0.0006615504       -0.0023981533       -0.0018504366
	             0.0009340950       -0.0029174639        0.0003715611
	            -0.0011354946        0.0005922853       -0.0013376222
	            -0.0008859367       -0.0021320939       -0.0004441266
	            -0.0007791954       -0.0001919627        0.0017665715
	             0.0002825929       -0.0011056515        0.0044059476
	            -0.0008406633        0.0005263058       -0.0044260754
	             0.0029994700       -0.0008658561        0.0033321396
	             0.0021063705        0.0005160248       -0.0039853728
	             0.0045355900       -0.0001732408       -0.0005892768

	Previous optimization step data not found.  Starting new optimization.

	---Fragment 1 Intrafragment Coordinates---
	 - Coordinate -           - BOHR/RAD -       - ANG/DEG -
	 R(1,2)           =         2.932196	       1.551651
	 R(1,3)           =         2.901444	       1.535378
	 R(1,10)          =         2.075024	       1.098055
	 R(1,11)          =         2.075007	       1.098046
	 R(2,4)           =         2.914263	       1.542162
	 R(2,12)          =         2.075835	       1.098485
	 R(2,13)          =         2.075672	       1.098398
	 R(3,5)           =         2.674887	       1.415489
	 R(3,6)           =         2.674986	       1.415542
	 R(4,14)          =         2.069698	       1.095237
	 R(4,15)          =         2.069698	       1.095237
	 R(4,16)          =         2.069861	       1.095323
	 R(5,7)           =         2.661538	       1.408425
	 R(5,17)          =         2.058012	       1.089053
	 R(6,8)           =         2.661791	       1.408559
	 R(6,18)          =         2.058133	       1.089117
	 R(7,9)           =         2.657460	       1.406267
	 R(7,19)          =         2.056993	       1.088514
	 R(8,9)           =         2.657547	       1.406313
	 R(8,20)          =         2.056901	       1.088465
	 R(9,21)          =         2.056710	       1.088364
	 B(1,2,4)         =         1.983141	     113.625603
	 B(1,2,12)        =         1.904759	     109.134651
	 B(1,2,13)        =         1.903790	     109.079112
	 B(1,3,5)         =         2.106062	     120.668477
	 B(1,3,6)         =         2.106297	     120.681942
	 B(2,1,3)         =         1.962007	     112.414700
	 B(2,1,10)        =         1.917550	     109.867497
	 B(2,1,11)        =         1.917673	     109.874587
	 B(2,4,14)        =         1.941153	     111.219901
	 B(2,4,15)        =         1.931665	     110.676240
	 B(2,4,16)        =         1.941242	     111.224945
	 B(3,1,10)        =         1.913659	     109.644611
	 B(3,1,11)        =         1.911082	     109.496929
	 B(3,5,7)         =         2.106512	     120.694273
	 B(3,5,17)        =         2.098631	     120.242694
	 B(3,6,8)         =         2.105960	     120.662626
	 B(3,6,18)        =         2.098836	     120.254439
	 B(4,2,12)        =         1.913699	     109.646849
	 B(4,2,13)        =         1.913569	     109.639406
	 B(5,3,6)         =         2.070039	     118.604480
	 B(5,7,9)         =         2.096014	     120.092773
	 B(5,7,19)        =         2.093835	     119.967909
	 B(6,8,9)         =         2.096416	     120.115813
	 B(6,8,20)        =         2.093919	     119.972745
	 B(7,5,17)        =         2.078040	     119.062912
	 B(7,9,8)         =         2.091282	     119.821622
	 B(7,9,21)        =         2.095864	     120.084133
	 B(8,6,18)        =         2.078388	     119.082835
	 B(8,9,21)        =         2.096036	     120.094041
	 B(9,7,19)        =         2.093336	     119.939293
	 B(9,8,20)        =         2.092849	     119.911405
	 B(10,1,11)       =         1.837779	     105.296959
	 B(12,2,13)       =         1.839325	     105.385544
	 B(14,4,15)       =         1.880030	     107.717784
	 B(14,4,16)       =         1.887363	     108.137908
	 B(15,4,16)       =         1.879958	     107.713660
	*D(1,2,4,14)      =         1.050847	      60.209123
	 D(1,2,4,15)      =         3.140021	     179.909943
	 D(1,2,4,16)      =        -1.054024	     -60.391114
	 D(1,3,5,7)       =        -3.117239	    -178.604629
	 D(1,3,5,17)      =         0.026587	       1.523306
	 D(1,3,6,8)       =         3.117107	     178.597102
	 D(1,3,6,18)      =        -0.026515	      -1.519183
	*D(2,1,3,5)       =        -1.635979	     -93.734702
	*D(2,1,3,6)       =         1.548838	      88.741900
	*D(3,1,2,4)       =         3.140531	     179.939196
	 D(3,1,2,12)      =        -1.001172	     -57.362945
	 D(3,1,2,13)      =         0.999937	      57.292155
	 D(3,5,7,9)       =         0.007447	       0.426671
	 D(3,5,7,19)      =        -3.135160	    -179.631438
	 D(3,6,8,9)       =        -0.007203	      -0.412725
	 D(3,6,8,20)      =         3.135612	     179.657356
	 D(4,2,1,10)      =         1.004372	      57.546293
	 D(4,2,1,11)      =        -1.009711	     -57.852174
	 D(5,3,1,10)      =         0.502377	      28.784070
	 D(5,3,1,11)      =         2.510535	     143.843064
	 D(5,3,6,8)       =         0.017862	       1.023426
	 D(5,3,6,18)      =        -3.125760	    -179.092859
	 D(5,7,9,8)       =         0.003581	       0.205177
	 D(5,7,9,21)      =        -3.140876	    -179.958944
	 D(6,3,1,10)      =        -2.595991	    -148.739328
	 D(6,3,1,11)      =        -0.587833	     -33.680334
	 D(6,3,5,7)       =        -0.017988	      -1.030614
	 D(6,3,5,17)      =         3.125838	     179.097321
	 D(6,8,9,7)       =        -0.003701	      -0.212039
	 D(6,8,9,21)      =         3.140757	     179.952099
	 D(7,9,8,20)      =         3.136669	     179.717923
	 D(8,9,7,19)      =        -3.136998	    -179.736730
	 D(9,7,5,17)      =        -3.136353	    -179.699773
	 D(9,8,6,18)      =         3.136395	     179.702213
	 D(10,1,2,12)     =        -3.137331	    -179.755848
	 D(10,1,2,13)     =        -1.136222	     -65.100748
	 D(11,1,2,12)     =         1.131771	      64.845685
	 D(11,1,2,13)     =         3.132880	     179.500785
	 D(12,2,4,14)     =        -1.085706	     -62.206368
	 D(12,2,4,15)     =         1.003467	      57.494452
	 D(12,2,4,16)     =         3.092608	     177.193396
	 D(13,2,4,14)     =        -3.097138	    -177.452940
	 D(13,2,4,15)     =        -1.007965	     -57.752119
	 D(13,2,4,16)     =         1.081176	      61.946824
	 D(17,5,7,19)     =         0.004226	       0.242118
	 D(18,6,8,20)     =        -0.003974	      -0.227706
	 D(19,7,9,21)     =         0.001730	       0.099148
	 D(20,8,9,21)     =        -0.002058	      -0.117939

	Current energy   :      -350.0630012137

	Generating empirical Hessian (Schlegel '84) for each fragment.
	Taking RFO optimization step.
	Going to follow RFO solution 1.
	Using RFO vector 1.
	Norm of target step-size    0.13826
	Projected energy change by RFO approximation:        -0.0039827104

	Back-transformation to cartesian coordinates...
	Successfully converged to displaced geometry.

	Back-transformation to cartesian coordinates to adjust frozen coordinates...
	Successfully converged to displaced geometry.

	--- Internal Coordinate Step in ANG or DEG, aJ/ANG or AJ/DEG ---
	 ---------------------------------------------------------------------------
	   Coordinate                Previous        Force       Change         New 
	   ----------                --------       ------       ------       ------
	    1 R(1,2)          =      1.551651    -0.072533    -0.016650     1.535002
	    2 R(1,3)          =      1.535378    -0.112890    -0.024661     1.510717
	    3 R(1,10)         =      1.098055    -0.020427    -0.003818     1.094238
	    4 R(1,11)         =      1.098046    -0.019230    -0.003594     1.094452
	    5 R(2,4)          =      1.542162    -0.057041    -0.012722     1.529439
	    6 R(2,12)         =      1.098485    -0.021414    -0.004008     1.094477
	    7 R(2,13)         =      1.098398    -0.021211    -0.003969     1.094430
	    8 R(3,5)          =      1.415489    -0.133309    -0.019810     1.395679
	    9 R(3,6)          =      1.415542    -0.132838    -0.019754     1.395788
	   10 R(4,14)         =      1.095237    -0.014234    -0.002636     1.092601
	   11 R(4,15)         =      1.095237    -0.019338    -0.003581     1.091656
	   12 R(4,16)         =      1.095323    -0.014778    -0.002737     1.092586
	   13 R(5,7)          =      1.408425    -0.113306    -0.016264     1.392161
	   14 R(5,17)         =      1.089053    -0.033716    -0.006119     1.082934
	   15 R(6,8)          =      1.408559    -0.115753    -0.016641     1.391918
	   16 R(6,18)         =      1.089117    -0.033656    -0.006109     1.083008
	   17 R(7,9)          =      1.406267    -0.102945    -0.014488     1.391779
	   18 R(7,19)         =      1.088514    -0.037485    -0.006791     1.081723
	   19 R(8,9)          =      1.406313    -0.102241    -0.014399     1.391914
	   20 R(8,20)         =      1.088465    -0.037210    -0.006740     1.081725
	   21 R(9,21)         =      1.088364    -0.037668    -0.006821     1.081543
	   22 B(1,2,4)        =    113.625603    -0.000206    -0.948924   112.676679
	   23 B(1,2,12)       =    109.134651     0.000024    -0.239658   108.894993
	   24 B(1,2,13)       =    109.079112     0.000003    -0.307698   108.771414
	   25 B(1,3,5)        =    120.668477     0.000022     0.100862   120.769338
	   26 B(1,3,6)        =    120.681942    -0.000032    -0.058394   120.623549
	   27 B(2,1,3)        =    112.414700     0.000054    -0.111837   112.302864
	   28 B(2,1,10)       =    109.867497    -0.000083    -0.573409   109.294088
	   29 B(2,1,11)       =    109.874587    -0.000092    -0.608146   109.266441
	   30 B(2,4,14)       =    111.219901    -0.000040    -0.244973   110.974928
	   31 B(2,4,15)       =    110.676240     0.000023     0.255036   110.931276
	   32 B(2,4,16)       =    111.224945    -0.000038    -0.248230   110.976715
	   33 B(3,1,10)       =    109.644611    -0.000009    -0.110458   109.534153
	   34 B(3,1,11)       =    109.496929    -0.000000     0.012766   109.509696
	   35 B(3,5,7)        =    120.694273     0.000049     0.119931   120.814204
	   36 B(3,5,17)       =    120.242694    -0.000178    -0.764024   119.478670
	   37 B(3,6,8)        =    120.662626     0.000060     0.152717   120.815343
	   38 B(3,6,18)       =    120.254439    -0.000182    -0.775057   119.479381
	   39 B(4,2,12)       =    109.646849     0.000079     0.334095   109.980944
	   40 B(4,2,13)       =    109.639406     0.000088     0.313277   109.952683
	   41 B(5,3,6)        =    118.604480     0.000011    -0.042430   118.562050
	   42 B(5,7,9)        =    120.092773    -0.000005     0.021891   120.114664
	   43 B(5,7,19)       =    119.967909    -0.000023    -0.132411   119.835498
	   44 B(6,8,9)        =    120.115813    -0.000009     0.004074   120.119887
	   45 B(6,8,20)       =    119.972745    -0.000025    -0.142776   119.829970
	   46 B(7,5,17)       =    119.062912     0.000129     0.642999   119.705910
	   47 B(7,9,8)        =    119.821622    -0.000105    -0.278689   119.542933
	   48 B(7,9,21)       =    120.084133     0.000054     0.143741   120.227874
	   49 B(8,6,18)       =    119.082835     0.000122     0.621947   119.704782
	   50 B(8,9,21)       =    120.094041     0.000051     0.132462   120.226503
	   51 B(9,7,19)       =    119.939293     0.000028     0.107715   120.047007
	   52 B(9,8,20)       =    119.911405     0.000034     0.135776   120.047181
	   53 B(10,1,11)      =    105.296959     0.000135     1.481521   106.778480
	   54 B(12,2,13)      =    105.385544     0.000030     0.970039   106.355583
	   55 B(14,4,15)      =    107.717784     0.000018     0.233415   107.951199
	   56 B(14,4,16)      =    108.137908     0.000014    -0.221781   107.916128
	   57 B(15,4,16)      =    107.713660     0.000026     0.242794   107.956454
	   58 *D(1,2,4,14)    =     60.209123     0.000000    -0.000000    60.209123
	   59 D(1,2,4,15)     =    179.909943     0.000003     0.301254   180.211197
	   60 D(1,2,4,16)     =    -60.391114     0.000008     0.612188   -59.778925
	   61 D(1,3,5,7)      =   -178.604629    -0.000006    -0.995845  -179.600473
	   62 D(1,3,5,17)     =      1.523306    -0.000004    -0.721454     0.801852
	   63 D(1,3,6,8)      =    178.597102     0.000006     0.957428   179.554530
	   64 D(1,3,6,18)     =     -1.519183     0.000005     0.817296    -0.701887
	   65 *D(2,1,3,5)     =    -93.734702     0.000000    -0.000000   -93.734702
	   66 *D(2,1,3,6)     =     88.741900    -0.000000     0.000000    88.741900
	   67 *D(3,1,2,4)     =    179.939196     0.000000     0.000000   179.939196
	   68 D(3,1,2,12)     =    -57.362945    -0.000005    -0.391661   -57.754606
	   69 D(3,1,2,13)     =     57.292155     0.000006     0.464444    57.756599
	   70 D(3,5,7,9)      =      0.426671     0.000004     0.563858     0.990529
	   71 D(3,5,7,19)     =   -179.631438    -0.000000     0.010196  -179.621242
	   72 D(3,6,8,9)      =     -0.412725    -0.000003    -0.478318    -0.891043
	   73 D(3,6,8,20)     =    179.657356     0.000001     0.077390   179.734746
	   74 D(4,2,1,10)     =     57.546293     0.000008     0.622971    58.169264
	   75 D(4,2,1,11)     =    -57.852174    -0.000007    -0.489056   -58.341230
	   76 D(5,3,1,10)     =     28.784070    -0.000017    -0.885822    27.898248
	   77 D(5,3,1,11)     =    143.843064     0.000019     0.841539   144.684603
	   78 D(5,3,6,8)      =      1.023426     0.000006     0.953912     1.977338
	   79 D(5,3,6,18)     =   -179.092859     0.000005     0.813779  -178.279079
	   80 D(5,7,9,8)      =      0.205177    -0.000001    -0.067261     0.137916
	   81 D(5,7,9,21)     =   -179.958944    -0.000003    -0.498369  -180.457314
	   82 D(6,3,1,10)     =   -148.739328    -0.000017    -0.885822  -149.625150
	   83 D(6,3,1,11)     =    -33.680334     0.000019     0.841539   -32.838795
	   84 D(6,3,5,7)      =     -1.030614    -0.000006    -0.996331    -2.026946
	   85 D(6,3,5,17)     =    179.097321    -0.000005    -0.721941   178.375380
	   86 D(6,8,9,7)      =     -0.212039     0.000000     0.024956    -0.187083
	   87 D(6,8,9,21)     =    179.952099     0.000003     0.456039   180.408138
	   88 D(7,9,8,20)     =    179.717923    -0.000003    -0.532164   179.185760
	   89 D(8,9,7,19)     =   -179.736730     0.000003     0.487720  -179.249010
	   90 D(9,7,5,17)     =   -179.699773     0.000002     0.287069  -179.412704
	   91 D(9,8,6,18)     =    179.702213    -0.000002    -0.336265   179.365948
	   92 D(10,1,2,12)    =   -179.755848     0.000003     0.231310  -179.524538
	   93 D(10,1,2,13)    =    -65.100748     0.000014     1.087415   -64.013333
	   94 D(11,1,2,12)    =     64.845685    -0.000012    -0.880716    63.964968
	   95 D(11,1,2,13)    =    179.500785    -0.000000    -0.024612   179.476173
	   96 D(12,2,4,14)    =    -62.206368     0.000012     0.722617   -61.483751
	   97 D(12,2,4,15)    =     57.494452     0.000015     1.023871    58.518323
	   98 D(12,2,4,16)    =    177.193396     0.000021     1.334805   178.528201
	   99 D(13,2,4,14)    =   -177.452940    -0.000017    -0.823599  -178.276539
	  100 D(13,2,4,15)    =    -57.752119    -0.000015    -0.522345   -58.274465
	  101 D(13,2,4,16)    =     61.946824    -0.000009    -0.211411    61.735413
	  102 D(17,5,7,19)    =      0.242118    -0.000002    -0.266593    -0.024475
	  103 D(18,6,8,20)    =     -0.227706     0.000002     0.219443    -0.008262
	  104 D(19,7,9,21)    =      0.099148     0.000000     0.056612     0.155760
	  105 D(20,8,9,21)    =     -0.117939    -0.000001    -0.101080    -0.219019
	 ---------------------------------------------------------------------------
	Successfully symmetrized geometry.

  ==> Convergence Check <==

  Measures of convergence in internal coordinates in au.
  Criteria marked as inactive (o), active & met (*), and active & unmet ( ).
  --------------------------------------------------------------------------------------------- ~
   Step     Total Energy     Delta E     MAX Force     RMS Force      MAX Disp      RMS Disp    ~
  --------------------------------------------------------------------------------------------- ~
    Convergence Criteria             o    2.50e-03 *    1.70e-03 *    1.00e-02 *    6.70e-03 *  ~
  --------------------------------------------------------------------------------------------- ~
      1    -350.06300121   -3.50e+02 o    1.62e-02      4.04e-03      4.66e-02      1.35e-02    ~
  ---------------------------------------------------------------------------------------------

	Writing optimization data to binary file.
	Structure for next step:
	Cartesian Geometry (in Angstrom)
	    C    -1.5262797784   0.3453927970   0.2713333115
	    C    -2.1723110387  -1.0266123915   0.0336878253
	    C    -0.0282790139   0.3149329288   0.0781207505
	    C    -3.6891444306  -1.0058341842   0.2285457352
	    C     0.8272983696   0.1084655352   1.1613005623
	    C     0.5311538448   0.5440155181  -1.1799649441
	    C     2.2081873048   0.0884473931   0.9856395420
	    C     1.9111735542   0.5259990349  -1.3606793460
	    C     2.7545136545   0.2959553501  -0.2774978486
	    H    -1.7575043941   0.6829946300   1.2861814145
	    H    -1.9683151908   1.0761161995  -0.4131182035
	    H    -1.9299791545  -1.3617347158  -0.9796473424
	    H    -1.7181287356  -1.7525438273   0.7152434452
	    H    -4.1631226340  -0.3078528645  -0.4656760031
	    H    -4.1180257434  -1.9948624725   0.0565100289
	    H    -3.9488347958  -0.6981039524   1.2442261440
	    H     0.4096651402  -0.0442969361   2.1487177297
	    H    -0.1183851585   0.7338574286  -2.0255211689
	    H     2.8564053844  -0.0789883895   1.8352885156
	    H     2.3274721400   0.7013523484  -2.3435710913
	    H     3.8272854866   0.2881279669  -0.4147384940
			--------------------------
			 OPTKING Finished Execution 
			--------------------------

    Structure for next step:
    Molecular point group: c1
    Full point group: C1

    Geometry (in Angstrom), charge = 0, multiplicity = 1:

    C           -1.521397543297     0.349459250406     0.271876549715
    C           -2.167428806096    -1.022545943522     0.034231062561
    C           -0.023396772931     0.318999382052     0.078663987951
    C           -3.684262203980    -1.001767736106     0.229088973299
    C            0.832180613976     0.112531987637     1.161843804006
    C            0.536036088012     0.548081972243    -1.179421711571
    C            2.213069554602     0.092513845525     0.986182783036
    C            1.916055802850     0.530065489044    -1.360136114147
    C            2.759395906445     0.300021803284    -0.276954612554
    H           -1.752622159899     0.687061084760     1.286724656733
    H           -1.963432957382     1.080182655784    -0.412574967981
    H           -1.925096920977    -1.357668269118    -0.979104109040
    H           -1.713246501282    -1.748477382131     0.715786685197
    H           -4.158240409270    -0.303786413719    -0.465132767797
    H           -4.113143518481    -1.990796028332     0.057053266309
    H           -3.943952570208    -0.694037503130     1.244769386074
    H            0.414547382964    -0.040230484233     2.149260975311
    H           -0.113502917841     0.737923883469    -2.024977939667
    H            2.861287636707    -0.074921937777     1.835831759965
    H            2.332354390303     0.705418803220    -2.343027863303
    H            3.832167742792     0.292194420064    -0.414195258476

gradient() will perform analytic gradient computation.

*** tstart() called on daniele-Precision-5750
*** at Wed Jun  2 00:36:26 2021

   => Loading Basis Set <=

    Name: 6-311G
    Role: ORBITAL
    Keyword: BASIS
    atoms 1-9   entry C          line    92 file /home/daniele/anaconda3/envs/poltype/share/psi4/basis/6-311g.gbs 
    atoms 10-21 entry H          line    21 file /home/daniele/anaconda3/envs/poltype/share/psi4/basis/6-311g.gbs 


         ---------------------------------------------------------
                                   SCF
               by Justin Turney, Rob Parrish, Andy Simmonett
                          and Daniel G. A. Smith
                              RKS Reference
                        8 Threads,    667 MiB Core
         ---------------------------------------------------------

  ==> Geometry <==

    Molecular point group: c1
    Full point group: C1

    Geometry (in Angstrom), charge = 0, multiplicity = 1:

       Center              X                  Y                   Z               Mass       
    ------------   -----------------  -----------------  -----------------  -----------------
         C           -1.521397543297     0.349459250406     0.271876549715    12.000000000000
         C           -2.167428806096    -1.022545943522     0.034231062561    12.000000000000
         C           -0.023396772931     0.318999382052     0.078663987951    12.000000000000
         C           -3.684262203980    -1.001767736106     0.229088973299    12.000000000000
         C            0.832180613976     0.112531987637     1.161843804006    12.000000000000
         C            0.536036088012     0.548081972243    -1.179421711571    12.000000000000
         C            2.213069554602     0.092513845525     0.986182783036    12.000000000000
         C            1.916055802850     0.530065489044    -1.360136114147    12.000000000000
         C            2.759395906445     0.300021803284    -0.276954612554    12.000000000000
         H           -1.752622159899     0.687061084760     1.286724656733     1.007825032230
         H           -1.963432957382     1.080182655784    -0.412574967981     1.007825032230
         H           -1.925096920977    -1.357668269118    -0.979104109040     1.007825032230
         H           -1.713246501282    -1.748477382131     0.715786685197     1.007825032230
         H           -4.158240409270    -0.303786413719    -0.465132767797     1.007825032230
         H           -4.113143518481    -1.990796028332     0.057053266309     1.007825032230
         H           -3.943952570208    -0.694037503130     1.244769386074     1.007825032230
         H            0.414547382964    -0.040230484233     2.149260975311     1.007825032230
         H           -0.113502917841     0.737923883469    -2.024977939667     1.007825032230
         H            2.861287636707    -0.074921937777     1.835831759965     1.007825032230
         H            2.332354390303     0.705418803220    -2.343027863303     1.007825032230
         H            3.832167742792     0.292194420064    -0.414195258476     1.007825032230

  Running in c1 symmetry.

  Rotational constants: A =      0.14764  B =      0.02841  C =      0.02539 [cm^-1]
  Rotational constants: A =   4426.21748  B =    851.83660  C =    761.13139 [MHz]
  Nuclear repulsion =  411.416201712000884

  Charge       = 0
  Multiplicity = 1
  Electrons    = 66
  Nalpha       = 33
  Nbeta        = 33

  ==> Algorithm <==

  SCF Algorithm Type is DF.
  DIIS enabled.
  MOM disabled.
  Fractional occupation disabled.
  Guess Type is READ.
  Energy threshold   = 1.00e-08
  Density threshold  = 1.00e-08
  Integral threshold = 0.00e+00

  ==> Primary Basis <==

  Basis Set: 6-311G
    Blend: 6-311G
    Number of shells: 99
    Number of basis function: 153
    Number of Cartesian functions: 153
    Spherical Harmonics?: true
    Max angular momentum: 1

  ==> DFT Potential <==

   => Composite Functional: WB97X-D <= 

    wB97X-D Hyb-GGA Exchange-Correlation Functional

    J.-D. Chai and M. Head-Gordon, Phys. Chem. Chem. Phys. 10, 6615 (2008)

    Deriv               =              1
    GGA                 =           TRUE
    Meta                =          FALSE

    Exchange Hybrid     =           TRUE
    MP2 Hybrid          =          FALSE

   => Exchange-Correlation Functionals <=

    1.0000   wB97D range-separated functional

   => Exact (HF) Exchange <=

    0.7780            HF,LR [omega = 0.2000]
    0.2220               HF 

   => Molecular Quadrature <=

    Radial Scheme          =       TREUTLER
    Pruning Scheme         =           FLAT
    Nuclear Scheme         =       TREUTLER

    BS radius alpha        =              1
    Pruning alpha          =              1
    Radial Points          =             75
    Spherical Points       =            302
    Total Points           =         470068
    Total Blocks           =           3458
    Max Points             =            256
    Max Functions          =            139

   => WB97X-D: Empirical Dispersion <=

    Chai and Head-Gordon Dispersion Correction
    Chai, J.-D.; Head-Gordon, M. (2010), J. Chem. Phys., 132: 6615-6620

        s6 =       1.000000

   => Loading Basis Set <=

    Name: (6-311G AUX)
    Role: JKFIT
    Keyword: DF_BASIS_SCF
    atoms 1-9   entry C          line   125 file /home/daniele/anaconda3/envs/poltype/share/psi4/basis/cc-pvtz-jkfit.gbs 
    atoms 10-21 entry H          line    51 file /home/daniele/anaconda3/envs/poltype/share/psi4/basis/cc-pvtz-jkfit.gbs 

   => Loading Basis Set <=

    Name: 6-311G
    Role: ORBITAL
    Keyword: BASIS
    atoms 1-9   entry C          line    92 file /home/daniele/anaconda3/envs/poltype/share/psi4/basis/6-311g.gbs 
    atoms 10-21 entry H          line    21 file /home/daniele/anaconda3/envs/poltype/share/psi4/basis/6-311g.gbs 

  Reading orbitals from file 180, no projection.

  ==> Pre-Iterations <==

   -------------------------------------------------------
    Irrep   Nso     Nmo     Nalpha   Nbeta   Ndocc  Nsocc
   -------------------------------------------------------
     A        153     153       0       0       0       0
   -------------------------------------------------------
    Total     153     153      33      33      33       0
   -------------------------------------------------------

  ==> Integral Setup <==

  ==> DiskDFJK: Density-Fitted J/K Matrices <==

    J tasked:                  Yes
    K tasked:                  Yes
    wK tasked:                 Yes
    Omega:               2.000E-01
    OpenMP threads:              8
    Integrals threads:           8
    Memory [MiB]:              114
    Algorithm:                Disk
    Integral Cache:           NONE
    Schwarz Cutoff:          1E-12
    Fitting Condition:       1E-10

   => Auxiliary Basis Set <=

  Basis Set: (6-311G AUX)
    Blend: CC-PVTZ-JKFIT
    Number of shells: 345
    Number of basis function: 1071
    Number of Cartesian functions: 1284
    Spherical Harmonics?: true
    Max angular momentum: 4

  Cached 33.3% of DFT collocation blocks in 0.440 [GiB].

  Minimum eigenvalue in the overlap matrix is 2.4528096652E-04.
  Using Symmetric Orthogonalization.

  SCF Guess: Orbitals guess was supplied from a previous computation.

  ==> Iterations <==

                           Total Energy        Delta E     RMS |[F,P]|

   @DF-RKS iter   0:  -350.13637856726984   -3.50136e+02   6.10857e-04 
   @DF-RKS iter   1:  -350.06494822729081    7.14303e-02   1.02450e-04 DIIS
   @DF-RKS iter   2:  -350.06504688668088   -9.86594e-05   7.47917e-05 DIIS
   @DF-RKS iter   3:  -350.06511598522826   -6.90985e-05   7.45229e-06 DIIS
   @DF-RKS iter   4:  -350.06511698847652   -1.00325e-06   4.17453e-06 DIIS
   @DF-RKS iter   5:  -350.06511724556464   -2.57088e-07   1.39391e-06 DIIS
   @DF-RKS iter   6:  -350.06511728306862   -3.75040e-08   5.72349e-07 DIIS
   @DF-RKS iter   7:  -350.06511728801593   -4.94731e-09   1.00824e-07 DIIS
   @DF-RKS iter   8:  -350.06511728834550   -3.29578e-10   3.19594e-08 DIIS
   @DF-RKS iter   9:  -350.06511728836301   -1.75078e-11   1.12733e-08 DIIS
   @DF-RKS iter  10:  -350.06511728836563   -2.61480e-12   2.20389e-09 DIIS
  Energy and wave function converged.


  ==> Post-Iterations <==

    Orbital Energies [Eh]
    ---------------------

    Doubly Occupied:                                                      

       1A    -10.296863     2A    -10.288391     3A    -10.288311  
       4A    -10.286213     5A    -10.285793     6A    -10.285777  
       7A    -10.283720     8A    -10.280534     9A    -10.270492  
      10A     -0.967277    11A     -0.902366    12A     -0.851009  
      13A     -0.849172    14A     -0.779644    15A     -0.704125  
      16A     -0.699675    17A     -0.672476    18A     -0.608142  
      19A     -0.567395    20A     -0.547210    21A     -0.531954  
      22A     -0.518258    23A     -0.510060    24A     -0.502719  
      25A     -0.465408    26A     -0.464413    27A     -0.448134  
      28A     -0.425603    29A     -0.423617    30A     -0.409440  
      31A     -0.408563    32A     -0.329122    33A     -0.318701  

    Virtual:                                                              

      34A      0.066706    35A      0.068684    36A      0.120445  
      37A      0.134840    38A      0.145730    39A      0.159823  
      40A      0.166913    41A      0.175516    42A      0.192773  
      43A      0.208647    44A      0.210365    45A      0.220746  
      46A      0.225925    47A      0.237228    48A      0.242699  
      49A      0.286486    50A      0.307069    51A      0.314834  
      52A      0.358679    53A      0.366134    54A      0.376620  
      55A      0.379768    56A      0.389092    57A      0.402003  
      58A      0.418051    59A      0.423475    60A      0.448383  
      61A      0.479994    62A      0.480873    63A      0.495211  
      64A      0.499181    65A      0.503079    66A      0.525451  
      67A      0.542055    68A      0.557382    69A      0.563700  
      70A      0.579456    71A      0.589792    72A      0.598285  
      73A      0.634460    74A      0.639931    75A      0.647244  
      76A      0.673040    77A      0.682374    78A      0.687195  
      79A      0.691215    80A      0.694976    81A      0.702075  
      82A      0.707038    83A      0.708469    84A      0.724577  
      85A      0.727250    86A      0.728416    87A      0.748820  
      88A      0.765279    89A      0.775277    90A      0.806840  
      91A      0.812339    92A      0.854106    93A      0.875918  
      94A      0.891123    95A      0.934303    96A      0.946008  
      97A      0.975084    98A      0.975780    99A      1.011498  
     100A      1.074623   101A      1.128233   102A      1.138452  
     103A      1.185803   104A      1.218451   105A      1.367299  
     106A      2.309032   107A      2.341343   108A      2.350454  
     109A      2.355924   110A      2.364181   111A      2.398240  
     112A      2.409849   113A      2.414566   114A      2.417491  
     115A      2.430778   116A      2.466090   117A      2.616239  
     118A      2.643885   119A      2.675786   120A      2.704006  
     121A      2.774729   122A      2.799921   123A      2.821685  
     124A      2.843439   125A      2.907625   126A      2.922018  
     127A      2.928173   128A      2.953876   129A      2.977590  
     130A      2.982434   131A      3.001990   132A      3.070301  
     133A      3.076755   134A      3.127730   135A      3.149983  
     136A      3.179254   137A      3.202010   138A      3.226324  
     139A      3.291095   140A      3.314457   141A      3.362961  
     142A      3.398873   143A      3.420156   144A      3.547554  
     145A     23.260039   146A     23.474338   147A     23.488855  
     148A     23.540500   149A     23.640918   150A     23.741482  
     151A     23.762293   152A     23.768824   153A     24.026714  

    Final Occupation by Irrep:
              A 
    DOCC [    33 ]

  @DF-RKS Final Energy:  -350.06511728836563

   => Energetics <=

    Nuclear Repulsion Energy =            411.4162017120008841
    One-Electron Energy =               -1285.3743190912869068
    Two-Electron Energy =                 560.3021441912832188
    DFT Exchange-Correlation Energy =     -36.3975567592824660
    Empirical Dispersion Energy =          -0.0115873410803067
    VV10 Nonlocal Energy =                  0.0000000000000000
    Total Energy =                       -350.0651172883655704

Computation Completed


Properties will be evaluated at   0.000000,   0.000000,   0.000000 [a0]

Properties computed using the SCF density matrix

  Nuclear Dipole Moment: [e a0]
     X:    -9.6024      Y:    -2.5379      Z:     0.6097

  Electronic Dipole Moment: [e a0]
     X:     9.4703      Y:     2.5059      Z:    -0.6022

  Dipole Moment: [e a0]
     X:    -0.1321      Y:    -0.0320      Z:     0.0076     Total:     0.1361

  Dipole Moment: [D]
     X:    -0.3358      Y:    -0.0813      Z:     0.0192     Total:     0.3460


*** tstop() called on daniele-Precision-5750 at Wed Jun  2 00:36:35 2021
Module time:
	user time   =      67.58 seconds =       1.13 minutes
	system time =       1.95 seconds =       0.03 minutes
	total time  =          9 seconds =       0.15 minutes
Total time:
	user time   =     182.14 seconds =       3.04 minutes
	system time =       4.75 seconds =       0.08 minutes
	total time  =         24 seconds =       0.40 minutes

*** tstart() called on daniele-Precision-5750
*** at Wed Jun  2 00:36:35 2021


         ------------------------------------------------------------
                                   SCF GRAD                          
                          Rob Parrish, Justin Turney,                
                       Andy Simmonett, and Alex Sokolov              
         ------------------------------------------------------------

  ==> Geometry <==

    Molecular point group: c1
    Full point group: C1

    Geometry (in Angstrom), charge = 0, multiplicity = 1:

       Center              X                  Y                   Z               Mass       
    ------------   -----------------  -----------------  -----------------  -----------------
         C           -1.521397543297     0.349459250406     0.271876549715    12.000000000000
         C           -2.167428806096    -1.022545943522     0.034231062561    12.000000000000
         C           -0.023396772931     0.318999382052     0.078663987951    12.000000000000
         C           -3.684262203980    -1.001767736106     0.229088973299    12.000000000000
         C            0.832180613976     0.112531987637     1.161843804006    12.000000000000
         C            0.536036088012     0.548081972243    -1.179421711571    12.000000000000
         C            2.213069554602     0.092513845525     0.986182783036    12.000000000000
         C            1.916055802850     0.530065489044    -1.360136114147    12.000000000000
         C            2.759395906445     0.300021803284    -0.276954612554    12.000000000000
         H           -1.752622159899     0.687061084760     1.286724656733     1.007825032230
         H           -1.963432957382     1.080182655784    -0.412574967981     1.007825032230
         H           -1.925096920977    -1.357668269118    -0.979104109040     1.007825032230
         H           -1.713246501282    -1.748477382131     0.715786685197     1.007825032230
         H           -4.158240409270    -0.303786413719    -0.465132767797     1.007825032230
         H           -4.113143518481    -1.990796028332     0.057053266309     1.007825032230
         H           -3.943952570208    -0.694037503130     1.244769386074     1.007825032230
         H            0.414547382964    -0.040230484233     2.149260975311     1.007825032230
         H           -0.113502917841     0.737923883469    -2.024977939667     1.007825032230
         H            2.861287636707    -0.074921937777     1.835831759965     1.007825032230
         H            2.332354390303     0.705418803220    -2.343027863303     1.007825032230
         H            3.832167742792     0.292194420064    -0.414195258476     1.007825032230

  Nuclear repulsion =  411.416201712000884

  ==> Basis Set <==

  Basis Set: 6-311G
    Blend: 6-311G
    Number of shells: 99
    Number of basis function: 153
    Number of Cartesian functions: 153
    Spherical Harmonics?: true
    Max angular momentum: 1

  ==> DFJKGrad: Density-Fitted SCF Gradients <==

    Gradient:                    1
    J tasked:                  Yes
    K tasked:                  Yes
    wK tasked:                 Yes
    Omega:               2.000E-01
    OpenMP threads:              8
    Integrals threads:           8
    Memory [MiB]:              500
    Schwarz Cutoff:          0E+00
    Fitting Condition:       1E-10

   => Auxiliary Basis Set <=

  Basis Set: (6-311G AUX)
    Blend: CC-PVTZ-JKFIT
    Number of shells: 345
    Number of basis function: 1071
    Number of Cartesian functions: 1284
    Spherical Harmonics?: true
    Max angular momentum: 4

  ==> DFT Potential <==

   => Composite Functional: WB97X-D <= 

    wB97X-D Hyb-GGA Exchange-Correlation Functional

    J.-D. Chai and M. Head-Gordon, Phys. Chem. Chem. Phys. 10, 6615 (2008)

    Deriv               =              1
    GGA                 =           TRUE
    Meta                =          FALSE

    Exchange Hybrid     =           TRUE
    MP2 Hybrid          =          FALSE

   => Exchange-Correlation Functionals <=

    1.0000   wB97D range-separated functional

   => Exact (HF) Exchange <=

    0.7780            HF,LR [omega = 0.2000]
    0.2220               HF 

   => Molecular Quadrature <=

    Radial Scheme          =       TREUTLER
    Pruning Scheme         =           FLAT
    Nuclear Scheme         =       TREUTLER

    BS radius alpha        =              1
    Pruning alpha          =              1
    Radial Points          =             75
    Spherical Points       =            302
    Total Points           =         470068
    Total Blocks           =           3458
    Max Points             =            256
    Max Functions          =            139


  -Total Gradient:
     Atom            X                  Y                   Z
    ------   -----------------  -----------------  -----------------
       1       -0.001464961803     0.000591697313     0.000479363228
       2        0.000948048442     0.001308736907    -0.000140508709
       3        0.002668303403    -0.008318271284    -0.002099154900
       4       -0.000211412810     0.001102347243     0.000382591929
       5       -0.001244057438     0.003385309412    -0.001017425268
       6       -0.000949804955     0.002496943728     0.002505823459
       7       -0.000595368261     0.000070907109    -0.001378986666
       8       -0.000127457583    -0.000423691865     0.001543525165
       9       -0.001558475748     0.000032775009     0.000097007407
      10        0.000529306075     0.000106707418     0.000168055824
      11        0.000472302970     0.000212469610    -0.000205268763
      12        0.000034517988     0.000110718849    -0.000190264092
      13        0.000076793277     0.000074636333     0.000193106286
      14        0.000200368210    -0.000117587625    -0.000070466132
      15        0.000530375986    -0.000341065182    -0.000192184757
      16        0.000195742584    -0.000172148017    -0.000017908492
      17        0.000355206432    -0.000101879509    -0.000230560905
      18        0.000414991670    -0.000110741642     0.000092603469
      19       -0.000104579897     0.000011172258    -0.000185500501
      20       -0.000071545086    -0.000007622756     0.000196986660
      21       -0.000038984074     0.000144312241     0.000021565862


*** tstop() called on daniele-Precision-5750 at Wed Jun  2 00:36:40 2021
Module time:
	user time   =      36.27 seconds =       0.60 minutes
	system time =       0.45 seconds =       0.01 minutes
	total time  =          5 seconds =       0.08 minutes
Total time:
	user time   =     218.42 seconds =       3.64 minutes
	system time =       5.20 seconds =       0.09 minutes
	total time  =         29 seconds =       0.48 minutes

			-----------------------------------------
			 OPTKING 2.0: for geometry optimizations 
			  - R.A. King,  Bethel University        
			-----------------------------------------
	At level 1: Red. Int., RFO, no backsteps, dynamic trust

	Previous internal coordinate definitions found.
	---Fragment 1 Geometry and Gradient---
	 C          -2.8750246848        0.6603822753        0.5137722189
	 C          -4.0958468400       -1.9323317840        0.0646873332
	 C          -0.0442134931        0.6028214663        0.1486533932
	 C          -6.9622465399       -1.8930666626        0.4329154179
	 C           1.5725934473        0.2126546370        2.1955665901
	 C           1.0129613997        1.0357248218       -2.2287840213
	 C           4.1820953548        0.1748258309        1.8636153696
	 C           3.6208207085        1.0016786028       -2.5702847491
	 C           5.2145025349        0.5669590399       -0.5233683669
	 H          -3.3119758836        1.2983572817        2.4315572001
	 H          -3.7103505552        2.0412493849       -0.7796536957
	 H          -3.6379059456       -2.5656211979       -1.8502386144
	 H          -3.2375666728       -3.3041433888        1.3526407993
	 H          -7.8579355373       -0.5740731226       -0.8789735431
	 H          -7.7727147646       -3.7620592652        0.1078150479
	 H          -7.4529902095       -1.3115408017        2.3522732290
	 H           0.7833810198       -0.0760245971        4.0615146155
	 H          -0.2144894292        1.3944740412       -3.8266537161
	 H           5.4070499995       -0.1415819432        3.4692192388
	 H           4.4075110252        1.3330483418       -4.4276809660
	 H           7.2417475007        0.5521674293       -0.7827156010
	            -0.0014649618        0.0005916973        0.0004793632
	             0.0009480484        0.0013087369       -0.0001405087
	             0.0026683034       -0.0083182713       -0.0020991549
	            -0.0002114128        0.0011023472        0.0003825919
	            -0.0012440574        0.0033853094       -0.0010174253
	            -0.0009498050        0.0024969437        0.0025058235
	            -0.0005953683        0.0000709071       -0.0013789867
	            -0.0001274576       -0.0004236919        0.0015435252
	            -0.0015584757        0.0000327750        0.0000970074
	             0.0005293061        0.0001067074        0.0001680558
	             0.0004723030        0.0002124696       -0.0002052688
	             0.0000345180        0.0001107188       -0.0001902641
	             0.0000767933        0.0000746363        0.0001931063
	             0.0002003682       -0.0001175876       -0.0000704661
	             0.0005303760       -0.0003410652       -0.0001921848
	             0.0001957426       -0.0001721480       -0.0000179085
	             0.0003552064       -0.0001018795       -0.0002305609
	             0.0004149917       -0.0001107416        0.0000926035
	            -0.0001045799        0.0000111723       -0.0001855005
	            -0.0000715451       -0.0000076228        0.0001969867
	            -0.0000389841        0.0001443122        0.0000215659

	---Fragment 1 Intrafragment Coordinates---
	 - Coordinate -           - BOHR/RAD -       - ANG/DEG -
	 R(1,2)           =         2.900733	       1.535002
	 R(1,3)           =         2.854841	       1.510717
	 R(1,10)          =         2.067810	       1.094238
	 R(1,11)          =         2.068215	       1.094452
	 R(2,4)           =         2.890222	       1.529439
	 R(2,12)          =         2.068262	       1.094477
	 R(2,13)          =         2.068172	       1.094430
	 R(3,5)           =         2.637451	       1.395679
	 R(3,6)           =         2.637657	       1.395788
	 R(4,14)          =         2.064717	       1.092601
	 R(4,15)          =         2.062931	       1.091656
	 R(4,16)          =         2.064688	       1.092586
	 R(5,7)           =         2.630803	       1.392161
	 R(5,17)          =         2.046449	       1.082934
	 R(6,8)           =         2.630344	       1.391918
	 R(6,18)          =         2.046588	       1.083008
	 R(7,9)           =         2.630081	       1.391779
	 R(7,19)          =         2.044160	       1.081723
	 R(8,9)           =         2.630336	       1.391914
	 R(8,20)          =         2.044164	       1.081725
	 R(9,21)          =         2.043820	       1.081543
	 B(1,2,4)         =         1.966579	     112.676679
	 B(1,2,12)        =         1.900576	     108.894993
	 B(1,2,13)        =         1.898419	     108.771414
	 B(1,3,5)         =         2.107823	     120.769338
	 B(1,3,6)         =         2.105278	     120.623549
	 B(2,1,3)         =         1.960055	     112.302864
	 B(2,1,10)        =         1.907542	     109.294088
	 B(2,1,11)        =         1.907059	     109.266441
	 B(2,4,14)        =         1.936878	     110.974928
	 B(2,4,15)        =         1.936116	     110.931276
	 B(2,4,16)        =         1.936909	     110.976715
	 B(3,1,10)        =         1.911732	     109.534153
	 B(3,1,11)        =         1.911305	     109.509696
	 B(3,5,7)         =         2.108606	     120.814204
	 B(3,5,17)        =         2.085296	     119.478670
	 B(3,6,8)         =         2.108626	     120.815343
	 B(3,6,18)        =         2.085309	     119.479381
	 B(4,2,12)        =         1.919530	     109.980944
	 B(4,2,13)        =         1.919036	     109.952683
	 B(5,3,6)         =         2.069298	     118.562050
	 B(5,7,9)         =         2.096396	     120.114664
	 B(5,7,19)        =         2.091524	     119.835498
	 B(6,8,9)         =         2.096488	     120.119887
	 B(6,8,20)        =         2.091428	     119.829970
	 B(7,5,17)        =         2.089262	     119.705910
	 B(7,9,8)         =         2.086418	     119.542933
	 B(7,9,21)        =         2.098372	     120.227874
	 B(8,6,18)        =         2.089243	     119.704782
	 B(8,9,21)        =         2.098348	     120.226503
	 B(9,7,19)        =         2.095216	     120.047007
	 B(9,8,20)        =         2.095219	     120.047181
	 B(10,1,11)       =         1.863636	     106.778480
	 B(12,2,13)       =         1.856255	     106.355583
	 B(14,4,15)       =         1.884104	     107.951199
	 B(14,4,16)       =         1.883492	     107.916128
	 B(15,4,16)       =         1.884196	     107.956454
	*D(1,2,4,14)      =         1.050847	      60.209123
	 D(1,2,4,15)      =        -3.137907	    -179.788803
	 D(1,2,4,16)      =        -1.043339	     -59.778925
	 D(1,3,5,7)       =        -3.134620	    -179.600473
	 D(1,3,5,17)      =         0.013995	       0.801852
	 D(1,3,6,8)       =         3.133818	     179.554530
	 D(1,3,6,18)      =        -0.012250	      -0.701887
	*D(2,1,3,5)       =        -1.635979	     -93.734702
	*D(2,1,3,6)       =         1.548838	      88.741900
	*D(3,1,2,4)       =         3.140531	     179.939196
	 D(3,1,2,12)      =        -1.008008	     -57.754606
	 D(3,1,2,13)      =         1.008043	      57.756599
	 D(3,5,7,9)       =         0.017288	       0.990529
	 D(3,5,7,19)      =        -3.134982	    -179.621242
	 D(3,6,8,9)       =        -0.015552	      -0.891043
	 D(3,6,8,20)      =         3.136963	     179.734746
	 D(4,2,1,10)      =         1.015245	      58.169264
	 D(4,2,1,11)      =        -1.018247	     -58.341230
	 D(5,3,1,10)      =         0.486916	      27.898248
	 D(5,3,1,11)      =         2.525223	     144.684603
	 D(5,3,6,8)       =         0.034511	       1.977338
	 D(5,3,6,18)      =        -3.111557	    -178.279079
	 D(5,7,9,8)       =         0.002407	       0.137916
	 D(5,7,9,21)      =         3.133611	     179.542686
	 D(6,3,1,10)      =        -2.611452	    -149.625150
	 D(6,3,1,11)      =        -0.573145	     -32.838795
	 D(6,3,5,7)       =        -0.035377	      -2.026946
	 D(6,3,5,17)      =         3.113238	     178.375380
	 D(6,8,9,7)       =        -0.003265	      -0.187083
	 D(6,8,9,21)      =        -3.134469	    -179.591862
	 D(7,9,8,20)      =         3.127381	     179.185760
	 D(8,9,7,19)      =        -3.128485	    -179.249010
	 D(9,7,5,17)      =        -3.131342	    -179.412704
	 D(9,8,6,18)      =         3.130526	     179.365948
	 D(10,1,2,12)     =        -3.133294	    -179.524538
	 D(10,1,2,13)     =        -1.117243	     -64.013333
	 D(11,1,2,12)     =         1.116399	      63.964968
	 D(11,1,2,13)     =         3.132450	     179.476173
	 D(12,2,4,14)     =        -1.073094	     -61.483751
	 D(12,2,4,15)     =         1.021337	      58.518323
	 D(12,2,4,16)     =         3.115905	     178.528201
	 D(13,2,4,14)     =        -3.111513	    -178.276539
	 D(13,2,4,15)     =        -1.017081	     -58.274465
	 D(13,2,4,16)     =         1.077486	      61.735413
	 D(17,5,7,19)     =        -0.000427	      -0.024475
	 D(18,6,8,20)     =        -0.000144	      -0.008262
	 D(19,7,9,21)     =         0.002719	       0.155760
	 D(20,8,9,21)     =        -0.003823	      -0.219019

	Current energy   :      -350.0651172884

	Energy change for the previous step:
		Projected    :        -0.0039827104
		Actual       :        -0.0021160746

	Performing BFGS update.
	Previous computed or guess Hessian on step 1.
	Steps to be used in Hessian update: 1
	Taking RFO optimization step.
	Going to follow RFO solution 1.
	Using RFO vector 1.
	Norm of target step-size    0.02597
	Projected energy change by RFO approximation:        -0.0000888503

	Back-transformation to cartesian coordinates...
	Could not converge backtransformation.
	Using first guess instead.

	Back-transformation to cartesian coordinates to adjust frozen coordinates...
	Successfully converged to displaced geometry.

	--- Internal Coordinate Step in ANG or DEG, aJ/ANG or AJ/DEG ---
	 ---------------------------------------------------------------------------
	   Coordinate                Previous        Force       Change         New 
	   ----------                --------       ------       ------       ------
	    1 R(1,2)          =      1.535002     0.020569     0.004103     1.539105
	    2 R(1,3)          =      1.510717     0.009488     0.001581     1.512298
	    3 R(1,10)         =      1.094238    -0.000600    -0.000141     1.094096
	    4 R(1,11)         =      1.094452    -0.000697    -0.000156     1.094296
	    5 R(2,4)          =      1.529439     0.005535     0.000970     1.530409
	    6 R(2,12)         =      1.094477    -0.001160    -0.000245     1.094232
	    7 R(2,13)         =      1.094430    -0.000893    -0.000197     1.094233
	    8 R(3,5)          =      1.395679     0.022591     0.002812     1.398491
	    9 R(3,6)          =      1.395788     0.023837     0.002982     1.398770
	   10 R(4,14)         =      1.092601     0.000979     0.000134     1.092735
	   11 R(4,15)         =      1.091656    -0.001072    -0.000180     1.091475
	   12 R(4,16)         =      1.092586     0.000860     0.000127     1.092713
	   13 R(5,7)          =      1.392161     0.010679     0.001196     1.393356
	   14 R(5,17)         =      1.082934     0.002723     0.000376     1.083310
	   15 R(6,8)          =      1.391918     0.010127     0.001124     1.393042
	   16 R(6,18)         =      1.083008     0.002807     0.000391     1.083399
	   17 R(7,9)          =      1.391779     0.014218     0.001629     1.393408
	   18 R(7,19)         =      1.081723     0.001731     0.000202     1.081925
	   19 R(8,9)          =      1.391914     0.015067     0.001742     1.393656
	   20 R(8,20)         =      1.081725     0.001732     0.000203     1.081928
	   21 R(9,21)         =      1.081543     0.000369    -0.000022     1.081521
	   22 B(1,2,4)        =    112.676679     0.000011     0.041852   112.718530
	   23 B(1,2,12)       =    108.894993     0.000005     0.015949   108.910942
	   24 B(1,2,13)       =    108.771414    -0.000001     0.051594   108.823008
	   25 B(1,3,5)        =    120.769338     0.000039     0.101743   120.871081
	   26 B(1,3,6)        =    120.623549     0.000026     0.065333   120.688881
	   27 B(2,1,3)        =    112.302864     0.000078     0.292192   112.595055
	   28 B(2,1,10)       =    109.294088    -0.000045    -0.238937   109.055151
	   29 B(2,1,11)       =    109.266441    -0.000044    -0.230945   109.035496
	   30 B(2,4,14)       =    110.974928     0.000003    -0.018177   110.956751
	   31 B(2,4,15)       =    110.931276     0.000067     0.354174   111.285450
	   32 B(2,4,16)       =    110.976715     0.000003    -0.033660   110.943055
	   33 B(3,1,10)       =    109.534153     0.000003     0.146729   109.680881
	   34 B(3,1,11)       =    109.509696     0.000002     0.154151   109.663847
	   35 B(3,5,7)        =    120.814204     0.000026     0.084274   120.898478
	   36 B(3,5,17)       =    119.478670    -0.000032    -0.130918   119.347751
	   37 B(3,6,8)        =    120.815343     0.000028     0.091819   120.907162
	   38 B(3,6,18)       =    119.479381    -0.000035    -0.143679   119.335703
	   39 B(4,2,12)       =    109.980944    -0.000007    -0.030990   109.949953
	   40 B(4,2,13)       =    109.952683    -0.000005    -0.012362   109.940321
	   41 B(5,3,6)        =    118.562050    -0.000065    -0.166926   118.395124
	   42 B(5,7,9)        =    120.114664     0.000001    -0.007456   120.107207
	   43 B(5,7,19)       =    119.835498    -0.000002    -0.003280   119.832218
	   44 B(6,8,9)        =    120.119887    -0.000003    -0.018722   120.101164
	   45 B(6,8,20)       =    119.829970     0.000000     0.004104   119.834074
	   46 B(7,5,17)       =    119.705910     0.000006     0.047564   119.753474
	   47 B(7,9,8)        =    119.542933     0.000013     0.016589   119.559523
	   48 B(7,9,21)       =    120.227874    -0.000007    -0.009035   120.218839
	   49 B(8,6,18)       =    119.704782     0.000007     0.052311   119.757093
	   50 B(8,9,21)       =    120.226503    -0.000006    -0.007367   120.219135
	   51 B(9,7,19)       =    120.047007     0.000001     0.011588   120.058595
	   52 B(9,8,20)       =    120.047181     0.000002     0.015314   120.062495
	   53 B(10,1,11)      =    106.778480     0.000004    -0.149124   106.629357
	   54 B(12,2,13)      =    106.355583    -0.000005    -0.071730   106.283853
	   55 B(14,4,15)      =    107.951199    -0.000033    -0.056408   107.894791
[...]
	 R(1,3)           =         2.857829	       1.512298
	 R(1,10)          =         2.067543	       1.094096
	 R(1,11)          =         2.067921	       1.094296
	 R(2,4)           =         2.892054	       1.530409
	 R(2,12)          =         2.067800	       1.094232
	 R(2,13)          =         2.067801	       1.094233
	 R(3,5)           =         2.642765	       1.398491
	 R(3,6)           =         2.643291	       1.398770
	 R(4,14)          =         2.064971	       1.092735
	 R(4,15)          =         2.062589	       1.091475
	 R(4,16)          =         2.064928	       1.092713
	 R(5,7)           =         2.633062	       1.393356
	 R(5,17)          =         2.047160	       1.083310
	 R(6,8)           =         2.632468	       1.393042
	 R(6,18)          =         2.047327	       1.083399
	 R(7,9)           =         2.633159	       1.393408
	 R(7,19)          =         2.044542	       1.081925
	 R(8,9)           =         2.633629	       1.393656
	 R(8,20)          =         2.044548	       1.081928
	 R(9,21)          =         2.043779	       1.081521
	 B(1,2,4)         =         1.967309	     112.718530
	 B(1,2,12)        =         1.900855	     108.910942
	 B(1,2,13)        =         1.899320	     108.823008
	 B(1,3,5)         =         2.109598	     120.871081
	 B(1,3,6)         =         2.106418	     120.688881
	 B(2,1,3)         =         1.965154	     112.595055
	 B(2,1,10)        =         1.903371	     109.055151
	 B(2,1,11)        =         1.903028	     109.035496
	 B(2,4,14)        =         1.936561	     110.956751
	 B(2,4,15)        =         1.942298	     111.285450
	 B(2,4,16)        =         1.936322	     110.943055
	 B(3,1,10)        =         1.914293	     109.680881
	 B(3,1,11)        =         1.913995	     109.663847
	 B(3,5,7)         =         2.110076	     120.898478
	 B(3,5,17)        =         2.083011	     119.347751
	 B(3,6,8)         =         2.110228	     120.907162
	 B(3,6,18)        =         2.082801	     119.335703
	 B(4,2,12)        =         1.918989	     109.949953
	 B(4,2,13)        =         1.918821	     109.940321
	 B(5,3,6)         =         2.066385	     118.395124
	 B(5,7,9)         =         2.096266	     120.107207
	 B(5,7,19)        =         2.091467	     119.832218
	 B(6,8,9)         =         2.096161	     120.101164
	 B(6,8,20)        =         2.091499	     119.834074
	 B(7,5,17)        =         2.090092	     119.753474
	 B(7,9,8)         =         2.086707	     119.559523
	 B(7,9,21)        =         2.098215	     120.218839
	 B(8,6,18)        =         2.090156	     119.757093
	 B(8,9,21)        =         2.098220	     120.219135
	 B(9,7,19)        =         2.095418	     120.058595
	 B(9,8,20)        =         2.095486	     120.062495
	 B(10,1,11)       =         1.861033	     106.629357
	 B(12,2,13)       =         1.855003	     106.283853
	 B(14,4,15)       =         1.883119	     107.894791
	 B(14,4,16)       =         1.880181	     107.726452
	 B(15,4,16)       =         1.882908	     107.882705
	*D(1,2,4,14)      =         1.050847	      60.209123
	 D(1,2,4,15)      =        -3.135242	    -179.636124
	 D(1,2,4,16)      =        -1.038573	     -59.505871
	 D(1,3,5,7)       =        -3.134343	    -179.584618
	 D(1,3,5,17)      =         0.010715	       0.613898
	 D(1,3,6,8)       =         3.133883	     179.558294
	 D(1,3,6,18)      =        -0.009015	      -0.516524
	*D(2,1,3,5)       =        -1.635979	     -93.734702
	*D(2,1,3,6)       =         1.548838	      88.741900
	*D(3,1,2,4)       =         3.140531	     179.939196
	 D(3,1,2,12)      =        -1.008010	     -57.754720
	 D(3,1,2,13)      =         1.007193	      57.707895
	 D(3,5,7,9)       =         0.015206	       0.871255
	 D(3,5,7,19)      =        -3.135313	    -179.640226
	 D(3,6,8,9)       =        -0.014119	      -0.808937
	 D(3,6,8,20)      =         3.137026	     179.738370
	 D(4,2,1,10)      =         1.011523	      57.956002
	 D(4,2,1,11)      =        -1.014266	     -58.113151
	 D(5,3,1,10)      =         0.486839	      27.893808
	 D(5,3,1,11)      =         2.525037	     144.673954
	 D(5,3,6,8)       =         0.034465	       1.974711
	 D(5,3,6,18)      =        -3.108433	    -178.100107
	 D(5,7,9,8)       =         0.005935	       0.340024
	 D(5,7,9,21)      =         3.137504	     179.765760
	 D(6,3,1,10)      =        -2.611529	    -149.629590
	 D(6,3,1,11)      =        -0.573331	     -32.849443
	 D(6,3,5,7)       =        -0.035005	      -2.005619
	 D(6,3,5,17)      =         3.110053	     178.192898
	 D(6,8,9,7)       =        -0.006471	      -0.370759
	 D(6,8,9,21)      =        -3.138041	    -179.796493
	 D(7,9,8,20)      =         3.125547	     179.080675
	 D(8,9,7,19)      =        -3.126711	    -179.147330
	 D(9,7,5,17)      =        -3.129865	    -179.328060
	 D(9,8,6,18)      =         3.128785	     179.266193
	 D(10,1,2,12)     =        -3.137018	    -179.737914
	 D(10,1,2,13)     =        -1.121816	     -64.275299
	 D(11,1,2,12)     =         1.120378	      64.192933
	 D(11,1,2,13)     =         3.135581	     179.655548
	 D(12,2,4,14)     =        -1.073564	     -61.510699
	 D(12,2,4,15)     =         1.023532	      58.644054
	 D(12,2,4,16)     =         3.120200	     178.774307
	 D(13,2,4,14)     =        -3.110014	    -178.190691
	 D(13,2,4,15)     =        -1.012918	     -58.035938
	 D(13,2,4,16)     =         1.083750	      62.094316
	 D(17,5,7,19)     =         0.002801	       0.160459
	 D(18,6,8,20)     =        -0.003255	      -0.186499
	 D(19,7,9,21)     =         0.004859	       0.278406
	 D(20,8,9,21)     =        -0.006022	      -0.345059

	Current energy   :      -350.0651742399

	Energy change for the previous step:
		Projected    :        -0.0000888503
		Actual       :        -0.0000569516

	Performing BFGS update.
	Previous computed or guess Hessian on step 1.
	Steps to be used in Hessian update: 2 1
	Taking RFO optimization step.
	Going to follow RFO solution 1.
	Using RFO vector 1.
	Norm of target step-size    0.00642
	Projected energy change by RFO approximation:        -0.0000055112

	Back-transformation to cartesian coordinates...
	Successfully converged to displaced geometry.

	Back-transformation to cartesian coordinates to adjust frozen coordinates...
	Successfully converged to displaced geometry.

	--- Internal Coordinate Step in ANG or DEG, aJ/ANG or AJ/DEG ---
	 ---------------------------------------------------------------------------
	   Coordinate                Previous        Force       Change         New 
	   ----------                --------       ------       ------       ------
	    1 R(1,2)          =      1.539105     0.001801     0.000547     1.539652
	    2 R(1,3)          =      1.512298    -0.004963    -0.001228     1.511070
	    3 R(1,10)         =      1.094096     0.000411     0.000055     1.094151
	    4 R(1,11)         =      1.094296     0.000275     0.000028     1.094325
	    5 R(2,4)          =      1.530409    -0.001466    -0.000376     1.530033
	    6 R(2,12)         =      1.094232     0.000147    -0.000004     1.094228
	    7 R(2,13)         =      1.094233     0.000006    -0.000030     1.094203
	    8 R(3,5)          =      1.398491     0.001235     0.000221     1.398712
	    9 R(3,6)          =      1.398770     0.001823     0.000323     1.399092
	   10 R(4,14)         =      1.092735     0.000998     0.000190     1.092926
	   11 R(4,15)         =      1.091475    -0.000849    -0.000195     1.091281
	   12 R(4,16)         =      1.092713     0.001051     0.000201     1.092913
	   13 R(5,7)          =      1.393356    -0.000484    -0.000109     1.393247
	   14 R(5,17)         =      1.083310     0.000749     0.000130     1.083440
	   15 R(6,8)          =      1.393042    -0.000848    -0.000169     1.392873
	   16 R(6,18)         =      1.083399     0.000752     0.000131     1.083530
	   17 R(7,9)          =      1.393408     0.000654     0.000092     1.393500
	   18 R(7,19)         =      1.081925     0.000314     0.000033     1.081958
	   19 R(8,9)          =      1.393656     0.001095     0.000166     1.393822
	   20 R(8,20)         =      1.081928     0.000287     0.000028     1.081956
	   21 R(9,21)         =      1.081521     0.000411     0.000041     1.081562
	   22 B(1,2,4)        =    112.718530    -0.000029    -0.120385   112.598146
	   23 B(1,2,12)       =    108.910942     0.000006     0.000183   108.911125
	   24 B(1,2,13)       =    108.823008     0.000007     0.003589   108.826597
	   25 B(1,3,5)        =    120.871081     0.000004     0.016497   120.887578
	   26 B(1,3,6)        =    120.688881    -0.000000     0.001726   120.690607
	   27 B(2,1,3)        =    112.595055    -0.000001     0.003892   112.598947
	   28 B(2,1,10)       =    109.055151    -0.000005    -0.053751   109.001400
	   29 B(2,1,11)       =    109.035496    -0.000005    -0.062052   108.973443
	   30 B(2,4,14)       =    110.956751     0.000005     0.024327   110.981078
	   31 B(2,4,15)       =    111.285450    -0.000001     0.009518   111.294969
	   32 B(2,4,16)       =    110.943055     0.000005     0.025047   110.968101
	   33 B(3,1,10)       =    109.680881     0.000005     0.046396   109.727277
	   34 B(3,1,11)       =    109.663847     0.000004     0.039940   109.703786
	   35 B(3,5,7)        =    120.898478     0.000001     0.007592   120.906070
	   36 B(3,5,17)       =    119.347751    -0.000006    -0.039430   119.308321
	   37 B(3,6,8)        =    120.907162     0.000001     0.010369   120.917531
	   38 B(3,6,18)       =    119.335703    -0.000007    -0.047736   119.287967
	   39 B(4,2,12)       =    109.949953     0.000011     0.051527   110.001480
	   40 B(4,2,13)       =    109.940321     0.000011     0.048163   109.988484
	   41 B(5,3,6)        =    118.395124    -0.000004    -0.018207   118.376917
	   42 B(5,7,9)        =    120.107207     0.000001     0.002767   120.109974
	   43 B(5,7,19)       =    119.832218    -0.000001    -0.006899   119.825319
	   44 B(6,8,9)        =    120.101164     0.000000    -0.001286   120.099878
	   45 B(6,8,20)       =    119.834074    -0.000000    -0.002376   119.831698
	   46 B(7,5,17)       =    119.753474     0.000005     0.031671   119.785146
	   47 B(7,9,8)        =    119.559523     0.000001    -0.000301   119.559221
	   48 B(7,9,21)       =    120.218839    -0.000000     0.000335   120.219174
	   49 B(8,6,18)       =    119.757093     0.000006     0.037311   119.794404
	   50 B(8,9,21)       =    120.219135    -0.000000     0.000670   120.219805
	   51 B(9,7,19)       =    120.058595     0.000000     0.003866   120.062461
	   52 B(9,8,20)       =    120.062495     0.000000     0.003521   120.066016
	   53 B(10,1,11)      =    106.629357     0.000002     0.025727   106.655083
	   54 B(12,2,13)      =    106.283853    -0.000004     0.024545   106.308398
	   55 B(14,4,15)      =    107.894791    -0.000002    -0.012636   107.882155
	   56 B(14,4,16)      =    107.726452    -0.000005    -0.033743   107.692709
	   57 B(15,4,16)      =    107.882705    -0.000002    -0.015910   107.866794
	   58 *D(1,2,4,14)    =     60.209123    -0.000000    -0.000000    60.209123
	   59 D(1,2,4,15)     =   -179.636124    -0.000000     0.006770  -179.629354
	   60 D(1,2,4,16)     =    -59.505871    -0.000000     0.009869   -59.496002
	   61 D(1,3,5,7)      =   -179.584618     0.000000     0.014072  -179.570546
	   62 D(1,3,5,17)     =      0.613898     0.000000     0.063583     0.677481
	   63 D(1,3,6,8)      =    179.558294    -0.000000    -0.021379   179.536915
	   64 D(1,3,6,18)     =     -0.516524    -0.000000    -0.060864    -0.577387
	   65 *D(2,1,3,5)     =    -93.734702    -0.000000    -0.000000   -93.734702
	   66 *D(2,1,3,6)     =     88.741900    -0.000000     0.000000    88.741900
	   67 *D(3,1,2,4)     =    179.939196     0.000000     0.000000   179.939196
	   68 D(3,1,2,12)     =    -57.754720    -0.000000    -0.014805   -57.769525
	   69 D(3,1,2,13)     =     57.707895     0.000000     0.016384    57.724279
	   70 D(3,5,7,9)      =      0.871255     0.000000     0.039240     0.910495
	   71 D(3,5,7,19)     =   -179.640226     0.000000     0.005891  -179.634335
	   72 D(3,6,8,9)      =     -0.808937    -0.000000    -0.023719    -0.832656
	   73 D(3,6,8,20)     =    179.738370    -0.000000    -0.006874   179.731496
	   74 D(4,2,1,10)     =     57.956002    -0.000000    -0.023645    57.932357
	   75 D(4,2,1,11)     =    -58.113151     0.000000     0.009596   -58.103555
	   76 D(5,3,1,10)     =     27.893808    -0.000001    -0.033114    27.860695
	   77 D(5,3,1,11)     =    144.673954     0.000001     0.048296   144.722251
	   78 D(5,3,6,8)      =      1.974711    -0.000000    -0.022211     1.952500
	   79 D(5,3,6,18)     =   -178.100107    -0.000000    -0.061695  -178.161802
	   80 D(5,7,9,8)      =      0.340024    -0.000000    -0.084514     0.255510
	   81 D(5,7,9,21)     =    179.765760    -0.000000     0.002858   179.768618
	   82 D(6,3,1,10)     =   -149.629590    -0.000001    -0.033114  -149.662703
	   83 D(6,3,1,11)     =    -32.849443     0.000001     0.048296   -32.801147
	   84 D(6,3,5,7)      =     -2.005619     0.000000     0.014531    -1.991088
	   85 D(6,3,5,17)     =    178.192898     0.000000     0.064042   178.256940
	   86 D(6,8,9,7)      =     -0.370759     0.000000     0.076871    -0.293888
	   87 D(6,8,9,21)     =   -179.796493    -0.000000    -0.010499  -179.806993
	   88 D(7,9,8,20)     =    179.080675     0.000000     0.059953   179.140629
	   89 D(8,9,7,19)     =   -179.147330    -0.000000    -0.051029  -179.198359
	   90 D(9,7,5,17)     =   -179.328060    -0.000000    -0.010645  -179.338705
	   91 D(9,8,6,18)     =    179.266193     0.000000     0.016027   179.282220
	   92 D(10,1,2,12)    =   -179.737914    -0.000001    -0.038451  -179.776365
	   93 D(10,1,2,13)    =    -64.275299    -0.000000    -0.007261   -64.282560
	   94 D(11,1,2,12)    =     64.192933     0.000000    -0.005209    64.187724
	   95 D(11,1,2,13)    =    179.655548     0.000000     0.025980   179.681528
	   96 D(12,2,4,14)    =    -61.510699     0.000001     0.045383   -61.465317
	   97 D(12,2,4,15)    =     58.644054     0.000001     0.052152    58.696206
	   98 D(12,2,4,16)    =    178.774307     0.000001     0.055251   178.829558
	   99 D(13,2,4,14)    =   -178.190691    -0.000001    -0.043273  -178.233963
	  100 D(13,2,4,15)    =    -58.035938    -0.000001    -0.036503   -58.072440
	  101 D(13,2,4,16)    =     62.094316    -0.000001    -0.033404    62.060912
	  102 D(17,5,7,19)    =      0.160459    -0.000000    -0.043994     0.116465
	  103 D(18,6,8,20)    =     -0.186499     0.000000     0.032872    -0.153627
	  104 D(19,7,9,21)    =      0.278406     0.000000     0.036342     0.314748
	  105 D(20,8,9,21)    =     -0.345059    -0.000000    -0.027416    -0.372476
	 ---------------------------------------------------------------------------
	Successfully symmetrized geometry.

  ==> Convergence Check <==

  Measures of convergence in internal coordinates in au.
  Criteria marked as inactive (o), active & met (*), and active & unmet ( ).
  ---------------------------------------------------------------------------------------------
   Step     Total Energy     Delta E     MAX Force     RMS Force      MAX Disp      RMS Disp   
  ---------------------------------------------------------------------------------------------
    Convergence Criteria             o    2.50e-03 *    1.70e-03 *    1.00e-02 *    6.70e-03 *
  ---------------------------------------------------------------------------------------------
      3    -350.06517424   -5.70e-05 o    6.02e-04 *    9.37e-05 *    2.32e-03 *    6.26e-04 *  ~
  ---------------------------------------------------------------------------------------------


  **** Optimization is complete! (in 3 steps) ****

  ==> Optimization Summary <==

  Measures of convergence in internal coordinates in au.
  --------------------------------------------------------------------------------------------------------------- ~
   Step         Total Energy             Delta E       MAX Force       RMS Force        MAX Disp        RMS Disp  ~
  --------------------------------------------------------------------------------------------------------------- ~
      1    -350.063001213749   -350.063001213749      0.01618075      0.00404064      0.04660308      0.01349226  ~
      2    -350.065117288366     -0.002116074616      0.00289328      0.00061180      0.00775382      0.00253364  ~
      3    -350.065174239947     -0.000056951582      0.00060237      0.00009368      0.00232093      0.00062611  ~
  --------------------------------------------------------------------------------------------------------------- ~

	Writing optimization data to binary file.
	Final energy is   -350.0651742399474
	Final (previous) structure:
	Cartesian Geometry (in Angstrom)
	    C    -1.5229347021   0.3461026222   0.2714879965
	    C    -2.1752154742  -1.0275524982   0.0339066312
	    C    -0.0232082692   0.3182997779   0.0788942398
	    C    -3.6928714002  -1.0029665562   0.2295288814
	    C     0.8358090348   0.1126612964   1.1631354859
	    C     0.5391766531   0.5491410427  -1.1808644225
	    C     2.2179727599   0.0954904468   0.9877194297
	    C     1.9203562731   0.5336325722  -1.3616073222
	    C     2.7646394821   0.3026086777  -0.2771296244
	    H    -1.7580149742   0.6825409714   1.2856839390
	    H    -1.9684552378   1.0757071638  -0.4116470476
	    H    -1.9347647110  -1.3638576285  -0.9792206644
	    H    -1.7229975531  -1.7555331197   0.7142661917
	    H    -4.1651579311  -0.3037442841  -0.4648085266
	    H    -4.1300145330  -1.9889135465   0.0618004371
	    H    -3.9508841554  -0.6897136438   1.2440845154
	    H     0.4173299493  -0.0381700621   2.1509037066
	    H    -0.1115383324   0.7410945182  -2.0255400597
	    H     2.8663569754  -0.0708643087   1.8377112091
	    H     2.3365833538   0.7102168213  -2.3445323552
	    H     3.8373391982   0.2934173164  -0.4146746705
	Saving final (previous) structure.
			--------------------------
			 OPTKING Finished Execution 
			--------------------------

    Final optimized geometry and variables:
    Molecular point group: c1
    Full point group: C1

    Geometry (in Angstrom), charge = 0, multiplicity = 1:

    C           -1.522934708072     0.346102623600     0.271487997599
    C           -2.175215482724    -1.027552502251     0.033906631290
    C           -0.023208269328     0.318299779148     0.078894240139
    C           -3.692871414696    -1.002966560158     0.229528882326
    C            0.835809038072     0.112661296827     1.163135490485
    C            0.539176655201     0.549141044894    -1.180864427155
    C            2.217972768596     0.095490447220     0.987719433612
    C            1.920356280688     0.533632574334    -1.361607327564
    C            2.764639493010     0.302608678899    -0.277129625512
    H           -1.758014981105     0.682540974057     1.285683944006
    H           -1.968455245570     1.075707167994    -0.411647049184
    H           -1.934764718642    -1.363857633823    -0.979220668204
    H           -1.722997559859    -1.755533126563     0.714266194546
    H           -4.165157947451    -0.303744285248    -0.464808528414
    H           -4.130014549263    -1.988913554308     0.061800437297
    H           -3.950884170882    -0.689713646469     1.244084520296
    H            0.417329950978    -0.038170062293     2.150903715053
    H           -0.111538332860     0.741094521135    -2.025540067649
    H            2.866356986683    -0.070864308985     1.837711216298
    H            2.336583362997     0.710216824084    -2.344532364407
    H            3.837339213254     0.293417317571    -0.414674672104

	Removing binary optimization data file.
	Cleaning optimization helper files.

    Psi4 stopped on: Wednesday, 02 June 2021 12:36AM
    Psi4 wall time for execution: 0:00:41.89

*** Psi4 exiting successfully. Buy a developer a beer!
