
    -----------------------------------------------------------------------
          Psi4: An Open-Source Ab Initio Electronic Structure Package
                               Psi4 1.3.2 release

                         Git: Rev {HEAD} ecbda83 


    R. M. Parrish, L. A. Burns, D. G. A. Smith, A. C. Simmonett,
    A. E. DePrince III, E. G. Hohenstein, U. Bozkaya, A. Yu. Sokolov,
    R. Di Remigio, R. M. Richard, J. F. Gonthier, A. M. James,
    H. R. McAlexander, A. Kumar, M. Saitow, X. Wang, B. P. Pritchard,
    P. Verma, H. F. Schaefer III, K. Patkowski, R. A. King, E. F. Valeev,
    F. A. Evangelista, J. M. Turney, T. D. Crawford, and C. D. Sherrill,
    J. Chem. Theory Comput. 13(7) pp 3185--3197 (2017).
    (doi: 10.1021/acs.jctc.7b00174)


                         Additional Contributions by
    P. Kraus, H. Kruse, M. H. Lechner, M. C. Schieber, R. A. Shaw,
    A. Alenaizan, R. Galvelis, Z. L. Glick, S. Lehtola, and J. P. Misiewicz

    -----------------------------------------------------------------------


    Psi4 started on: Wednesday, 02 June 2021 12:39AM

    Process ID: 79375
    Host:       daniele-Precision-5750
    PSIDATADIR: /home/daniele/anaconda3/envs/poltype/share/psi4
    Memory:     500.0 MiB
    Threads:    1
    
  ==> Input File <==

--------------------------------------------------------------------------
molecule { 
0 1
 C   -1.333311   -0.830336    0.034203
 C   -2.478067    0.206049    0.239326
 C    0.111713   -0.282433   -0.045451
 C   -3.880558   -0.432815    0.302610
 C    0.410718    1.103982   -0.017898
 C    1.186123   -1.193905   -0.204743
 C    1.740770    1.557687   -0.122454
 C    2.514517   -0.739022   -0.308668
 C    2.793247    0.637483   -0.265772
 H   -1.532270   -1.399928   -0.883810
 H   -1.374166   -1.564907    0.849969
 H   -2.291374    0.771181    1.162306
 H   -2.451934    0.939369   -0.577708
 H   -3.955027   -1.142405    1.133588
 H   -4.649109    0.333363    0.449861
 H   -4.115375   -0.966408   -0.624605
 H   -0.375746    1.848158    0.086300
 H    0.991442   -2.265060   -0.246672
 H    1.954013    2.624834   -0.092705
 H    3.326896   -1.454360   -0.423285
 H    3.819728    0.989951   -0.346107
}
set optking { 
  frozen_dihedral = ("
    2 1 3 5
    2 1 3 6
    4 2 1 3
    1 2 4 14
  ")
}
set {
  geom_maxiter 400
  g_convergence GAU_LOOSE
  dynamic_level 1
}
memory 700MB
set_num_threads(8)
psi4_io.set_default_path("/home/daniele/PSI4_sctatch/Psi4-propbenzene")
for _ in range(1):
  try:
    set opt_coordinates both
    optimize('wb97x-d/6-311G')
    break
  except OptimizationConvergenceError:
    break
  else:
    try:
      set opt_coordinates cartesian
      optimize('wb97x-d/6-311G')
      break
    except OptimizationConvergenceError:
      pass
clean()
--------------------------------------------------------------------------

  Memory set to 667.572 MiB by Python driver.
  Threads set to 8 by Python driver.
gradient() will perform analytic gradient computation.

*** tstart() called on daniele-Precision-5750
*** at Wed Jun  2 00:39:49 2021

   => Loading Basis Set <=

    Name: 6-311G
    Role: ORBITAL
    Keyword: BASIS
    atoms 1-9   entry C          line    92 file /home/daniele/anaconda3/envs/poltype/share/psi4/basis/6-311g.gbs 
    atoms 10-21 entry H          line    21 file /home/daniele/anaconda3/envs/poltype/share/psi4/basis/6-311g.gbs 


         ---------------------------------------------------------
                                   SCF
               by Justin Turney, Rob Parrish, Andy Simmonett
                          and Daniel G. A. Smith
                              RKS Reference
                        8 Threads,    667 MiB Core
         ---------------------------------------------------------

  ==> Geometry <==

    Molecular point group: c1
    Full point group: C1

    Geometry (in Angstrom), charge = 0, multiplicity = 1:

       Center              X                  Y                   Z               Mass       
    ------------   -----------------  -----------------  -----------------  -----------------
         C           -1.350343859583    -0.822209053942     0.068969296731    12.000000000000
         C           -2.495099859583     0.214175946058     0.274092296731    12.000000000000
         C            0.094680140417    -0.274306053942    -0.010684703269    12.000000000000
         C           -3.897590859583    -0.424688053942     0.337376296731    12.000000000000
         C            0.393685140417     1.112108946058     0.016868296731    12.000000000000
         C            1.169090140417    -1.185778053942    -0.169976703269    12.000000000000
         C            1.723737140417     1.565813946058    -0.087687703269    12.000000000000
         C            2.497484140417    -0.730895053942    -0.273901703269    12.000000000000
         C            2.776214140417     0.645609946058    -0.231005703269    12.000000000000
         H           -1.549302859583    -1.391801053942    -0.849043703269     1.007825032230
         H           -1.391198859583    -1.556780053942     0.884735296731     1.007825032230
         H           -2.308406859583     0.779307946058     1.197072296731     1.007825032230
         H           -2.468966859583     0.947495946058    -0.542941703269     1.007825032230
         H           -3.972059859583    -1.134278053942     1.168354296731     1.007825032230
         H           -4.666141859583     0.341489946058     0.484627296731     1.007825032230
         H           -4.132407859583    -0.958281053942    -0.589838703269     1.007825032230
         H           -0.392778859583     1.856284946058     0.121066296731     1.007825032230
         H            0.974409140417    -2.256933053942    -0.211905703269     1.007825032230
         H            1.936980140417     2.632960946058    -0.057938703269     1.007825032230
         H            3.309863140417    -1.446233053942    -0.388518703269     1.007825032230
         H            3.802695140417     0.998077946058    -0.311340703269     1.007825032230

  Running in c1 symmetry.

  Rotational constants: A =      0.15303  B =      0.02731  C =      0.02348 [cm^-1]
  Rotational constants: A =   4587.77085  B =    818.68222  C =    703.80627 [MHz]
  Nuclear repulsion =  405.287983998929917

  Charge       = 0
  Multiplicity = 1
  Electrons    = 66
  Nalpha       = 33
  Nbeta        = 33

  ==> Algorithm <==

  SCF Algorithm Type is DF.
  DIIS enabled.
  MOM disabled.
  Fractional occupation disabled.
  Guess Type is SAD.
  Energy threshold   = 1.00e-08
  Density threshold  = 1.00e-08
  Integral threshold = 0.00e+00

  ==> Primary Basis <==

  Basis Set: 6-311G
    Blend: 6-311G
    Number of shells: 99
    Number of basis function: 153
    Number of Cartesian functions: 153
    Spherical Harmonics?: true
    Max angular momentum: 1

  ==> DFT Potential <==

   => Composite Functional: WB97X-D <= 

    wB97X-D Hyb-GGA Exchange-Correlation Functional

    J.-D. Chai and M. Head-Gordon, Phys. Chem. Chem. Phys. 10, 6615 (2008)

    Deriv               =              1
    GGA                 =           TRUE
    Meta                =          FALSE

    Exchange Hybrid     =           TRUE
    MP2 Hybrid          =          FALSE

   => Exchange-Correlation Functionals <=

    1.0000   wB97D range-separated functional

   => Exact (HF) Exchange <=

    0.7780            HF,LR [omega = 0.2000]
    0.2220               HF 

   => Molecular Quadrature <=

    Radial Scheme          =       TREUTLER
    Pruning Scheme         =           FLAT
    Nuclear Scheme         =       TREUTLER

    BS radius alpha        =              1
    Pruning alpha          =              1
    Radial Points          =             75
    Spherical Points       =            302
    Total Points           =         470004
    Total Blocks           =           3486
    Max Points             =            256
    Max Functions          =            134

   => WB97X-D: Empirical Dispersion <=

    Chai and Head-Gordon Dispersion Correction
    Chai, J.-D.; Head-Gordon, M. (2010), J. Chem. Phys., 132: 6615-6620

        s6 =       1.000000

   => Loading Basis Set <=

    Name: (6-311G AUX)
    Role: JKFIT
    Keyword: DF_BASIS_SCF
    atoms 1-9   entry C          line   125 file /home/daniele/anaconda3/envs/poltype/share/psi4/basis/cc-pvtz-jkfit.gbs 
    atoms 10-21 entry H          line    51 file /home/daniele/anaconda3/envs/poltype/share/psi4/basis/cc-pvtz-jkfit.gbs 

  ==> Pre-Iterations <==

   -------------------------------------------------------
    Irrep   Nso     Nmo     Nalpha   Nbeta   Ndocc  Nsocc
   -------------------------------------------------------
     A        153     153       0       0       0       0
   -------------------------------------------------------
    Total     153     153      33      33      33       0
   -------------------------------------------------------

  ==> Integral Setup <==

  ==> DiskDFJK: Density-Fitted J/K Matrices <==

    J tasked:                  Yes
    K tasked:                  Yes
    wK tasked:                 Yes
    Omega:               2.000E-01
    OpenMP threads:              8
    Integrals threads:           8
    Memory [MiB]:              113
    Algorithm:                Disk
    Integral Cache:           NONE
    Schwarz Cutoff:          1E-12
    Fitting Condition:       1E-10

   => Auxiliary Basis Set <=

  Basis Set: (6-311G AUX)
    Blend: CC-PVTZ-JKFIT
    Number of shells: 345
    Number of basis function: 1071
    Number of Cartesian functions: 1284
    Spherical Harmonics?: true
    Max angular momentum: 4

  Cached 33.3% of DFT collocation blocks in 0.428 [GiB].

  Minimum eigenvalue in the overlap matrix is 2.6468286420E-04.
  Using Symmetric Orthogonalization.

  SCF Guess: Superposition of Atomic Densities via on-the-fly atomic UHF.

  ==> Iterations <==

                           Total Energy        Delta E     RMS |[F,P]|

   @DF-RKS iter SAD:  -349.21352966046294   -3.49214e+02   0.00000e+00 
   @DF-RKS iter   1:  -349.71887554350377   -5.05346e-01   5.10868e-03 DIIS
   @DF-RKS iter   2:  -349.90836846637001   -1.89493e-01   3.53357e-03 DIIS
   @DF-RKS iter   3:  -350.05963555994208   -1.51267e-01   2.19476e-04 DIIS
   @DF-RKS iter   4:  -350.06032116595776   -6.85606e-04   1.33933e-04 DIIS
   @DF-RKS iter   5:  -350.06054386548203   -2.22700e-04   2.60981e-05 DIIS
   @DF-RKS iter   6:  -350.06055215766003   -8.29218e-06   1.32246e-05 DIIS
   @DF-RKS iter   7:  -350.06055445565818   -2.29800e-06   1.44501e-06 DIIS
   @DF-RKS iter   8:  -350.06055451202371   -5.63655e-08   6.67985e-07 DIIS
   @DF-RKS iter   9:  -350.06055451959645   -7.57274e-09   2.26876e-07 DIIS
   @DF-RKS iter  10:  -350.06055452110002   -1.50357e-09   8.06204e-08 DIIS
   @DF-RKS iter  11:  -350.06055452129544   -1.95428e-10   3.92577e-08 DIIS
   @DF-RKS iter  12:  -350.06055452134774   -5.22959e-11   9.57696e-09 DIIS
  Energy and wave function converged.


  ==> Post-Iterations <==

    Orbital Energies [Eh]
    ---------------------

    Doubly Occupied:                                                      

       1A    -10.307048     2A    -10.292887     3A    -10.292480  
       4A    -10.291290     5A    -10.291044     6A    -10.291041  
       7A    -10.289816     8A    -10.286851     9A    -10.275078  
      10A     -0.957127    11A     -0.895063    12A     -0.848073  
      13A     -0.843473    14A     -0.777989    15A     -0.711445  
      16A     -0.691104    17A     -0.667150    18A     -0.604542  
      19A     -0.555789    20A     -0.546080    21A     -0.540207  
      22A     -0.517747    23A     -0.507436    24A     -0.487308  
      25A     -0.484413    26A     -0.450666    27A     -0.443083  
      28A     -0.434656    29A     -0.416416    30A     -0.412662  
      31A     -0.407248    32A     -0.326470    33A     -0.316118  

    Virtual:                                                              

      34A      0.062228    35A      0.067567    36A      0.122818  
      37A      0.130985    38A      0.145224    39A      0.162355  
      40A      0.163620    41A      0.173580    42A      0.187734  
      43A      0.198632    44A      0.215631    45A      0.220162  
      46A      0.223081    47A      0.234772    48A      0.252320  
      49A      0.276959    50A      0.285386    51A      0.304420  
      52A      0.350444    53A      0.356356    54A      0.366526  
      55A      0.384438    56A      0.386005    57A      0.408355  
      58A      0.411892    59A      0.425573    60A      0.459991  
      61A      0.471398    62A      0.482241    63A      0.495082  
      64A      0.497301    65A      0.522050    66A      0.533064  
      67A      0.540276    68A      0.556576    69A      0.560559  
      70A      0.562579    71A      0.590928    72A      0.607469  
      73A      0.626362    74A      0.631408    75A      0.633671  
      76A      0.657204    77A      0.665964    78A      0.680909  
      79A      0.685036    80A      0.687381    81A      0.690232  
      82A      0.696547    83A      0.709518    84A      0.712424  
      85A      0.722207    86A      0.727160    87A      0.738145  
      88A      0.748204    89A      0.764679    90A      0.806776  
      91A      0.814948    92A      0.852586    93A      0.871211  
      94A      0.885818    95A      0.936912    96A      0.945982  
      97A      0.966106    98A      0.990714    99A      1.005444  
     100A      1.090157   101A      1.098279   102A      1.136526  
     103A      1.156685   104A      1.265601   105A      1.366361  
     106A      2.302028   107A      2.337478   108A      2.347369  
     109A      2.357606   110A      2.362073   111A      2.370476  
     112A      2.374355   113A      2.400793   114A      2.430999  
     115A      2.442464   116A      2.454832   117A      2.610891  
     118A      2.635835   119A      2.671835   120A      2.685414  
     121A      2.787837   122A      2.818816   123A      2.822280  
     124A      2.842947   125A      2.905794   126A      2.933073  
     127A      2.935670   128A      2.947615   129A      2.982155  
     130A      3.000505   131A      3.030946   132A      3.062152  
     133A      3.068365   134A      3.103058   135A      3.163275  
     136A      3.207411   137A      3.217738   138A      3.238530  
     139A      3.268334   140A      3.306374   141A      3.345107  
     142A      3.355765   143A      3.358228   144A      3.527546  
     145A     23.251943   146A     23.478293   147A     23.482872  
     148A     23.519952   149A     23.643853   150A     23.704536  
     151A     23.753946   152A     23.769066   153A     23.989512  

    Final Occupation by Irrep:
              A 
    DOCC [    33 ]

  @DF-RKS Final Energy:  -350.06055452134774

   => Energetics <=

    Nuclear Repulsion Energy =            405.2879839989299171
    One-Electron Energy =               -1273.1863530407192684
    Two-Electron Energy =                 554.1617187771196313
    DFT Exchange-Correlation Energy =     -36.3124014753459861
    Empirical Dispersion Energy =          -0.0115027813320310
    VV10 Nonlocal Energy =                  0.0000000000000000
    Total Energy =                       -350.0605545213477399

Computation Completed


Properties will be evaluated at   0.000000,   0.000000,   0.000000 [a0]

Properties computed using the SCF density matrix

  Nuclear Dipole Moment: [e a0]
     X:   -10.1784      Y:    -1.1144      Z:     0.8478

  Electronic Dipole Moment: [e a0]
     X:     9.9939      Y:     1.0665      Z:    -0.8458

  Dipole Moment: [e a0]
     X:    -0.1845      Y:    -0.0479      Z:     0.0020     Total:     0.1906

  Dipole Moment: [D]
     X:    -0.4689      Y:    -0.1217      Z:     0.0050     Total:     0.4845


*** tstop() called on daniele-Precision-5750 at Wed Jun  2 00:40:00 2021
Module time:
	user time   =      76.50 seconds =       1.27 minutes
	system time =       2.27 seconds =       0.04 minutes
	total time  =         11 seconds =       0.18 minutes
Total time:
	user time   =      76.50 seconds =       1.27 minutes
	system time =       2.27 seconds =       0.04 minutes
	total time  =         11 seconds =       0.18 minutes

*** tstart() called on daniele-Precision-5750
*** at Wed Jun  2 00:40:00 2021


         ------------------------------------------------------------
                                   SCF GRAD                          
                          Rob Parrish, Justin Turney,                
                       Andy Simmonett, and Alex Sokolov              
         ------------------------------------------------------------

  ==> Geometry <==

    Molecular point group: c1
    Full point group: C1

    Geometry (in Angstrom), charge = 0, multiplicity = 1:

       Center              X                  Y                   Z               Mass       
    ------------   -----------------  -----------------  -----------------  -----------------
         C           -1.350343859583    -0.822209053942     0.068969296731    12.000000000000
         C           -2.495099859583     0.214175946058     0.274092296731    12.000000000000
         C            0.094680140417    -0.274306053942    -0.010684703269    12.000000000000
         C           -3.897590859583    -0.424688053942     0.337376296731    12.000000000000
         C            0.393685140417     1.112108946058     0.016868296731    12.000000000000
         C            1.169090140417    -1.185778053942    -0.169976703269    12.000000000000
         C            1.723737140417     1.565813946058    -0.087687703269    12.000000000000
         C            2.497484140417    -0.730895053942    -0.273901703269    12.000000000000
         C            2.776214140417     0.645609946058    -0.231005703269    12.000000000000
         H           -1.549302859583    -1.391801053942    -0.849043703269     1.007825032230
         H           -1.391198859583    -1.556780053942     0.884735296731     1.007825032230
         H           -2.308406859583     0.779307946058     1.197072296731     1.007825032230
         H           -2.468966859583     0.947495946058    -0.542941703269     1.007825032230
         H           -3.972059859583    -1.134278053942     1.168354296731     1.007825032230
         H           -4.666141859583     0.341489946058     0.484627296731     1.007825032230
         H           -4.132407859583    -0.958281053942    -0.589838703269     1.007825032230
         H           -0.392778859583     1.856284946058     0.121066296731     1.007825032230
         H            0.974409140417    -2.256933053942    -0.211905703269     1.007825032230
         H            1.936980140417     2.632960946058    -0.057938703269     1.007825032230
         H            3.309863140417    -1.446233053942    -0.388518703269     1.007825032230
         H            3.802695140417     0.998077946058    -0.311340703269     1.007825032230

  Nuclear repulsion =  405.287983998929974

  ==> Basis Set <==

  Basis Set: 6-311G
    Blend: 6-311G
    Number of shells: 99
    Number of basis function: 153
    Number of Cartesian functions: 153
    Spherical Harmonics?: true
    Max angular momentum: 1

  ==> DFJKGrad: Density-Fitted SCF Gradients <==

    Gradient:                    1
    J tasked:                  Yes
    K tasked:                  Yes
    wK tasked:                 Yes
    Omega:               2.000E-01
    OpenMP threads:              8
    Integrals threads:           8
    Memory [MiB]:              500
    Schwarz Cutoff:          0E+00
    Fitting Condition:       1E-10

   => Auxiliary Basis Set <=

  Basis Set: (6-311G AUX)
    Blend: CC-PVTZ-JKFIT
    Number of shells: 345
    Number of basis function: 1071
    Number of Cartesian functions: 1284
    Spherical Harmonics?: true
    Max angular momentum: 4

  ==> DFT Potential <==

   => Composite Functional: WB97X-D <= 

    wB97X-D Hyb-GGA Exchange-Correlation Functional

    J.-D. Chai and M. Head-Gordon, Phys. Chem. Chem. Phys. 10, 6615 (2008)

    Deriv               =              1
    GGA                 =           TRUE
    Meta                =          FALSE

    Exchange Hybrid     =           TRUE
    MP2 Hybrid          =          FALSE

   => Exchange-Correlation Functionals <=

    1.0000   wB97D range-separated functional

   => Exact (HF) Exchange <=

    0.7780            HF,LR [omega = 0.2000]
    0.2220               HF 

   => Molecular Quadrature <=

    Radial Scheme          =       TREUTLER
    Pruning Scheme         =           FLAT
    Nuclear Scheme         =       TREUTLER

    BS radius alpha        =              1
    Pruning alpha          =              1
    Radial Points          =             75
    Spherical Points       =            302
    Total Points           =         470004
    Total Blocks           =           3486
    Max Points             =            256
    Max Functions          =            134


  -Total Gradient:
     Atom            X                  Y                   Z
    ------   -----------------  -----------------  -----------------
       1       -0.002615157458    -0.005892046487    -0.001653617302
       2       -0.007646970869     0.002555434830     0.001383959483
       3        0.001004003382    -0.005002832090     0.004110057235
       4       -0.004458620459    -0.000949703417    -0.000036378135
       5       -0.006530642857     0.008353587045    -0.000266550808
       6       -0.002904580441    -0.010336091549    -0.001642815923
       7        0.001265398920     0.010314080389     0.000248313379
       8        0.009145060412    -0.004165096734    -0.001125657494
       9        0.006318796082     0.000243216278    -0.000569763711
      10        0.000035903324    -0.001888586114    -0.000956912860
      11        0.000242253553    -0.001813569417     0.000703888286
      12        0.000365464218     0.002033178811     0.001609464452
      13        0.000133427815     0.002254722945    -0.001228614692
      14       -0.000552367153    -0.000760112907     0.001684117497
      15       -0.002055518610     0.001396115554     0.000393138301
      16       -0.000947438350    -0.000457411773    -0.001684074647
      17       -0.001185138574     0.005055949793     0.000082734212
      18        0.001098917460    -0.004373682681    -0.000553342812
      19        0.001474370462     0.004465744066     0.000178625871
      20        0.003727756546    -0.002595983104    -0.000363610910
      21        0.004228650053     0.001442696467    -0.000345934994


*** tstop() called on daniele-Precision-5750 at Wed Jun  2 00:40:05 2021
Module time:
	user time   =      36.23 seconds =       0.60 minutes
	system time =       0.45 seconds =       0.01 minutes
	total time  =          5 seconds =       0.08 minutes
Total time:
	user time   =     112.74 seconds =       1.88 minutes
	system time =       2.72 seconds =       0.05 minutes
	total time  =         16 seconds =       0.27 minutes

			-----------------------------------------
			 OPTKING 2.0: for geometry optimizations 
			  - R.A. King,  Bethel University        
			-----------------------------------------
	At level 1: Red. Int., RFO, no backsteps, dynamic trust

	Internal coordinates to be generated automatically.
	Detected frag 1 with atoms:  1 2 3 4 5 6 7 8 9 10 11 12 13 14 15 16 17 18 19 20
	 21
	---Fragment 1 Bond Connectivity---
	 1 : 2 3 10 11
	 2 : 1 4 12 13
	 3 : 1 5 6
	 4 : 2 14 15 16
	 5 : 3 7 17
	 6 : 3 8 18
	 7 : 5 9 19
	 8 : 6 9 20
	 9 : 7 8 21
	 10 : 1
	 11 : 1
	 12 : 2
	 13 : 2
	 14 : 4
	 15 : 4
	 16 : 4
	 17 : 5
	 18 : 6
	 19 : 7
	 20 : 8
	 21 : 9

	Assuming in current code that numbering for constraints corresponds to unified fragment.
	Frozen dihedral atom list: 
	     2     1     3     5
	     2     1     3     6
	     4     2     1     3
	     1     2     4    14
	---Fragment 1 Geometry and Gradient---
	 C          -2.5517800698       -1.5537499298        0.1303330819
	 C          -4.7150553903        0.4047338807        0.5179593739
	 C           0.1789195349       -0.5183633165       -0.0201911629
	 C          -7.3653792737       -0.8025441107        0.6375488020
	 C           0.7439570951        2.1015813297        0.0318764610
	 C           2.2092601814       -2.2407957675       -0.3212094169
	 C           3.2573911077        2.9589595215       -0.1657057437
	 C           4.7195610281       -1.3811914784       -0.5175992045
	 C           5.2462843910        1.2200259819       -0.4365375126
	 H          -2.9277580900       -2.6301228131       -1.6044600677
	 H          -2.6289848307       -2.9418879395        1.6719074043
	 H          -4.3622567507        1.4726785854        2.2621387932
	 H          -4.6656711774        1.7905078430       -1.0260111213
	 H          -7.5061052885       -2.1434748721        2.2078696383
	 H          -8.8177301771        0.6453224726        0.9158128637
	 H          -7.8091190933       -1.8108887432       -1.1146336074
	 H          -0.7422444725        3.5078701589        0.2287821438
	 H           1.8413664095       -4.2649853554       -0.4004437436
	 H           3.6603619758        4.9755750871       -0.1094882812
	 H           6.2547348481       -2.7329843855       -0.7341939438
	 H           7.1860523540        1.8860939699       -0.5883486609
	            -0.0026151575       -0.0058920465       -0.0016536173
	            -0.0076469709        0.0025554348        0.0013839595
	             0.0010040034       -0.0050028321        0.0041100572
	            -0.0044586205       -0.0009497034       -0.0000363781
	            -0.0065306429        0.0083535870       -0.0002665508
	            -0.0029045804       -0.0103360915       -0.0016428159
	             0.0012653989        0.0103140804        0.0002483134
	             0.0091450604       -0.0041650967       -0.0011256575
	             0.0063187961        0.0002432163       -0.0005697637
	             0.0000359033       -0.0018885861       -0.0009569129
	             0.0002422536       -0.0018135694        0.0007038883
	             0.0003654642        0.0020331788        0.0016094645
	             0.0001334278        0.0022547229       -0.0012286147
	            -0.0005523672       -0.0007601129        0.0016841175
	            -0.0020555186        0.0013961156        0.0003931383
	            -0.0009474383       -0.0004574118       -0.0016840746
	            -0.0011851386        0.0050559498        0.0000827342
	             0.0010989175       -0.0043736827       -0.0005533428
	             0.0014743705        0.0044657441        0.0001786259
	             0.0037277565       -0.0025959831       -0.0003636109
	             0.0042286501        0.0014426965       -0.0003459350

	Previous optimization step data not found.  Starting new optimization.

	---Fragment 1 Intrafragment Coordinates---
	 - Coordinate -           - BOHR/RAD -       - ANG/DEG -
	 R(1,2)           =         2.943752	       1.557766
	 R(1,3)           =         2.924278	       1.547461
	 R(1,10)          =         2.075920	       1.098530
	 R(1,11)          =         2.075895	       1.098516
	 R(2,4)           =         2.914796	       1.542444
	 R(2,12)          =         2.075364	       1.098235
	 R(2,13)          =         2.075248	       1.098174
	 R(3,5)           =         2.680688	       1.418559
	 R(3,6)           =         2.679490	       1.417925
	 R(4,14)          =         2.069736	       1.095257
	 R(4,15)          =         2.069558	       1.095163
	 R(4,16)          =         2.069736	       1.095257
	 R(5,7)           =         2.662985	       1.409191
	 R(5,17)          =         2.055533	       1.087741
	 R(6,8)           =         2.660658	       1.407959
	 R(6,18)          =         2.058875	       1.089510
	 R(7,9)           =         2.655736	       1.405355
	 R(7,19)          =         2.057252	       1.088651
	 R(8,9)           =         2.655248	       1.405097
	 R(8,20)          =         2.056943	       1.088488
	 R(9,21)          =         2.056549	       1.088279
	 B(1,2,4)         =         1.980169	     113.455305
	 B(1,2,12)        =         1.905081	     109.153118
	 B(1,2,13)        =         1.905839	     109.196522
	 B(1,3,5)         =         2.143458	     122.811072
	 B(1,3,6)         =         2.078024	     119.062012
	 B(2,1,3)         =         2.045912	     117.222123
	 B(2,1,10)        =         1.898538	     108.778239
	 B(2,1,11)        =         1.896281	     108.648893
	 B(2,4,14)        =         1.940452	     111.179725
	 B(2,4,15)        =         1.932473	     110.722536
	 B(2,4,16)        =         1.941203	     111.222758
	 B(3,1,10)        =         1.885667	     108.040770
	 B(3,1,11)        =         1.885690	     108.042094
	 B(3,5,7)         =         2.108504	     120.808367
	 B(3,5,17)        =         2.115432	     121.205316
	 B(3,6,8)         =         2.112415	     121.032443
	 B(3,6,18)        =         2.095455	     120.060735
	 B(4,2,12)        =         1.910516	     109.464494
	 B(4,2,13)        =         1.905769	     109.192493
	 B(5,3,6)         =         2.060904	     118.081116
	 B(5,7,9)         =         2.098555	     120.238343
	 B(5,7,19)        =         2.092609	     119.897654
	 B(6,8,9)         =         2.096027	     120.093500
	 B(6,8,20)        =         2.093945	     119.974220
	 B(7,5,17)        =         2.059248	     117.986194
	 B(7,9,8)         =         2.089797	     119.736548
	 B(7,9,21)        =         2.096518	     120.121609
	 B(8,6,18)        =         2.075314	     118.906723
	 B(8,9,21)        =         2.096867	     120.141605
	 B(9,7,19)        =         2.092021	     119.863994
	 B(9,8,20)        =         2.093213	     119.932258
	 B(10,1,11)       =         1.841201	     105.493049
	 B(12,2,13)       =         1.852095	     106.117227
	 B(14,4,15)       =         1.879189	     107.669595
	 B(14,4,16)       =         1.888186	     108.185077
	 B(15,4,16)       =         1.879902	     107.710458
	*D(1,2,4,14)      =         1.050882	      60.211075
	 D(1,2,4,15)      =         3.139072	     179.855593
	 D(1,2,4,16)      =        -1.054532	     -60.420244
	 D(1,3,5,7)       =        -3.117297	    -178.607947
	 D(1,3,5,17)      =         0.026571	       1.522382
	 D(1,3,6,8)       =         3.119355	     178.725873
	 D(1,3,6,18)      =        -0.024252	      -1.389534
	*D(2,1,3,5)       =        -0.065662	      -3.762180
	*D(2,1,3,6)       =         3.119747	     178.748334
	*D(3,1,2,4)       =         3.139013	     179.852195
	 D(3,1,2,12)      =        -1.008610	     -57.789070
	 D(3,1,2,13)      =         1.009006	      57.811766
	 D(3,5,7,9)       =         0.007975	       0.456915
	 D(3,5,7,19)      =        -3.134231	    -179.578197
	 D(3,6,8,9)       =        -0.008690	      -0.497907
	 D(3,6,8,20)      =         3.133833	     179.555392
	 D(4,2,1,10)      =         0.994506	      56.981009
	 D(4,2,1,11)      =        -1.001510	     -57.382272
	 D(5,3,1,10)      =         2.085426	     119.486122
	 D(5,3,1,11)      =        -2.213749	    -126.838496
	 D(5,3,6,8)       =         0.019501	       1.117318
	 D(5,3,6,18)      =        -3.124106	    -178.998089
	 D(5,7,9,8)       =         0.003358	       0.192428
	 D(5,7,9,21)      =        -3.141331	    -179.985023
	 D(6,3,1,10)      =        -1.012350	     -58.003363
	 D(6,3,1,11)      =         0.971660	      55.672019
	 D(6,3,5,7)       =        -0.019114	      -1.095149
	 D(6,3,5,17)      =         3.124753	     179.035179
	 D(6,8,9,7)       =        -0.003015	      -0.172724
	 D(6,8,9,21)      =        -3.141510	    -179.995237
	 D(7,9,8,20)      =         3.137648	     179.774000
	 D(8,9,7,19)      =        -3.137622	    -179.772472
	 D(9,7,5,17)      =        -3.135821	    -179.669319
	 D(9,8,6,18)      =         3.134894	     179.616193
	 D(10,1,2,12)     =         3.130069	     179.339743
	 D(10,1,2,13)     =        -1.135501	     -65.059421
	 D(11,1,2,12)     =         1.134053	      64.976462
	 D(11,1,2,13)     =        -3.131517	    -179.422701
	 D(12,2,4,14)     =        -1.081666	     -61.974902
	 D(12,2,4,15)     =         1.006525	      57.669617
	 D(12,2,4,16)     =         3.096106	     177.393779
	 D(13,2,4,14)     =        -3.102257	    -177.746254
	 D(13,2,4,15)     =        -1.014067	     -58.101736
	 D(13,2,4,16)     =         1.075514	      61.622427
	 D(17,5,7,19)     =         0.005159	       0.295568
	 D(18,6,8,20)     =        -0.005768	      -0.330509
	 D(19,7,9,21)     =         0.000874	       0.050077
	 D(20,8,9,21)     =        -0.000847	      -0.048513

	Current energy   :      -350.0605545213

	Generating empirical Hessian (Schlegel '84) for each fragment.
	Taking RFO optimization step.
	Going to follow RFO solution 1.
	Using RFO vector 1.
	Norm of target step-size    0.14809
	Projected energy change by RFO approximation:        -0.0062373506

	Back-transformation to cartesian coordinates...
	Successfully converged to displaced geometry.

	Back-transformation to cartesian coordinates to adjust frozen coordinates...
	Successfully converged to displaced geometry.

	--- Internal Coordinate Step in ANG or DEG, aJ/ANG or AJ/DEG ---
	 ---------------------------------------------------------------------------
	   Coordinate                Previous        Force       Change         New 
	   ----------                --------       ------       ------       ------
	    1 R(1,2)          =      1.557766    -0.128134    -0.029781     1.527985
	    2 R(1,3)          =      1.547461    -0.145270    -0.032737     1.514724
	    3 R(1,10)         =      1.098530    -0.014568    -0.002714     1.095816
	    4 R(1,11)         =      1.098516    -0.014198    -0.002645     1.095871
	    5 R(2,4)          =      1.542444    -0.062841    -0.013948     1.528495
	    6 R(2,12)         =      1.098235    -0.020325    -0.003783     1.094452
	    7 R(2,13)         =      1.098174    -0.020000    -0.003721     1.094452
	    8 R(3,5)          =      1.418559    -0.159803    -0.023957     1.394602
	    9 R(3,6)          =      1.417925    -0.136852    -0.020491     1.397434
	   10 R(4,14)         =      1.095257    -0.014850    -0.002737     1.092520
	   11 R(4,15)         =      1.095163    -0.020486    -0.003775     1.091388
	   12 R(4,16)         =      1.095257    -0.015196    -0.002801     1.092456
	   13 R(5,7)          =      1.409191    -0.107284    -0.015408     1.393782
	   14 R(5,17)         =      1.087741    -0.035673    -0.006417     1.081324
	   15 R(6,8)          =      1.407959    -0.122810    -0.017530     1.390430
	   16 R(6,18)         =      1.089510    -0.033978    -0.006147     1.083363
	   17 R(7,9)          =      1.405355    -0.106953    -0.014906     1.390449
	   18 R(7,19)         =      1.088651    -0.038490    -0.006944     1.081707
	   19 R(8,9)          =      1.405097    -0.090443    -0.012542     1.392554
	   20 R(8,20)         =      1.088488    -0.037242    -0.006715     1.081772
	   21 R(9,21)         =      1.088279    -0.036875    -0.006644     1.081634
	   22 B(1,2,4)        =    113.455305    -0.000411    -1.599926   111.855380
	   23 B(1,2,12)       =    109.153118     0.000119     0.229534   109.382652
	   24 B(1,2,13)       =    109.196522     0.000103     0.199276   109.395798
	   25 B(1,3,5)        =    122.811072    -0.000108    -0.273295   122.537776
	   26 B(1,3,6)        =    119.062012    -0.000029    -0.040508   119.021505
	   27 B(2,1,3)        =    117.222123    -0.000475    -1.794398   115.427725
	   28 B(2,1,10)       =    108.778239     0.000094     0.062097   108.840336
	   29 B(2,1,11)       =    108.648893     0.000099     0.198316   108.847209
	   30 B(2,4,14)       =    111.179725    -0.000019    -0.127690   111.052035
	   31 B(2,4,15)       =    110.722536    -0.000031    -0.030651   110.691886
	   32 B(2,4,16)       =    111.222758    -0.000028    -0.191517   111.031241
	   33 B(3,1,10)       =    108.040770     0.000167     0.420912   108.461682
	   34 B(3,1,11)       =    108.042094     0.000168     0.560560   108.602653
	   35 B(3,5,7)        =    120.808367    -0.000002    -0.059531   120.748836
	   36 B(3,5,17)       =    121.205316    -0.000223    -0.986747   120.218568
	   37 B(3,6,8)        =    121.032443     0.000011    -0.003719   121.028724
	   38 B(3,6,18)       =    120.060735    -0.000153    -0.666196   119.394539
	   39 B(4,2,12)       =    109.464494     0.000117     0.298038   109.762533
	   40 B(4,2,13)       =    109.192493     0.000123     0.298378   109.490871
	   41 B(5,3,6)        =    118.081116     0.000137     0.313509   118.394625
	   42 B(5,7,9)        =    120.238343     0.000014     0.105033   120.343377
	   43 B(5,7,19)       =    119.897654    -0.000051    -0.250987   119.646666
	   44 B(6,8,9)        =    120.093500    -0.000017     0.010836   120.104336
	   45 B(6,8,20)       =    119.974220    -0.000031    -0.183705   119.790515
	   46 B(7,5,17)       =    117.986194     0.000226     1.045839   119.032033
	   47 B(7,9,8)        =    119.736548    -0.000144    -0.362894   119.373653
	   48 B(7,9,21)       =    120.121609     0.000071     0.177615   120.299224
	   49 B(8,6,18)       =    118.906723     0.000142     0.669892   119.576614
	   50 B(8,9,21)       =    120.141605     0.000073     0.185352   120.326957
	   51 B(9,7,19)       =    119.863994     0.000037     0.145791   120.009784
	   52 B(9,8,20)       =    119.932258     0.000048     0.172773   120.105031
	   53 B(10,1,11)      =    105.493049    -0.000011     0.786311   106.279360
	   54 B(12,2,13)      =    106.117227    -0.000026     0.705202   106.822430
	   55 B(14,4,15)      =    107.669595     0.000034     0.283070   107.952665
	   56 B(14,4,16)      =    108.185077     0.000005    -0.187102   107.997974
	   57 B(15,4,16)      =    107.710458     0.000044     0.275746   107.986203
	   58 *D(1,2,4,14)    =     60.211075     0.000000    -0.000000    60.211075
	   59 D(1,2,4,15)     =    179.855593     0.000002     0.251734   180.107328
	   60 D(1,2,4,16)     =    -60.420244     0.000006     0.452315   -59.967930
	   61 D(1,3,5,7)      =   -178.607947     0.000002     0.175312  -178.432635
	   62 D(1,3,5,17)     =      1.522382     0.000003     0.320458     1.842840
	   63 D(1,3,6,8)      =    178.725873    -0.000002    -0.245105   178.480768
	   64 D(1,3,6,18)     =     -1.389534    -0.000002    -0.257318    -1.646852
	   65 *D(2,1,3,5)     =     -3.762180     0.000000     0.000000    -3.762180
	   66 *D(2,1,3,6)     =    178.748334    -0.000000    -0.000000   178.748334
	   67 *D(3,1,2,4)     =    179.852195     0.000000     0.000000   179.852195
	   68 D(3,1,2,12)     =    -57.789070    -0.000010    -0.535151   -58.324221
	   69 D(3,1,2,13)     =     57.811766     0.000011     0.551157    58.362923
	   70 D(3,5,7,9)      =      0.456915    -0.000000    -0.009313     0.447602
	   71 D(3,5,7,19)     =   -179.578197    -0.000001    -0.125419  -179.703616
	   72 D(3,6,8,9)      =     -0.497907     0.000001     0.138305    -0.359601
	   73 D(3,6,8,20)     =    179.555392     0.000002     0.209622   179.765013
	   74 D(4,2,1,10)     =     56.981009     0.000011     0.682454    57.663463
	   75 D(4,2,1,11)     =    -57.382272    -0.000009    -0.386479   -57.768751
	   76 D(5,3,1,10)     =    119.486122    -0.000019    -0.857321   118.628802
	   77 D(5,3,1,11)     =   -126.838496     0.000017     0.566861  -126.271635
	   78 D(5,3,6,8)      =      1.117318    -0.000001    -0.230710     0.886608
	   79 D(5,3,6,18)     =   -178.998089    -0.000001    -0.242923  -179.241011
	   80 D(5,7,9,8)      =      0.192428    -0.000001    -0.093260     0.099168
	   81 D(5,7,9,21)     =   -179.985023    -0.000000    -0.063184  -180.048207
	   82 D(6,3,1,10)     =    -58.003363    -0.000019    -0.857321   -58.860684
	   83 D(6,3,1,11)     =     55.672019     0.000017     0.566861    56.238880
	   84 D(6,3,5,7)      =     -1.095149     0.000001     0.167008    -0.928142
	   85 D(6,3,5,17)     =    179.035179     0.000002     0.312154   179.347333
	   86 D(6,8,9,7)      =     -0.172724     0.000000     0.030057    -0.142668
	   87 D(6,8,9,21)     =   -179.995237     0.000000    -0.000014  -179.995251
	   88 D(7,9,8,20)     =    179.774000    -0.000000    -0.041677   179.732323
	   89 D(8,9,7,19)     =   -179.772472     0.000000     0.023408  -179.749064
	   90 D(9,7,5,17)     =   -179.669319    -0.000001    -0.155328  -179.824647
	   91 D(9,8,6,18)     =    179.616193     0.000001     0.152055   179.768248
	   92 D(10,1,2,12)    =    179.339743     0.000001     0.147303   179.487046
	   93 D(10,1,2,13)    =    -65.059421     0.000022     1.233611   -63.825809
	   94 D(11,1,2,12)    =     64.976462    -0.000019    -0.921630    64.054832
	   95 D(11,1,2,13)    =   -179.422701     0.000001     0.164678  -179.258023
	   96 D(12,2,4,14)    =    -61.974902     0.000010     0.580960   -61.393942
	   97 D(12,2,4,15)    =     57.669617     0.000013     0.832694    58.502311
	   98 D(12,2,4,16)    =    177.393779     0.000016     1.033275   178.427054
	   99 D(13,2,4,14)    =   -177.746254    -0.000013    -0.608247  -178.354501
	  100 D(13,2,4,15)    =    -58.101736    -0.000011    -0.356513   -58.458249
	  101 D(13,2,4,16)    =     61.622427    -0.000007    -0.155932    61.466494
	  102 D(17,5,7,19)    =      0.295568    -0.000002    -0.271434     0.024134
	  103 D(18,6,8,20)    =     -0.330509     0.000002     0.223371    -0.107137
	  104 D(19,7,9,21)    =      0.050077     0.000000     0.053484     0.103561
	  105 D(20,8,9,21)    =     -0.048513    -0.000001    -0.071747    -0.120260
	 ---------------------------------------------------------------------------
	Successfully symmetrized geometry.

  ==> Convergence Check <==

  Measures of convergence in internal coordinates in au.
  Criteria marked as inactive (o), active & met (*), and active & unmet ( ).
  --------------------------------------------------------------------------------------------- ~
   Step     Total Energy     Delta E     MAX Force     RMS Force      MAX Disp      RMS Disp    ~
  --------------------------------------------------------------------------------------------- ~
    Convergence Criteria             o    2.50e-03 *    1.70e-03 *    1.00e-02 *    6.70e-03 *  ~
  --------------------------------------------------------------------------------------------- ~
      1    -350.06055452   -3.50e+02 o    1.94e-02      4.59e-03      6.19e-02      1.44e-02    ~
  ---------------------------------------------------------------------------------------------

	Writing optimization data to binary file.
	Structure for next step:
	Cartesian Geometry (in Angstrom)
	    C    -1.3305551875  -0.8309405779   0.0685319893
	    C    -2.4346672226   0.2056374015   0.2714620524
	    C     0.0766444195  -0.2757186695  -0.0083228978
	    C    -3.8180993521  -0.4413257180   0.3335300306
	    C     0.3459051534   1.0923209075   0.0213794780
	    C     1.1468000101  -1.1603573839  -0.1664486621
	    C     1.6532651923   1.5637443691  -0.0844461159
	    C     2.4523591958  -0.6940972906  -0.2732724279
	    C     2.7112673342   0.6735248567  -0.2310413924
	    H    -1.5341232624  -1.3891515231  -0.8522138931
	    H    -1.3746638128  -1.5597503572   0.8857374999
	    H    -2.2448517391   0.7625705462   1.1942956386
	    H    -2.4071813789   0.9310259495  -0.5476118248
	    H    -3.8829651798  -1.1503080395   1.1622253404
	    H    -4.5915503684   0.3152364391   0.4767614242
	    H    -4.0405612422  -0.9805066296  -0.5901879852
	    H    -0.4610732726   1.8035520767   0.1318271372
	    H     0.9547608615  -2.2258969002  -0.2041502539
	    H     1.8422223905   2.6283975748  -0.0544740644
	    H     3.2661277558  -1.3970030799  -0.3913210221
	    H     3.7254796932   1.0401899196  -0.3138828230
			--------------------------
			 OPTKING Finished Execution 
			--------------------------

    Structure for next step:
    Molecular point group: c1
    Full point group: C1

    Geometry (in Angstrom), charge = 0, multiplicity = 1:

    C           -1.320584232882    -0.833956981731     0.067861773006
    C           -2.424696272312     0.202621001729     0.270791836918
    C            0.086615379661    -0.278735071157    -0.008993114384
    C           -3.808128407247    -0.444342120351     0.332859815322
    C            0.355876114607     1.089304511172     0.020709261581
    C            1.156770974419    -1.163373789064    -0.167118879292
    C            1.663236158633     1.560727974656    -0.085116332733
    C            2.462330165338    -0.697113693910    -0.273942645513
    C            2.721238304709     0.670508458711    -0.231711609884
    H           -1.524152308576    -1.392167929120    -0.852884113011
    H           -1.364692858353    -1.562766763934     0.885067286796
    H           -2.234880788102     0.759554148620     1.193625426767
    H           -2.397210428464     0.928009552533    -0.548282043491
    H           -3.872994235238    -1.153324444677     1.161555128460
    H           -4.581579426549     0.312220039751     0.476091209551
    H           -4.030590298278    -0.983523034024    -0.590858204015
    H           -0.451102314544     1.800535683203     0.131156921126
    H            0.964731825057    -2.228913309508    -0.204820471222
    H            1.852193357620     2.625381184507    -0.055144281114
    H            3.276098728448    -1.400019486045    -0.391991240150
    H            3.735450667659     1.037173523109    -0.314553040780

gradient() will perform analytic gradient computation.

*** tstart() called on daniele-Precision-5750
*** at Wed Jun  2 00:40:05 2021

   => Loading Basis Set <=

    Name: 6-311G
    Role: ORBITAL
    Keyword: BASIS
    atoms 1-9   entry C          line    92 file /home/daniele/anaconda3/envs/poltype/share/psi4/basis/6-311g.gbs 
    atoms 10-21 entry H          line    21 file /home/daniele/anaconda3/envs/poltype/share/psi4/basis/6-311g.gbs 


         ---------------------------------------------------------
                                   SCF
               by Justin Turney, Rob Parrish, Andy Simmonett
                          and Daniel G. A. Smith
                              RKS Reference
                        8 Threads,    667 MiB Core
         ---------------------------------------------------------

  ==> Geometry <==

    Molecular point group: c1
    Full point group: C1

    Geometry (in Angstrom), charge = 0, multiplicity = 1:

       Center              X                  Y                   Z               Mass       
    ------------   -----------------  -----------------  -----------------  -----------------
         C           -1.320584232882    -0.833956981731     0.067861773006    12.000000000000
         C           -2.424696272312     0.202621001729     0.270791836918    12.000000000000
         C            0.086615379661    -0.278735071157    -0.008993114384    12.000000000000
         C           -3.808128407247    -0.444342120351     0.332859815322    12.000000000000
         C            0.355876114607     1.089304511172     0.020709261581    12.000000000000
         C            1.156770974419    -1.163373789064    -0.167118879292    12.000000000000
         C            1.663236158633     1.560727974656    -0.085116332733    12.000000000000
         C            2.462330165338    -0.697113693910    -0.273942645513    12.000000000000
         C            2.721238304709     0.670508458711    -0.231711609884    12.000000000000
         H           -1.524152308576    -1.392167929120    -0.852884113011     1.007825032230
         H           -1.364692858353    -1.562766763934     0.885067286796     1.007825032230
         H           -2.234880788102     0.759554148620     1.193625426767     1.007825032230
         H           -2.397210428464     0.928009552533    -0.548282043491     1.007825032230
         H           -3.872994235238    -1.153324444677     1.161555128460     1.007825032230
         H           -4.581579426549     0.312220039751     0.476091209551     1.007825032230
         H           -4.030590298278    -0.983523034024    -0.590858204015     1.007825032230
         H           -0.451102314544     1.800535683203     0.131156921126     1.007825032230
         H            0.964731825057    -2.228913309508    -0.204820471222     1.007825032230
         H            1.852193357620     2.625381184507    -0.055144281114     1.007825032230
         H            3.276098728448    -1.400019486045    -0.391991240150     1.007825032230
         H            3.735450667659     1.037173523109    -0.314553040780     1.007825032230

  Running in c1 symmetry.

  Rotational constants: A =      0.15625  B =      0.02851  C =      0.02444 [cm^-1]
  Rotational constants: A =   4684.33676  B =    854.60963  C =    732.60232 [MHz]
  Nuclear repulsion =  411.503415759101415

  Charge       = 0
  Multiplicity = 1
  Electrons    = 66
  Nalpha       = 33
  Nbeta        = 33

  ==> Algorithm <==

  SCF Algorithm Type is DF.
  DIIS enabled.
  MOM disabled.
  Fractional occupation disabled.
  Guess Type is READ.
  Energy threshold   = 1.00e-08
  Density threshold  = 1.00e-08
  Integral threshold = 0.00e+00

  ==> Primary Basis <==

  Basis Set: 6-311G
    Blend: 6-311G
    Number of shells: 99
    Number of basis function: 153
    Number of Cartesian functions: 153
    Spherical Harmonics?: true
    Max angular momentum: 1

  ==> DFT Potential <==

   => Composite Functional: WB97X-D <= 

    wB97X-D Hyb-GGA Exchange-Correlation Functional

    J.-D. Chai and M. Head-Gordon, Phys. Chem. Chem. Phys. 10, 6615 (2008)

    Deriv               =              1
    GGA                 =           TRUE
    Meta                =          FALSE

    Exchange Hybrid     =           TRUE
    MP2 Hybrid          =          FALSE

   => Exchange-Correlation Functionals <=

    1.0000   wB97D range-separated functional

   => Exact (HF) Exchange <=

    0.7780            HF,LR [omega = 0.2000]
    0.2220               HF 

   => Molecular Quadrature <=

    Radial Scheme          =       TREUTLER
    Pruning Scheme         =           FLAT
    Nuclear Scheme         =       TREUTLER

    BS radius alpha        =              1
    Pruning alpha          =              1
    Radial Points          =             75
    Spherical Points       =            302
    Total Points           =         469972
    Total Blocks           =           3464
    Max Points             =            256
    Max Functions          =            136

   => WB97X-D: Empirical Dispersion <=

    Chai and Head-Gordon Dispersion Correction
    Chai, J.-D.; Head-Gordon, M. (2010), J. Chem. Phys., 132: 6615-6620

        s6 =       1.000000

   => Loading Basis Set <=

    Name: (6-311G AUX)
    Role: JKFIT
    Keyword: DF_BASIS_SCF
    atoms 1-9   entry C          line   125 file /home/daniele/anaconda3/envs/poltype/share/psi4/basis/cc-pvtz-jkfit.gbs 
    atoms 10-21 entry H          line    51 file /home/daniele/anaconda3/envs/poltype/share/psi4/basis/cc-pvtz-jkfit.gbs 

   => Loading Basis Set <=

    Name: 6-311G
    Role: ORBITAL
    Keyword: BASIS
    atoms 1-9   entry C          line    92 file /home/daniele/anaconda3/envs/poltype/share/psi4/basis/6-311g.gbs 
    atoms 10-21 entry H          line    21 file /home/daniele/anaconda3/envs/poltype/share/psi4/basis/6-311g.gbs 

  Reading orbitals from file 180, no projection.

  ==> Pre-Iterations <==

   -------------------------------------------------------
    Irrep   Nso     Nmo     Nalpha   Nbeta   Ndocc  Nsocc
   -------------------------------------------------------
     A        153     153       0       0       0       0
   -------------------------------------------------------
    Total     153     153      33      33      33       0
   -------------------------------------------------------

  ==> Integral Setup <==

  ==> DiskDFJK: Density-Fitted J/K Matrices <==

    J tasked:                  Yes
    K tasked:                  Yes
    wK tasked:                 Yes
    Omega:               2.000E-01
    OpenMP threads:              8
    Integrals threads:           8
    Memory [MiB]:              114
    Algorithm:                Disk
    Integral Cache:           NONE
    Schwarz Cutoff:          1E-12
    Fitting Condition:       1E-10

   => Auxiliary Basis Set <=

  Basis Set: (6-311G AUX)
    Blend: CC-PVTZ-JKFIT
    Number of shells: 345
    Number of basis function: 1071
    Number of Cartesian functions: 1284
    Spherical Harmonics?: true
    Max angular momentum: 4

  Cached 33.3% of DFT collocation blocks in 0.433 [GiB].

  Minimum eigenvalue in the overlap matrix is 2.3321774676E-04.
  Using Symmetric Orthogonalization.

  SCF Guess: Orbitals guess was supplied from a previous computation.

  ==> Iterations <==

                           Total Energy        Delta E     RMS |[F,P]|

   @DF-RKS iter   0:  -350.14200605438793   -3.50142e+02   7.59465e-04 
   @DF-RKS iter   1:  -350.06299960335031    7.90065e-02   1.13579e-04 DIIS
   @DF-RKS iter   2:  -350.06311930124645   -1.19698e-04   8.09729e-05 DIIS
   @DF-RKS iter   3:  -350.06319940083091   -8.00996e-05   8.35774e-06 DIIS
   @DF-RKS iter   4:  -350.06320045409126   -1.05326e-06   3.76588e-06 DIIS
   @DF-RKS iter   5:  -350.06320065814509   -2.04054e-07   1.46896e-06 DIIS
   @DF-RKS iter   6:  -350.06320070024168   -4.20966e-08   5.22973e-07 DIIS
   @DF-RKS iter   7:  -350.06320070723717   -6.99549e-09   1.73123e-07 DIIS
   @DF-RKS iter   8:  -350.06320070954439   -2.30722e-09   5.02905e-08 DIIS
   @DF-RKS iter   9:  -350.06320070969809   -1.53705e-10   2.98461e-08 DIIS
   @DF-RKS iter  10:  -350.06320070972231   -2.42153e-11   7.88436e-09 DIIS
  Energy and wave function converged.


  ==> Post-Iterations <==

    Orbital Energies [Eh]
    ---------------------

    Doubly Occupied:                                                      

       1A    -10.297390     2A    -10.287486     3A    -10.287130  
       4A    -10.285097     5A    -10.284877     6A    -10.284270  
       7A    -10.284128     8A    -10.281856     9A    -10.271793  
      10A     -0.966443    11A     -0.903883    12A     -0.852406  
      13A     -0.847260    14A     -0.779761    15A     -0.715406  
      16A     -0.692285    17A     -0.667311    18A     -0.609801  
      19A     -0.562037    20A     -0.547658    21A     -0.542724  
      22A     -0.521558    23A     -0.508841    24A     -0.489253  
      25A     -0.485942    26A     -0.450151    27A     -0.446166  
      28A     -0.436460    29A     -0.416868    30A     -0.413588  
      31A     -0.406290    32A     -0.328253    33A     -0.317595  

    Virtual:                                                              

      34A      0.066249    35A      0.072043    36A      0.123529  
      37A      0.132556    38A      0.145362    39A      0.161105  
      40A      0.165975    41A      0.175046    42A      0.190433  
      43A      0.201262    44A      0.218786    45A      0.222865  
      46A      0.226334    47A      0.238069    48A      0.259906  
      49A      0.285827    50A      0.296051    51A      0.315394  
      52A      0.355652    53A      0.362864    54A      0.373626  
      55A      0.385455    56A      0.389015    57A      0.415375  
      58A      0.418216    59A      0.431506    60A      0.469516  
      61A      0.480468    62A      0.481676    63A      0.500058  
      64A      0.504508    65A      0.532021    66A      0.538246  
      67A      0.540859    68A      0.556927    69A      0.561945  
      70A      0.570872    71A      0.605843    72A      0.613523  
      73A      0.634257    74A      0.636965    75A      0.640480  
      76A      0.661642    77A      0.670558    78A      0.681355  
      79A      0.689018    80A      0.690424    81A      0.694665  
      82A      0.702093    83A      0.713241    84A      0.724011  
      85A      0.726570    86A      0.740384    87A      0.741494  
      88A      0.750285    89A      0.772237    90A      0.814412  
      91A      0.821237    92A      0.858648    93A      0.882935  
      94A      0.902079    95A      0.945352    96A      0.957074  
      97A      0.977187    98A      0.997610    99A      1.019040  
     100A      1.098886   101A      1.111034   102A      1.144620  
     103A      1.163301   104A      1.274475   105A      1.374150  
     106A      2.309799   107A      2.340180   108A      2.348557  
     109A      2.363395   110A      2.369278   111A      2.373570  
     112A      2.377515   113A      2.413429   114A      2.436980  
     115A      2.444236   116A      2.466148   117A      2.624617  
     118A      2.643181   119A      2.676177   120A      2.692043  
     121A      2.767921   122A      2.802703   123A      2.823740  
     124A      2.845041   125A      2.911915   126A      2.933090  
     127A      2.935104   128A      2.939296   129A      2.988246  
     130A      3.005509   131A      3.036751   132A      3.069069  
     133A      3.078506   134A      3.129700   135A      3.187654  
     136A      3.205727   137A      3.244287   138A      3.254995  
     139A      3.287951   140A      3.324626   141A      3.363774  
     142A      3.384897   143A      3.392369   144A      3.539868  
     145A     23.251981   146A     23.480592   147A     23.488823  
     148A     23.529831   149A     23.653844   150A     23.724050  
     151A     23.777105   152A     23.803570   153A     24.027856  

    Final Occupation by Irrep:
              A 
    DOCC [    33 ]

  @DF-RKS Final Energy:  -350.06320070972231

   => Energetics <=

    Nuclear Repulsion Energy =            411.5034157591014150
    One-Electron Energy =               -1285.5397861414448926
    Two-Electron Energy =                 560.3861493423092952
    DFT Exchange-Correlation Energy =     -36.4013121386143510
    Empirical Dispersion Energy =          -0.0116675310738505
    VV10 Nonlocal Energy =                  0.0000000000000000
    Total Energy =                       -350.0632007097223095

Computation Completed


Properties will be evaluated at   0.000000,   0.000000,   0.000000 [a0]

Properties computed using the SCF density matrix

  Nuclear Dipole Moment: [e a0]
     X:    -9.9641      Y:    -1.1792      Z:     0.8334

  Electronic Dipole Moment: [e a0]
     X:     9.7870      Y:     1.1266      Z:    -0.8326

  Dipole Moment: [e a0]
     X:    -0.1771      Y:    -0.0526      Z:     0.0008     Total:     0.1848

  Dipole Moment: [D]
     X:    -0.4503      Y:    -0.1337      Z:     0.0020     Total:     0.4697


*** tstop() called on daniele-Precision-5750 at Wed Jun  2 00:40:14 2021
Module time:
	user time   =      69.58 seconds =       1.16 minutes
	system time =       2.01 seconds =       0.03 minutes
	total time  =          9 seconds =       0.15 minutes
Total time:
	user time   =     183.62 seconds =       3.06 minutes
	system time =       4.77 seconds =       0.08 minutes
	total time  =         25 seconds =       0.42 minutes

*** tstart() called on daniele-Precision-5750
*** at Wed Jun  2 00:40:14 2021


         ------------------------------------------------------------
                                   SCF GRAD                          
                          Rob Parrish, Justin Turney,                
                       Andy Simmonett, and Alex Sokolov              
         ------------------------------------------------------------

  ==> Geometry <==

    Molecular point group: c1
    Full point group: C1

    Geometry (in Angstrom), charge = 0, multiplicity = 1:

       Center              X                  Y                   Z               Mass       
    ------------   -----------------  -----------------  -----------------  -----------------
         C           -1.320584232882    -0.833956981731     0.067861773006    12.000000000000
         C           -2.424696272312     0.202621001729     0.270791836918    12.000000000000
         C            0.086615379661    -0.278735071157    -0.008993114384    12.000000000000
         C           -3.808128407247    -0.444342120351     0.332859815322    12.000000000000
         C            0.355876114607     1.089304511172     0.020709261581    12.000000000000
         C            1.156770974419    -1.163373789064    -0.167118879292    12.000000000000
         C            1.663236158633     1.560727974656    -0.085116332733    12.000000000000
         C            2.462330165338    -0.697113693910    -0.273942645513    12.000000000000
         C            2.721238304709     0.670508458711    -0.231711609884    12.000000000000
         H           -1.524152308576    -1.392167929120    -0.852884113011     1.007825032230
         H           -1.364692858353    -1.562766763934     0.885067286796     1.007825032230
         H           -2.234880788102     0.759554148620     1.193625426767     1.007825032230
         H           -2.397210428464     0.928009552533    -0.548282043491     1.007825032230
         H           -3.872994235238    -1.153324444677     1.161555128460     1.007825032230
         H           -4.581579426549     0.312220039751     0.476091209551     1.007825032230
         H           -4.030590298278    -0.983523034024    -0.590858204015     1.007825032230
         H           -0.451102314544     1.800535683203     0.131156921126     1.007825032230
         H            0.964731825057    -2.228913309508    -0.204820471222     1.007825032230
         H            1.852193357620     2.625381184507    -0.055144281114     1.007825032230
         H            3.276098728448    -1.400019486045    -0.391991240150     1.007825032230
         H            3.735450667659     1.037173523109    -0.314553040780     1.007825032230

  Nuclear repulsion =  411.503415759101415

  ==> Basis Set <==

  Basis Set: 6-311G
    Blend: 6-311G
    Number of shells: 99
    Number of basis function: 153
    Number of Cartesian functions: 153
    Spherical Harmonics?: true
    Max angular momentum: 1

  ==> DFJKGrad: Density-Fitted SCF Gradients <==

    Gradient:                    1
    J tasked:                  Yes
    K tasked:                  Yes
    wK tasked:                 Yes
    Omega:               2.000E-01
    OpenMP threads:              8
    Integrals threads:           8
    Memory [MiB]:              500
    Schwarz Cutoff:          0E+00
    Fitting Condition:       1E-10

   => Auxiliary Basis Set <=

  Basis Set: (6-311G AUX)
    Blend: CC-PVTZ-JKFIT
    Number of shells: 345
    Number of basis function: 1071
    Number of Cartesian functions: 1284
    Spherical Harmonics?: true
    Max angular momentum: 4

  ==> DFT Potential <==

   => Composite Functional: WB97X-D <= 

    wB97X-D Hyb-GGA Exchange-Correlation Functional

    J.-D. Chai and M. Head-Gordon, Phys. Chem. Chem. Phys. 10, 6615 (2008)

    Deriv               =              1
    GGA                 =           TRUE
    Meta                =          FALSE

    Exchange Hybrid     =           TRUE
    MP2 Hybrid          =          FALSE

   => Exchange-Correlation Functionals <=

    1.0000   wB97D range-separated functional

   => Exact (HF) Exchange <=

    0.7780            HF,LR [omega = 0.2000]
    0.2220               HF 

   => Molecular Quadrature <=

    Radial Scheme          =       TREUTLER
    Pruning Scheme         =           FLAT
    Nuclear Scheme         =       TREUTLER

    BS radius alpha        =              1
    Pruning alpha          =              1
    Radial Points          =             75
    Spherical Points       =            302
    Total Points           =         469972
    Total Blocks           =           3464
    Max Points             =            256
    Max Functions          =            136


  -Total Gradient:
     Atom            X                  Y                   Z
    ------   -----------------  -----------------  -----------------
       1       -0.001064481715    -0.001015337787    -0.001308202786
       2        0.000635375259     0.001233062693     0.000390117217
       3        0.002596652465     0.000858009457     0.003757984807
       4        0.001261302741    -0.001806627166    -0.000604932169
       5       -0.000475412616    -0.002141706773    -0.001488931858
       6       -0.003191815803     0.001262308560    -0.000942927040
       7       -0.000879869530    -0.001080189849     0.000031594395
       8       -0.000347535365     0.002041455656     0.000099058072
       9       -0.001112013863    -0.001485403874     0.000046105825
      10        0.000394917256     0.000460686168    -0.000323731440
      11        0.000511720910     0.000407395915     0.000417084286
      12        0.000619076303    -0.000070060697     0.000173411482
      13        0.000744249895     0.000074389262    -0.000345435830
      14        0.000112644475     0.000164590337     0.000098568296
      15        0.000766966598     0.000694527566     0.000039543985
      16        0.000099707115     0.000181897712    -0.000054526909
      17       -0.000709373569     0.000103041943     0.000014103544
      18        0.000397338982     0.000167593057    -0.000066514774
      19       -0.000006611195    -0.000257776259    -0.000010992590
      20       -0.000222750572     0.000092348575     0.000043416645
      21        0.000019953114     0.000030375287     0.000002976292


*** tstop() called on daniele-Precision-5750 at Wed Jun  2 00:40:19 2021
Module time:
	user time   =      37.94 seconds =       0.63 minutes
	system time =       0.51 seconds =       0.01 minutes
	total time  =          5 seconds =       0.08 minutes
Total time:
	user time   =     221.57 seconds =       3.69 minutes
	system time =       5.28 seconds =       0.09 minutes
	total time  =         30 seconds =       0.50 minutes

			-----------------------------------------
			 OPTKING 2.0: for geometry optimizations 
			  - R.A. King,  Bethel University        
			-----------------------------------------
	At level 1: Red. Int., RFO, no backsteps, dynamic trust

	Previous internal coordinate definitions found.
	---Fragment 1 Geometry and Gradient---
	 C          -2.4955425257       -1.5759502959        0.1282401654
	 C          -4.5820118921        0.3828982005        0.5117224088
	 C           0.1636793458       -0.5267329460       -0.0169945232
	 C          -7.1963197403       -0.8396849135        0.6290138891
	 C           0.6725083912        2.0584871933        0.0391348326
	 C           2.1859803315       -2.1984578429       -0.3158089123
	 C           3.1430608218        2.9493484284       -0.1608465577
	 C           4.6531296429       -1.3173539598       -0.5176765741
	 C           5.1423951180        1.2670773518       -0.4378714828
	 H          -2.8802304367       -2.6308161067       -1.6117173903
	 H          -2.5788957477       -2.9532011818        1.6725347746
	 H          -4.2233126126        1.4353493183        2.2556251530
	 H          -4.5300711749        1.7536838961       -1.0361029017
	 H          -7.3188983901       -2.1794673342        2.1950210724
	 H          -8.6579303382        0.5900103660        0.8996819968
	 H          -7.6167117877       -1.8585891724       -1.1165601846
	 H          -0.8524598290        3.4025193204        0.2478506604
	 H           1.8230789339       -4.2120357124       -0.3870545955
	 H           3.5001381773        4.9612514136       -0.1042075887
	 H           6.1909293567       -2.6456533989       -0.7407560875
	 H           7.0589787170        1.9599739033       -0.5944190990
	            -0.0010644817       -0.0010153378       -0.0013082028
	             0.0006353753        0.0012330627        0.0003901172
	             0.0025966525        0.0008580095        0.0037579848
	             0.0012613027       -0.0018066272       -0.0006049322
	            -0.0004754126       -0.0021417068       -0.0014889319
	            -0.0031918158        0.0012623086       -0.0009429270
	            -0.0008798695       -0.0010801898        0.0000315944
	            -0.0003475354        0.0020414557        0.0000990581
	            -0.0011120139       -0.0014854039        0.0000461058
	             0.0003949173        0.0004606862       -0.0003237314
	             0.0005117209        0.0004073959        0.0004170843
	             0.0006190763       -0.0000700607        0.0001734115
	             0.0007442499        0.0000743893       -0.0003454358
	             0.0001126445        0.0001645903        0.0000985683
	             0.0007669666        0.0006945276        0.0000395440
	             0.0000997071        0.0001818977       -0.0000545269
	            -0.0007093736        0.0001030419        0.0000141035
	             0.0003973390        0.0001675931       -0.0000665148
	            -0.0000066112       -0.0002577763       -0.0000109926
	            -0.0002227506        0.0000923486        0.0000434166
	             0.0000199531        0.0000303753        0.0000029763

	---Fragment 1 Intrafragment Coordinates---
	 - Coordinate -           - BOHR/RAD -       - ANG/DEG -
	 R(1,2)           =         2.887473	       1.527985
	 R(1,3)           =         2.862414	       1.514724
	 R(1,10)          =         2.070792	       1.095816
	 R(1,11)          =         2.070897	       1.095871
	 R(2,4)           =         2.888438	       1.528495
	 R(2,12)          =         2.068215	       1.094452
	 R(2,13)          =         2.068215	       1.094452
	 R(3,5)           =         2.635417	       1.394602
	 R(3,6)           =         2.640768	       1.397434
	 R(4,14)          =         2.064563	       1.092520
	 R(4,15)          =         2.062425	       1.091388
	 R(4,16)          =         2.064443	       1.092456
	 R(5,7)           =         2.633867	       1.393782
	 R(5,17)          =         2.043407	       1.081324
	 R(6,8)           =         2.627531	       1.390430
	 R(6,18)          =         2.047259	       1.083363
	 R(7,9)           =         2.627569	       1.390449
	 R(7,19)          =         2.044130	       1.081707
	 R(8,9)           =         2.631546	       1.392554
	 R(8,20)          =         2.044253	       1.081772
	 R(9,21)          =         2.043993	       1.081634
	 B(1,2,4)         =         1.952245	     111.855380
	 B(1,2,12)        =         1.909087	     109.382652
	 B(1,2,13)        =         1.909317	     109.395798
	 B(1,3,5)         =         2.138688	     122.537776
	 B(1,3,6)         =         2.077317	     119.021505
	 B(2,1,3)         =         2.014594	     115.427725
	 B(2,1,10)        =         1.899622	     108.840336
	 B(2,1,11)        =         1.899742	     108.847209
	 B(2,4,14)        =         1.938224	     111.052035
	 B(2,4,15)        =         1.931938	     110.691886
	 B(2,4,16)        =         1.937861	     111.031241
	 B(3,1,10)        =         1.893013	     108.461682
	 B(3,1,11)        =         1.895474	     108.602653
	 B(3,5,7)         =         2.107465	     120.748836
	 B(3,5,17)        =         2.098210	     120.218568
	 B(3,6,8)         =         2.112350	     121.028724
	 B(3,6,18)        =         2.083828	     119.394539
	 B(4,2,12)        =         1.915718	     109.762533
	 B(4,2,13)        =         1.910976	     109.490871
	 B(5,3,6)         =         2.066376	     118.394625
	 B(5,7,9)         =         2.100388	     120.343377
	 B(5,7,19)        =         2.088228	     119.646666
	 B(6,8,9)         =         2.096216	     120.104336
	 B(6,8,20)        =         2.090739	     119.790515
	 B(7,5,17)        =         2.077501	     119.032033
	 B(7,9,8)         =         2.083463	     119.373653
	 B(7,9,21)        =         2.099618	     120.299224
	 B(8,6,18)        =         2.087006	     119.576614
	 B(8,9,21)        =         2.100102	     120.326957
	 B(9,7,19)        =         2.094566	     120.009784
	 B(9,8,20)        =         2.096228	     120.105031
	 B(10,1,11)       =         1.854925	     106.279360
	 B(12,2,13)       =         1.864403	     106.822430
	 B(14,4,15)       =         1.884129	     107.952665
	 B(14,4,16)       =         1.884920	     107.997974
	 B(15,4,16)       =         1.884715	     107.986203
	*D(1,2,4,14)      =         1.050882	      60.211075
	 D(1,2,4,15)      =        -3.139719	    -179.892672
	 D(1,2,4,16)      =        -1.046638	     -59.967930
	 D(1,3,5,7)       =        -3.114237	    -178.432635
	 D(1,3,5,17)      =         0.032164	       1.842840
	 D(1,3,6,8)       =         3.115077	     178.480768
	 D(1,3,6,18)      =        -0.028743	      -1.646852
	*D(2,1,3,5)       =        -0.065662	      -3.762180
	*D(2,1,3,6)       =         3.119747	     178.748334
	*D(3,1,2,4)       =         3.139013	     179.852195
	 D(3,1,2,12)      =        -1.017950	     -58.324221
	 D(3,1,2,13)      =         1.018625	      58.362923
	 D(3,5,7,9)       =         0.007812	       0.447602
	 D(3,5,7,19)      =        -3.136420	    -179.703616
	 D(3,6,8,9)       =        -0.006276	      -0.359601
	 D(3,6,8,20)      =         3.137491	     179.765013
	 D(4,2,1,10)      =         1.006417	      57.663463
	 D(4,2,1,11)      =        -1.008255	     -57.768751
	 D(5,3,1,10)      =         2.070463	     118.628802
	 D(5,3,1,11)      =        -2.203856	    -126.271635
	 D(5,3,6,8)       =         0.015474	       0.886608
	 D(5,3,6,18)      =        -3.128346	    -179.241011
	 D(5,7,9,8)       =         0.001731	       0.099168
	 D(5,7,9,21)      =         3.140751	     179.951793
	 D(6,3,1,10)      =        -1.027313	     -58.860684
	 D(6,3,1,11)      =         0.981554	      56.238880
	 D(6,3,5,7)       =        -0.016199	      -0.928142
	 D(6,3,5,17)      =         3.130201	     179.347333
	 D(6,8,9,7)       =        -0.002490	      -0.142668
	 D(6,8,9,21)      =        -3.141510	    -179.995251
	 D(7,9,8,20)      =         3.136921	     179.732323
	 D(8,9,7,19)      =        -3.137213	    -179.749064
	 D(9,7,5,17)      =        -3.138532	    -179.824647
	 D(9,8,6,18)      =         3.137548	     179.768248
	 D(10,1,2,12)     =         3.132640	     179.487046
	 D(10,1,2,13)     =        -1.113971	     -63.825809
	 D(11,1,2,12)     =         1.117968	      64.054832
	 D(11,1,2,13)     =        -3.128643	    -179.258023
	 D(12,2,4,14)     =        -1.071526	     -61.393942
	 D(12,2,4,15)     =         1.021058	      58.502311
	 D(12,2,4,16)     =         3.114140	     178.427054
	 D(13,2,4,14)     =        -3.112873	    -178.354501
	 D(13,2,4,15)     =        -1.020289	     -58.458249
	 D(13,2,4,16)     =         1.072793	      61.466494
	 D(17,5,7,19)     =         0.000421	       0.024134
	 D(18,6,8,20)     =        -0.001870	      -0.107137
	 D(19,7,9,21)     =         0.001807	       0.103561
	 D(20,8,9,21)     =        -0.002099	      -0.120260

	Current energy   :      -350.0632007097

	Energy change for the previous step:
		Projected    :        -0.0062373506
		Actual       :        -0.0026461884

	Performing BFGS update.
	Previous computed or guess Hessian on step 1.
	Steps to be used in Hessian update: 1
	Taking RFO optimization step.
	Going to follow RFO solution 1.
	Using RFO vector 1.
	Norm of target step-size    0.04683
	Projected energy change by RFO approximation:        -0.0003642451

	Back-transformation to cartesian coordinates...
	Successfully converged to displaced geometry.

	Back-transformation to cartesian coordinates to adjust frozen coordinates...
	Successfully converged to displaced geometry.

	--- Internal Coordinate Step in ANG or DEG, aJ/ANG or AJ/DEG ---
	 ---------------------------------------------------------------------------
	   Coordinate                Previous        Force       Change         New 
	   ----------                --------       ------       ------       ------
	    1 R(1,2)          =      1.527985     0.022230     0.003308     1.531293
	    2 R(1,3)          =      1.514724     0.032511     0.005043     1.519767
	    3 R(1,10)         =      1.095816     0.000322    -0.000048     1.095768
	    4 R(1,11)         =      1.095871    -0.000144    -0.000119     1.095752
	    5 R(2,4)          =      1.528495     0.014128     0.002161     1.530656
	    6 R(2,12)         =      1.094452    -0.001835    -0.000428     1.094025
	    7 R(2,13)         =      1.094452    -0.002720    -0.000566     1.093887
	    8 R(3,5)          =      1.394602     0.028402     0.002785     1.397387
	    9 R(3,6)          =      1.397434     0.031393     0.003264     1.400699
	   10 R(4,14)         =      1.092520     0.000357    -0.000044     1.092476
	   11 R(4,15)         =      1.091388     0.000358    -0.000081     1.091307
	   12 R(4,16)         =      1.092456     0.000577    -0.000011     1.092445
	   13 R(5,7)          =      1.393782     0.015342     0.001326     1.395108
	   14 R(5,17)         =      1.081324    -0.004975    -0.000993     1.080331
	   15 R(6,8)          =      1.390430     0.006648     0.000169     1.390599
	   16 R(6,18)         =      1.083363     0.001912     0.000071     1.083434
	   17 R(7,9)          =      1.390449     0.007216     0.000277     1.390726
	   18 R(7,19)         =      1.081707     0.002110     0.000072     1.081779
	   19 R(8,9)          =      1.392554     0.015978     0.001399     1.393953
	   20 R(8,20)         =      1.081772     0.001957     0.000056     1.081829
	   21 R(9,21)         =      1.081634    -0.000185    -0.000269     1.081365
	   22 B(1,2,4)        =    111.855380     0.000096     0.247043   112.102423
	   23 B(1,2,12)       =    109.382652     0.000005     0.169798   109.552450
	   24 B(1,2,13)       =    109.395798    -0.000001     0.169806   109.565604
	   25 B(1,3,5)        =    122.537776     0.000235     0.572580   123.110356
	   26 B(1,3,6)        =    119.021505    -0.000080    -0.213392   118.808112
	   27 B(2,1,3)        =    115.427725     0.000411     1.283860   116.711585
	   28 B(2,1,10)       =    108.840336    -0.000125    -0.368535   108.471801
	   29 B(2,1,11)       =    108.847209    -0.000126    -0.332020   108.515189
	   30 B(2,4,14)       =    111.052035    -0.000006    -0.065316   110.986718
	   31 B(2,4,15)       =    110.691886     0.000112     0.532431   111.224316
	   32 B(2,4,16)       =    111.031241    -0.000005    -0.087343   110.943898
	   33 B(3,1,10)       =    108.461682    -0.000105    -0.135182   108.326501
	   34 B(3,1,11)       =    108.602653    -0.000107    -0.068533   108.534121
	   35 B(3,5,7)        =    120.748836     0.000044     0.134150   120.882986
	   36 B(3,5,17)       =    120.218568     0.000008     0.011162   120.229731
	   37 B(3,6,8)        =    121.028724     0.000082     0.237000   121.265724
	   38 B(3,6,18)       =    119.394539    -0.000069    -0.253681   119.140858
	   39 B(4,2,12)       =    109.762533    -0.000056    -0.227762   109.534771
	   40 B(4,2,13)       =    109.490871    -0.000061    -0.324292   109.166578
	   41 B(5,3,6)        =    118.394625    -0.000155    -0.358831   118.035794
	   42 B(5,7,9)        =    120.343377     0.000025     0.056689   120.400066
	   43 B(5,7,19)       =    119.646666    -0.000016    -0.047638   119.599028
	   44 B(6,8,9)        =    120.104336    -0.000001    -0.029963   120.074373
	   45 B(6,8,20)       =    119.790515     0.000007     0.033877   119.824392
	   46 B(7,5,17)       =    119.032033    -0.000052    -0.145668   118.886365
	   47 B(7,9,8)        =    119.373653     0.000005    -0.038323   119.335330
	   48 B(7,9,21)       =    120.299224    -0.000001     0.024968   120.324192
	   49 B(8,6,18)       =    119.576614    -0.000013     0.016618   119.593232
	   50 B(8,9,21)       =    120.326957    -0.000004     0.013407   120.340364
	   51 B(9,7,19)       =    120.009784    -0.000010    -0.009063   120.000722
	   52 B(9,8,20)       =    120.105031    -0.000006    -0.003976   120.101055
	   53 B(10,1,11)      =    106.279360     0.000024    -0.535797   105.743563
	   54 B(12,2,13)      =    106.822430     0.000013    -0.048893   106.773536
	   55 B(14,4,15)      =    107.952665    -0.000050    -0.079900   107.872765
[...]
	 R(1,3)           =         2.871943	       1.519767
	 R(1,10)          =         2.070702	       1.095768
	 R(1,11)          =         2.070672	       1.095752
	 R(2,4)           =         2.892521	       1.530656
	 R(2,12)          =         2.067407	       1.094025
	 R(2,13)          =         2.067146	       1.093887
	 R(3,5)           =         2.640679	       1.397387
	 R(3,6)           =         2.646937	       1.400699
	 R(4,14)          =         2.064481	       1.092476
	 R(4,15)          =         2.062271	       1.091307
	 R(4,16)          =         2.064422	       1.092445
	 R(5,7)           =         2.636373	       1.395108
	 R(5,17)          =         2.041530	       1.080331
	 R(6,8)           =         2.627851	       1.390599
	 R(6,18)          =         2.047393	       1.083434
	 R(7,9)           =         2.628091	       1.390726
	 R(7,19)          =         2.044265	       1.081779
	 R(8,9)           =         2.634190	       1.393953
	 R(8,20)          =         2.044360	       1.081829
	 R(9,21)          =         2.043483	       1.081365
	 B(1,2,4)         =         1.956556	     112.102423
	 B(1,2,12)        =         1.912051	     109.552450
	 B(1,2,13)        =         1.912281	     109.565604
	 B(1,3,5)         =         2.148681	     123.110356
	 B(1,3,6)         =         2.073593	     118.808112
	 B(2,1,3)         =         2.037001	     116.711585
	 B(2,1,10)        =         1.893190	     108.471801
	 B(2,1,11)        =         1.893947	     108.515189
	 B(2,4,14)        =         1.937084	     110.986718
	 B(2,4,15)        =         1.941231	     111.224316
	 B(2,4,16)        =         1.936336	     110.943898
	 B(3,1,10)        =         1.890654	     108.326501
	 B(3,1,11)        =         1.894278	     108.534121
	 B(3,5,7)         =         2.109806	     120.882986
	 B(3,5,17)        =         2.098405	     120.229731
	 B(3,6,8)         =         2.116486	     121.265724
	 B(3,6,18)        =         2.079400	     119.140858
	 B(4,2,12)        =         1.911742	     109.534771
	 B(4,2,13)        =         1.905316	     109.166578
	 B(5,3,6)         =         2.060113	     118.035794
	 B(5,7,9)         =         2.101378	     120.400066
	 B(5,7,19)        =         2.087397	     119.599028
	 B(6,8,9)         =         2.095693	     120.074373
	 B(6,8,20)        =         2.091330	     119.824392
	 B(7,5,17)        =         2.074959	     118.886365
	 B(7,9,8)         =         2.082794	     119.335330
	 B(7,9,21)        =         2.100053	     120.324192
	 B(8,6,18)        =         2.087296	     119.593232
	 B(8,9,21)        =         2.100336	     120.340364
	 B(9,7,19)        =         2.094408	     120.000722
	 B(9,8,20)        =         2.096159	     120.101055
	 B(10,1,11)       =         1.845573	     105.743563
	 B(12,2,13)       =         1.863550	     106.773536
	 B(14,4,15)       =         1.882735	     107.872765
	 B(14,4,16)       =         1.881127	     107.780617
	 B(15,4,16)       =         1.882914	     107.883019
	*D(1,2,4,14)      =         1.050882	      60.211075
	 D(1,2,4,15)      =        -3.136056	    -179.682773
	 D(1,2,4,16)      =        -1.040083	     -59.592395
	 D(1,3,5,7)       =        -3.113447	    -178.387365
	 D(1,3,5,17)      =         0.034298	       1.965117
	 D(1,3,6,8)       =         3.114559	     178.451078
	 D(1,3,6,18)      =        -0.029780	      -1.706269
	*D(2,1,3,5)       =        -0.065662	      -3.762180
	*D(2,1,3,6)       =         3.119747	     178.748334
	*D(3,1,2,4)       =         3.139013	     179.852195
	 D(3,1,2,12)      =        -1.018058	     -58.330417
	 D(3,1,2,13)      =         1.020892	      58.492782
	 D(3,5,7,9)       =         0.007812	       0.447588
	 D(3,5,7,19)      =        -3.136513	    -179.708939
	 D(3,6,8,9)       =        -0.006090	      -0.348948
	 D(3,6,8,20)      =         3.138194	     179.805262
	 D(4,2,1,10)      =         0.998718	      57.222333
	 D(4,2,1,11)      =        -0.998434	     -57.206057
	 D(5,3,1,10)      =         2.075948	     118.943062
	 D(5,3,1,11)      =        -2.211230	    -126.694136
	 D(5,3,6,8)       =         0.014546	       0.833427
	 D(5,3,6,18)      =        -3.129793	    -179.323920
	 D(5,7,9,8)       =         0.001047	       0.059990
	 D(5,7,9,21)      =         3.140512	     179.938081
	 D(6,3,1,10)      =        -1.021828	     -58.546423
	 D(6,3,1,11)      =         0.974180	      55.816379
	 D(6,3,5,7)       =        -0.015352	      -0.879620
	 D(6,3,5,17)      =         3.132392	     179.472862
	 D(6,8,9,7)       =        -0.001899	      -0.108815
	 D(6,8,9,21)      =        -3.141364	    -179.986886
	 D(7,9,8,20)      =         3.136994	     179.736544
	 D(8,9,7,19)      =        -3.137803	    -179.782853
	 D(9,7,5,17)      =        -3.139851	    -179.900237
	 D(9,8,6,18)      =         3.138261	     179.809099
	 D(10,1,2,12)     =         3.124833	     179.039720
	 D(10,1,2,13)     =        -1.119403	     -64.137081
	 D(11,1,2,12)     =         1.127680	      64.611330
	 D(11,1,2,13)     =        -3.116555	    -178.565471
	 D(12,2,4,14)     =        -1.075409	     -61.616426
	 D(12,2,4,15)     =         1.020838	      58.489726
	 D(12,2,4,16)     =         3.116811	     178.580105
	 D(13,2,4,14)     =        -3.110184	    -178.200404
	 D(13,2,4,15)     =        -1.013936	     -58.094252
	 D(13,2,4,16)     =         1.082037	      61.996126
	 D(17,5,7,19)     =        -0.000991	      -0.056765
	 D(18,6,8,20)     =        -0.000640	      -0.036690
	 D(19,7,9,21)     =         0.001662	       0.095238
	 D(20,8,9,21)     =        -0.002470	      -0.141526

	Current energy   :      -350.0633575926

	Energy change for the previous step:
		Projected    :        -0.0003642451
		Actual       :        -0.0001568828

	Performing BFGS update.
	Previous computed or guess Hessian on step 1.
	Steps to be used in Hessian update: 2 1
	Taking RFO optimization step.
	Going to follow RFO solution 1.
	Using RFO vector 1.
	Norm of target step-size    0.01026
	Projected energy change by RFO approximation:        -0.0000285097

	Back-transformation to cartesian coordinates...
	Successfully converged to displaced geometry.

	Back-transformation to cartesian coordinates to adjust frozen coordinates...
	Successfully converged to displaced geometry.

	--- Internal Coordinate Step in ANG or DEG, aJ/ANG or AJ/DEG ---
	 ---------------------------------------------------------------------------
	   Coordinate                Previous        Force       Change         New 
	   ----------                --------       ------       ------       ------
	    1 R(1,2)          =      1.531293    -0.001823    -0.000240     1.531053
	    2 R(1,3)          =      1.519767    -0.012132    -0.002122     1.517645
	    3 R(1,10)         =      1.095768     0.002467     0.000382     1.096150
	    4 R(1,11)         =      1.095752     0.002165     0.000329     1.096081
	    5 R(2,4)          =      1.530656     0.002078     0.000500     1.531156
	    6 R(2,12)         =      1.094025     0.001356     0.000173     1.094198
	    7 R(2,13)         =      1.093887     0.001994     0.000266     1.094152
	    8 R(3,5)          =      1.397387    -0.000267     0.000060     1.397447
	    9 R(3,6)          =      1.400699     0.008272     0.001202     1.401900
	   10 R(4,14)         =      1.092476     0.001808     0.000274     1.092750
	   11 R(4,15)         =      1.091307    -0.000709    -0.000132     1.091175
	   12 R(4,16)         =      1.092445     0.001966     0.000300     1.092745
	   13 R(5,7)          =      1.395108     0.004106     0.000529     1.395637
	   14 R(5,17)         =      1.080331     0.005365     0.000736     1.081067
	   15 R(6,8)          =      1.390599     0.000617     0.000035     1.390634
	   16 R(6,18)         =      1.083434     0.002224     0.000328     1.083762
	   17 R(7,9)          =      1.390726     0.004155     0.000469     1.391195
	   18 R(7,19)         =      1.081779     0.001524     0.000216     1.081995
	   19 R(8,9)          =      1.393953     0.008672     0.001115     1.395068
	   20 R(8,20)         =      1.081829     0.001221     0.000169     1.081997
	   21 R(9,21)         =      1.081365     0.001127     0.000131     1.081496
	   22 B(1,2,4)        =    112.102423    -0.000036    -0.077440   112.024983
	   23 B(1,2,12)       =    109.552450     0.000013     0.040346   109.592797
	   24 B(1,2,13)       =    109.565604     0.000010     0.054724   109.620328
	   25 B(1,3,5)        =    123.110356    -0.000079    -0.161483   122.948873
	   26 B(1,3,6)        =    118.808112     0.000044     0.097073   118.905186
	   27 B(2,1,3)        =    116.711585    -0.000112    -0.263988   116.447597
	   28 B(2,1,10)       =    108.471801     0.000037     0.080466   108.552267
	   29 B(2,1,11)       =    108.515189     0.000036     0.092652   108.607841
	   30 B(2,4,14)       =    110.986718     0.000009     0.035416   111.022135
	   31 B(2,4,15)       =    111.224316    -0.000006     0.006025   111.230341
	   32 B(2,4,16)       =    110.943898     0.000006     0.022060   110.965958
	   33 B(3,1,10)       =    108.326501     0.000030     0.047500   108.374000
	   34 B(3,1,11)       =    108.534121     0.000033     0.062642   108.596763
	   35 B(3,5,7)        =    120.882986    -0.000011    -0.025227   120.857759
	   36 B(3,5,17)       =    120.229731    -0.000014    -0.061372   120.168358
	   37 B(3,6,8)        =    121.265724    -0.000023    -0.045997   121.219727
	   38 B(3,6,18)       =    119.140858     0.000006    -0.010934   119.129924
	   39 B(4,2,12)       =    109.534771     0.000011     0.000045   109.534815
	   40 B(4,2,13)       =    109.166578     0.000017     0.068672   109.235250
	   41 B(5,3,6)        =    118.035794     0.000035     0.064341   118.100134
	   42 B(5,7,9)        =    120.400066    -0.000005    -0.011204   120.388862
	   43 B(5,7,19)       =    119.599028    -0.000006    -0.030059   119.568969
	   44 B(6,8,9)        =    120.074373    -0.000006    -0.010592   120.063781
	   45 B(6,8,20)       =    119.824392     0.000002     0.001787   119.826179
	   46 B(7,5,17)       =    118.886365     0.000025     0.086923   118.973288
	   47 B(7,9,8)        =    119.335330     0.000010     0.028773   119.364103
	   48 B(7,9,21)       =    120.324192    -0.000003    -0.008956   120.315236
	   49 B(8,6,18)       =    119.593232     0.000017     0.056906   119.650138
	   50 B(8,9,21)       =    120.340364    -0.000006    -0.019836   120.320528
	   51 B(9,7,19)       =    120.000722     0.000011     0.041281   120.042002
	   52 B(9,8,20)       =    120.101055     0.000004     0.008817   120.109872
	   53 B(10,1,11)      =    105.743563    -0.000017     0.002875   105.746438
	   54 B(12,2,13)      =    106.773536    -0.000014    -0.086661   106.686875
	   55 B(14,4,15)      =    107.872765    -0.000002    -0.017952   107.854813
	   56 B(14,4,16)      =    107.780617    -0.000007    -0.031553   107.749065
	   57 B(15,4,16)      =    107.883019    -0.000001    -0.017601   107.865418
	   58 *D(1,2,4,14)    =     60.211075    -0.000000     0.000000    60.211075
	   59 D(1,2,4,15)     =   -179.682773    -0.000000     0.005121  -179.677652
	   60 D(1,2,4,16)     =    -59.592395    -0.000000     0.001701   -59.590694
	   61 D(1,3,5,7)      =   -178.387365    -0.000000     0.017750  -178.369615
	   62 D(1,3,5,17)     =      1.965117    -0.000000    -0.051238     1.913879
	   63 D(1,3,6,8)      =    178.451078    -0.000000     0.001046   178.452125
	   64 D(1,3,6,18)     =     -1.706269    -0.000000    -0.009445    -1.715714
	   65 *D(2,1,3,5)     =     -3.762180     0.000000     0.000000    -3.762180
	   66 *D(2,1,3,6)     =    178.748334     0.000000    -0.000000   178.748334
	   67 *D(3,1,2,4)     =    179.852195     0.000000     0.000000   179.852195
	   68 D(3,1,2,12)     =    -58.330417    -0.000000    -0.023668   -58.354085
	   69 D(3,1,2,13)     =     58.492782    -0.000001    -0.073442    58.419339
	   70 D(3,5,7,9)      =      0.447588    -0.000000    -0.032174     0.415414
	   71 D(3,5,7,19)     =   -179.708939    -0.000000    -0.024287  -179.733226
	   72 D(3,6,8,9)      =     -0.348948    -0.000000    -0.018896    -0.367845
	   73 D(3,6,8,20)     =    179.805262    -0.000000    -0.023955   179.781307
	   74 D(4,2,1,10)     =     57.222333     0.000002     0.061263    57.283596
	   75 D(4,2,1,11)     =    -57.206057    -0.000002    -0.032317   -57.238374
	   76 D(5,3,1,10)     =    118.943062    -0.000002    -0.043629   118.899433
	   77 D(5,3,1,11)     =   -126.694136     0.000001     0.016765  -126.677371
	   78 D(5,3,6,8)      =      0.833427     0.000000     0.006849     0.840276
	   79 D(5,3,6,18)     =   -179.323920     0.000000    -0.003643  -179.327563
	   80 D(5,7,9,8)      =      0.059990     0.000000     0.019102     0.079092
	   81 D(5,7,9,21)     =    179.938081     0.000000     0.008688   179.946769
	   82 D(6,3,1,10)     =    -58.546423    -0.000002    -0.043629   -58.590052
	   83 D(6,3,1,11)     =     55.816379     0.000001     0.016765    55.833143
	   84 D(6,3,5,7)      =     -0.879620    -0.000000     0.018585    -0.861036
	   85 D(6,3,5,17)     =    179.472862    -0.000000    -0.050403   179.422458
	   86 D(6,8,9,7)      =     -0.108815     0.000000     0.006287    -0.102528
	   87 D(6,8,9,21)     =   -179.986886     0.000000     0.016688  -179.970198
	   88 D(7,9,8,20)     =    179.736544     0.000000     0.011349   179.747893
	   89 D(8,9,7,19)     =   -179.782853     0.000000     0.011289  -179.771563
	   90 D(9,7,5,17)     =   -179.900237     0.000000     0.035493  -179.864745
	   91 D(9,8,6,18)     =    179.809099    -0.000000    -0.008245   179.800854
	   92 D(10,1,2,12)    =    179.039720     0.000002     0.037595   179.077315
	   93 D(10,1,2,13)    =    -64.137081     0.000001    -0.012179   -64.149260
	   94 D(11,1,2,12)    =     64.611330    -0.000002    -0.055986    64.555345
	   95 D(11,1,2,13)    =   -178.565471    -0.000003    -0.105760  -178.671230
	   96 D(12,2,4,14)    =    -61.616426     0.000000     0.000562   -61.615863
	   97 D(12,2,4,15)    =     58.489726    -0.000000     0.005683    58.495410
	   98 D(12,2,4,16)    =    178.580105    -0.000000     0.002263   178.582368
	   99 D(13,2,4,14)    =   -178.200404     0.000000     0.065592  -178.134812
	  100 D(13,2,4,15)    =    -58.094252     0.000000     0.070713   -58.023539
	  101 D(13,2,4,16)    =     61.996126    -0.000000     0.067293    62.063420
	  102 D(17,5,7,19)    =     -0.056765     0.000000     0.043380    -0.013385
	  103 D(18,6,8,20)    =     -0.036690    -0.000000    -0.013304    -0.049994
	  104 D(19,7,9,21)    =      0.095238    -0.000000     0.000875     0.096114
	  105 D(20,8,9,21)    =     -0.141526     0.000000     0.021750    -0.119776
	 ---------------------------------------------------------------------------
	Successfully symmetrized geometry.

  ==> Convergence Check <==

  Measures of convergence in internal coordinates in au.
  Criteria marked as inactive (o), active & met (*), and active & unmet ( ).
  ---------------------------------------------------------------------------------------------
   Step     Total Energy     Delta E     MAX Force     RMS Force      MAX Disp      RMS Disp   
  ---------------------------------------------------------------------------------------------
    Convergence Criteria             o    2.50e-03 *    1.70e-03 *    1.00e-02 *    6.70e-03 *
  ---------------------------------------------------------------------------------------------
      3    -350.06335759   -1.57e-04 o    1.47e-03 *    3.29e-04 *    4.61e-03 *    1.00e-03 *  ~
  ---------------------------------------------------------------------------------------------


  **** Optimization is complete! (in 3 steps) ****

  ==> Optimization Summary <==

  Measures of convergence in internal coordinates in au.
  --------------------------------------------------------------------------------------------------------------- ~
   Step         Total Energy             Delta E       MAX Force       RMS Force        MAX Disp        RMS Disp  ~
  --------------------------------------------------------------------------------------------------------------- ~
      1    -350.060554521348   -350.060554521348      0.01939657      0.00459058      0.06186474      0.01444734  ~
      2    -350.063200709722     -0.002646188375      0.00540744      0.00110835      0.02240759      0.00457456  ~
      3    -350.063357592570     -0.000156882848      0.00147254      0.00032934      0.00460746      0.00100134  ~
  --------------------------------------------------------------------------------------------------------------- ~

	Writing optimization data to binary file.
	Final energy is   -350.0633575925702
	Final (previous) structure:
	Cartesian Geometry (in Angstrom)
	    C    -1.3370438932  -0.7986849577   0.0706923593
	    C    -2.4498888516   0.2336882902   0.2722843395
	    C     0.0838378009  -0.2651024317  -0.0072598554
	    C    -3.8344494849  -0.4161875765   0.3319620765
	    C     0.3898272525   1.0981098863   0.0194412054
	    C     1.1383110585  -1.1735776414  -0.1644723911
	    C     1.7093164297   1.5380942469  -0.0886754556
	    C     2.4548563603  -0.7393421080  -0.2736174285
	    C     2.7464964273   0.6232098696  -0.2348361544
	    H    -1.5455103992  -1.3590526809  -0.8475873603
	    H    -1.3900295446  -1.5307902095   0.8842571480
	    H    -2.2680413077   0.7926103394   1.1950124796
	    H    -2.4288061310   0.9595300855  -0.5458213696
	    H    -3.8985300437  -1.1251266987   1.1606980378
	    H    -4.6165487860   0.3322484727   0.4702192958
	    H    -4.0503658214  -0.9606045244  -0.5902233796
	    H    -0.3969376409   1.8300814247   0.1304989683
	    H     0.9201850802  -2.2342745638  -0.1987047132
	    H     1.9230560993   2.5981804467  -0.0607925555
	    H     3.2516383696  -1.4616085812  -0.3911884913
	    H     3.7687048006   0.9656520285  -0.3195319287
	Saving final (previous) structure.
			--------------------------
			 OPTKING Finished Execution 
			--------------------------

    Final optimized geometry and variables:
    Molecular point group: c1
    Full point group: C1

    Geometry (in Angstrom), charge = 0, multiplicity = 1:

    C           -1.337043898475    -0.798684960818     0.070692359577
    C           -2.449888861195     0.233688291116     0.272284340533
    C            0.083837801252    -0.265102432724    -0.007259855462
    C           -3.834449499957    -0.416187578117     0.331962077813
    C            0.389827254060     1.098109890655     0.019441205454
    C            1.138311063001    -1.173577645964    -0.164472391743
    C            1.709316436413     1.538094252912    -0.088675455913
    C            2.454856369998    -0.739342110901    -0.273617429562
    C            2.746496438103     0.623209872004    -0.234836155364
    H           -1.545510405306    -1.359052686292    -0.847587363585
    H           -1.390029550037    -1.530790215554     0.884257151500
    H           -2.268041316644     0.792610342528     1.195012484281
    H           -2.428806140555     0.959530089261    -0.545821371775
    H           -3.898530059054    -1.125126703115     1.160698042350
    H           -4.616548804166     0.332248474002     0.470219297615
    H           -4.050365837363    -0.960604528174    -0.590223381930
    H           -0.396937642437     1.830081431902     0.130498968784
    H            0.920185083789    -2.234274572588    -0.198704714017
    H            1.923056106856     2.598180456878    -0.060792555713
    H            3.251638382430    -1.461608586924    -0.391188492863
    H            3.768704815453     0.965652032275    -0.319531929964

	Removing binary optimization data file.
	Cleaning optimization helper files.

    Psi4 stopped on: Wednesday, 02 June 2021 12:40AM
    Psi4 wall time for execution: 0:00:42.81

*** Psi4 exiting successfully. Buy a developer a beer!
