
    -----------------------------------------------------------------------
          Psi4: An Open-Source Ab Initio Electronic Structure Package
                               Psi4 1.3.2 release

                         Git: Rev {HEAD} ecbda83 


    R. M. Parrish, L. A. Burns, D. G. A. Smith, A. C. Simmonett,
    A. E. DePrince III, E. G. Hohenstein, U. Bozkaya, A. Yu. Sokolov,
    R. Di Remigio, R. M. Richard, J. F. Gonthier, A. M. James,
    H. R. McAlexander, A. Kumar, M. Saitow, X. Wang, B. P. Pritchard,
    P. Verma, H. F. Schaefer III, K. Patkowski, R. A. King, E. F. Valeev,
    F. A. Evangelista, J. M. Turney, T. D. Crawford, and C. D. Sherrill,
    J. Chem. Theory Comput. 13(7) pp 3185--3197 (2017).
    (doi: 10.1021/acs.jctc.7b00174)


                         Additional Contributions by
    P. Kraus, H. Kruse, M. H. Lechner, M. C. Schieber, R. A. Shaw,
    A. Alenaizan, R. Galvelis, Z. L. Glick, S. Lehtola, and J. P. Misiewicz

    -----------------------------------------------------------------------


    Psi4 started on: Wednesday, 02 June 2021 12:22AM

    Process ID: 78182
    Host:       daniele-Precision-5750
    PSIDATADIR: /home/daniele/anaconda3/envs/poltype/share/psi4
    Memory:     500.0 MiB
    Threads:    1
    
  ==> Input File <==

--------------------------------------------------------------------------
molecule { 
0 1
 C   -1.333522   -0.508680    0.811293
 C   -2.428674    0.123607   -0.094377
 C    0.089845   -0.145505    0.366925
 C   -3.722750   -0.709563   -0.181530
 C    0.700330    1.048767    0.818208
 C    0.795338   -0.964474   -0.547072
 C    1.995318    1.399741    0.389912
 C    2.090916   -0.613706   -0.973791
 C    2.692943    0.566906   -0.503154
 H   -1.428519   -1.602721    0.803903
 H   -1.496723   -0.219151    1.857553
 H   -2.644059    1.142683    0.252883
 H   -2.027449    0.248592   -1.109608
 H   -4.178462   -0.834624    0.806490
 H   -4.456885   -0.216300   -0.827370
 H   -3.527744   -1.704276   -0.596258
 H    0.171874    1.709101    1.504390
 H    0.341529   -1.877727   -0.929266
 H    2.457045    2.317235    0.750301
 H    2.627129   -1.256519   -1.669570
 H    3.694753    0.837092   -0.831577
}
set optking { 
  frozen_dihedral = ("
    4 2 1 3
    2 1 3 5
    2 1 3 6
    1 2 4 14
  ")
}
set {
  geom_maxiter 400
  g_convergence GAU_LOOSE
  dynamic_level 1
}
memory 700MB
set_num_threads(8)
psi4_io.set_default_path("/home/daniele/PSI4_sctatch/Psi4-propbenzene")
for _ in range(1):
  try:
    set opt_coordinates both
    optimize('wb97x-d/6-311G')
    break
  except OptimizationConvergenceError:
    break
  else:
    try:
      set opt_coordinates cartesian
      optimize('wb97x-d/6-311G')
      break
    except OptimizationConvergenceError:
      pass
clean()
--------------------------------------------------------------------------

  Memory set to 667.572 MiB by Python driver.
  Threads set to 8 by Python driver.
gradient() will perform analytic gradient computation.

*** tstart() called on daniele-Precision-5750
*** at Wed Jun  2 00:22:36 2021

   => Loading Basis Set <=

    Name: 6-311G
    Role: ORBITAL
    Keyword: BASIS
    atoms 1-9   entry C          line    92 file /home/daniele/anaconda3/envs/poltype/share/psi4/basis/6-311g.gbs 
    atoms 10-21 entry H          line    21 file /home/daniele/anaconda3/envs/poltype/share/psi4/basis/6-311g.gbs 


         ---------------------------------------------------------
                                   SCF
               by Justin Turney, Rob Parrish, Andy Simmonett
                          and Daniel G. A. Smith
                              RKS Reference
                        8 Threads,    667 MiB Core
         ---------------------------------------------------------

  ==> Geometry <==

    Molecular point group: c1
    Full point group: C1

    Geometry (in Angstrom), charge = 0, multiplicity = 1:

       Center              X                  Y                   Z               Mass       
    ------------   -----------------  -----------------  -----------------  -----------------
         C           -1.333584520986    -0.516150012530     0.802558735499    12.000000000000
         C           -2.428736520986     0.116136987470    -0.103111264501    12.000000000000
         C            0.089782479014    -0.152975012530     0.358190735499    12.000000000000
         C           -3.722812520986    -0.717033012530    -0.190264264501    12.000000000000
         C            0.700267479014     1.041296987470     0.809473735499    12.000000000000
         C            0.795275479014    -0.971944012530    -0.555806264501    12.000000000000
         C            1.995255479014     1.392270987470     0.381177735499    12.000000000000
         C            2.090853479014    -0.621176012530    -0.982525264501    12.000000000000
         C            2.692880479014     0.559435987470    -0.511888264501    12.000000000000
         H           -1.428581520986    -1.610191012530     0.795168735499     1.007825032230
         H           -1.496785520986    -0.226621012530     1.848818735499     1.007825032230
         H           -2.644121520986     1.135212987470     0.244148735499     1.007825032230
         H           -2.027511520986     0.241121987470    -1.118342264501     1.007825032230
         H           -4.178524520986    -0.842094012530     0.797755735499     1.007825032230
         H           -4.456947520986    -0.223770012530    -0.836104264501     1.007825032230
         H           -3.527806520986    -1.711746012530    -0.604992264501     1.007825032230
         H            0.171811479014     1.701630987470     1.495655735499     1.007825032230
         H            0.341466479014    -1.885197012530    -0.938000264501     1.007825032230
         H            2.456982479014     2.309764987470     0.741566735499     1.007825032230
         H            2.627066479014    -1.263989012530    -1.678304264501     1.007825032230
         H            3.694690479014     0.829621987470    -0.840311264501     1.007825032230

  Running in c1 symmetry.

  Rotational constants: A =      0.13783  B =      0.02838  C =      0.02526 [cm^-1]
  Rotational constants: A =   4131.93766  B =    850.95823  C =    757.17350 [MHz]
  Nuclear repulsion =  407.366190042351036

  Charge       = 0
  Multiplicity = 1
  Electrons    = 66
  Nalpha       = 33
  Nbeta        = 33

  ==> Algorithm <==

  SCF Algorithm Type is DF.
  DIIS enabled.
  MOM disabled.
  Fractional occupation disabled.
  Guess Type is SAD.
  Energy threshold   = 1.00e-08
  Density threshold  = 1.00e-08
  Integral threshold = 0.00e+00

  ==> Primary Basis <==

  Basis Set: 6-311G
    Blend: 6-311G
    Number of shells: 99
    Number of basis function: 153
    Number of Cartesian functions: 153
    Spherical Harmonics?: true
    Max angular momentum: 1

  ==> DFT Potential <==

   => Composite Functional: WB97X-D <= 

    wB97X-D Hyb-GGA Exchange-Correlation Functional

    J.-D. Chai and M. Head-Gordon, Phys. Chem. Chem. Phys. 10, 6615 (2008)

    Deriv               =              1
    GGA                 =           TRUE
    Meta                =          FALSE

    Exchange Hybrid     =           TRUE
    MP2 Hybrid          =          FALSE

   => Exchange-Correlation Functionals <=

    1.0000   wB97D range-separated functional

   => Exact (HF) Exchange <=

    0.7780            HF,LR [omega = 0.2000]
    0.2220               HF 

   => Molecular Quadrature <=

    Radial Scheme          =       TREUTLER
    Pruning Scheme         =           FLAT
    Nuclear Scheme         =       TREUTLER

    BS radius alpha        =              1
    Pruning alpha          =              1
    Radial Points          =             75
    Spherical Points       =            302
    Total Points           =         470088
    Total Blocks           =           3449
    Max Points             =            256
    Max Functions          =            144

   => WB97X-D: Empirical Dispersion <=

    Chai and Head-Gordon Dispersion Correction
    Chai, J.-D.; Head-Gordon, M. (2010), J. Chem. Phys., 132: 6615-6620

        s6 =       1.000000

   => Loading Basis Set <=

    Name: (6-311G AUX)
    Role: JKFIT
    Keyword: DF_BASIS_SCF
    atoms 1-9   entry C          line   125 file /home/daniele/anaconda3/envs/poltype/share/psi4/basis/cc-pvtz-jkfit.gbs 
    atoms 10-21 entry H          line    51 file /home/daniele/anaconda3/envs/poltype/share/psi4/basis/cc-pvtz-jkfit.gbs 

  ==> Pre-Iterations <==

   -------------------------------------------------------
    Irrep   Nso     Nmo     Nalpha   Nbeta   Ndocc  Nsocc
   -------------------------------------------------------
     A        153     153       0       0       0       0
   -------------------------------------------------------
    Total     153     153      33      33      33       0
   -------------------------------------------------------

  ==> Integral Setup <==

  ==> DiskDFJK: Density-Fitted J/K Matrices <==

    J tasked:                  Yes
    K tasked:                  Yes
    wK tasked:                 Yes
    Omega:               2.000E-01
    OpenMP threads:              8
    Integrals threads:           8
    Memory [MiB]:              114
    Algorithm:                Disk
    Integral Cache:           NONE
    Schwarz Cutoff:          1E-12
    Fitting Condition:       1E-10

   => Auxiliary Basis Set <=

  Basis Set: (6-311G AUX)
    Blend: CC-PVTZ-JKFIT
    Number of shells: 345
    Number of basis function: 1071
    Number of Cartesian functions: 1284
    Spherical Harmonics?: true
    Max angular momentum: 4

  Cached 33.3% of DFT collocation blocks in 0.431 [GiB].

  Minimum eigenvalue in the overlap matrix is 2.7689396988E-04.
  Using Symmetric Orthogonalization.

  SCF Guess: Superposition of Atomic Densities via on-the-fly atomic UHF.

  ==> Iterations <==

                           Total Energy        Delta E     RMS |[F,P]|

   @DF-RKS iter SAD:  -349.21827290304611   -3.49218e+02   0.00000e+00 
   @DF-RKS iter   1:  -349.71685903831496   -4.98586e-01   5.12897e-03 DIIS
   @DF-RKS iter   2:  -349.90499854944494   -1.88140e-01   3.56742e-03 DIIS
   @DF-RKS iter   3:  -350.05971927390635   -1.54721e-01   2.26455e-04 DIIS
   @DF-RKS iter   4:  -350.06043753565433   -7.18262e-04   1.30804e-04 DIIS
   @DF-RKS iter   5:  -350.06065586816396   -2.18333e-04   2.05783e-05 DIIS
   @DF-RKS iter   6:  -350.06066102061749   -5.15245e-06   9.75786e-06 DIIS
   @DF-RKS iter   7:  -350.06066223519787   -1.21458e-06   1.93753e-06 DIIS
   @DF-RKS iter   8:  -350.06066229296573   -5.77679e-08   5.79204e-07 DIIS
   @DF-RKS iter   9:  -350.06066229754060   -4.57487e-09   1.60015e-07 DIIS
   @DF-RKS iter  10:  -350.06066229798751   -4.46903e-10   3.67492e-08 DIIS
   @DF-RKS iter  11:  -350.06066229801337   -2.58638e-11   1.64250e-08 DIIS
   @DF-RKS iter  12:  -350.06066229801922   -5.85487e-12   3.85607e-09 DIIS
  Energy and wave function converged.


  ==> Post-Iterations <==

    Orbital Energies [Eh]
    ---------------------

    Doubly Occupied:                                                      

       1A    -10.304347     2A    -10.293533     3A    -10.293289  
       4A    -10.291762     5A    -10.291229     6A    -10.290973  
       7A    -10.288098     8A    -10.283569     9A    -10.272859  
      10A     -0.958345    11A     -0.895103    12A     -0.846300  
      13A     -0.845059    14A     -0.777584    15A     -0.701280  
      16A     -0.698154    17A     -0.671177    18A     -0.603642  
      19A     -0.560120    20A     -0.548099    21A     -0.529200  
      22A     -0.515506    23A     -0.508444    24A     -0.497642  
      25A     -0.471173    26A     -0.458646    27A     -0.442827  
      28A     -0.427919    29A     -0.421746    30A     -0.410018  
      31A     -0.404495    32A     -0.327184    33A     -0.316849  

    Virtual:                                                              

      34A      0.062494    35A      0.064939    36A      0.119745  
      37A      0.134005    38A      0.144455    39A      0.158431  
      40A      0.168871    41A      0.174478    42A      0.190247  
      43A      0.204699    44A      0.210607    45A      0.215455  
      46A      0.219289    47A      0.225094    48A      0.232571  
      49A      0.290434    50A      0.302016    51A      0.313895  
      52A      0.353000    53A      0.361112    54A      0.364522  
      55A      0.376124    56A      0.390522    57A      0.404731  
      58A      0.406603    59A      0.420101    60A      0.439534  
      61A      0.473759    62A      0.482000    63A      0.491225  
      64A      0.493866    65A      0.498572    66A      0.518735  
      67A      0.538450    68A      0.554564    69A      0.560816  
      70A      0.572918    71A      0.581304    72A      0.596112  
      73A      0.626721    74A      0.635134    75A      0.647353  
      76A      0.662432    77A      0.675650    78A      0.681565  
      79A      0.684321    80A      0.691482    81A      0.699096  
      82A      0.699849    83A      0.703845    84A      0.715349  
      85A      0.722685    86A      0.733440    87A      0.747436  
      88A      0.752208    89A      0.761738    90A      0.779532  
      91A      0.805427    92A      0.848977    93A      0.862308  
      94A      0.875398    95A      0.911295    96A      0.936654  
      97A      0.958580    98A      0.965851    99A      1.003286  
     100A      1.048069   101A      1.100208   102A      1.134870  
     103A      1.156447   104A      1.216573   105A      1.368691  
     106A      2.297916   107A      2.336425   108A      2.347770  
     109A      2.350866   110A      2.362881   111A      2.383626  
     112A      2.389455   113A      2.404535   114A      2.415702  
     115A      2.452308   116A      2.454827   117A      2.605277  
     118A      2.639320   119A      2.672075   120A      2.698449  
     121A      2.792298   122A      2.802066   123A      2.824526  
     124A      2.840236   125A      2.907480   126A      2.922242  
     127A      2.941205   128A      2.960333   129A      2.965810  
     130A      2.980919   131A      2.996827   132A      3.039678  
     133A      3.075147   134A      3.122914   135A      3.152910  
     136A      3.164438   137A      3.201824   138A      3.205337  
     139A      3.269139   140A      3.300634   141A      3.339329  
     142A      3.368680   143A      3.386863   144A      3.533402  
     145A     23.255884   146A     23.471599   147A     23.483843  
     148A     23.523131   149A     23.637233   150A     23.715621  
     151A     23.737205   152A     23.752108   153A     23.990987  

    Final Occupation by Irrep:
              A 
    DOCC [    33 ]

  @DF-RKS Final Energy:  -350.06066229801922

   => Energetics <=

    Nuclear Repulsion Energy =            407.3661900423510360
    One-Electron Energy =               -1277.3655927678905755
    Two-Electron Energy =                 556.2695301997352999
    DFT Exchange-Correlation Energy =     -36.3193695579662261
    Empirical Dispersion Energy =          -0.0114202142487550
    VV10 Nonlocal Energy =                  0.0000000000000000
    Total Energy =                       -350.0606622980192242

Computation Completed


Properties will be evaluated at   0.000000,   0.000000,   0.000000 [a0]

Properties computed using the SCF density matrix

  Nuclear Dipole Moment: [e a0]
     X:    -9.8137      Y:    -1.4496      Z:    -0.0871

  Electronic Dipole Moment: [e a0]
     X:     9.6604      Y:     1.4529      Z:     0.0768

  Dipole Moment: [e a0]
     X:    -0.1533      Y:     0.0033      Z:    -0.0103     Total:     0.1537

  Dipole Moment: [D]
     X:    -0.3897      Y:     0.0084      Z:    -0.0263     Total:     0.3906


*** tstop() called on daniele-Precision-5750 at Wed Jun  2 00:22:47 2021
Module time:
	user time   =      77.80 seconds =       1.30 minutes
	system time =       2.21 seconds =       0.04 minutes
	total time  =         11 seconds =       0.18 minutes
Total time:
	user time   =      77.80 seconds =       1.30 minutes
	system time =       2.21 seconds =       0.04 minutes
	total time  =         11 seconds =       0.18 minutes

*** tstart() called on daniele-Precision-5750
*** at Wed Jun  2 00:22:47 2021


         ------------------------------------------------------------
                                   SCF GRAD                          
                          Rob Parrish, Justin Turney,                
                       Andy Simmonett, and Alex Sokolov              
         ------------------------------------------------------------

  ==> Geometry <==

    Molecular point group: c1
    Full point group: C1

    Geometry (in Angstrom), charge = 0, multiplicity = 1:

       Center              X                  Y                   Z               Mass       
    ------------   -----------------  -----------------  -----------------  -----------------
         C           -1.333584520986    -0.516150012530     0.802558735499    12.000000000000
         C           -2.428736520986     0.116136987470    -0.103111264501    12.000000000000
         C            0.089782479014    -0.152975012530     0.358190735499    12.000000000000
         C           -3.722812520986    -0.717033012530    -0.190264264501    12.000000000000
         C            0.700267479014     1.041296987470     0.809473735499    12.000000000000
         C            0.795275479014    -0.971944012530    -0.555806264501    12.000000000000
         C            1.995255479014     1.392270987470     0.381177735499    12.000000000000
         C            2.090853479014    -0.621176012530    -0.982525264501    12.000000000000
         C            2.692880479014     0.559435987470    -0.511888264501    12.000000000000
         H           -1.428581520986    -1.610191012530     0.795168735499     1.007825032230
         H           -1.496785520986    -0.226621012530     1.848818735499     1.007825032230
         H           -2.644121520986     1.135212987470     0.244148735499     1.007825032230
         H           -2.027511520986     0.241121987470    -1.118342264501     1.007825032230
         H           -4.178524520986    -0.842094012530     0.797755735499     1.007825032230
         H           -4.456947520986    -0.223770012530    -0.836104264501     1.007825032230
         H           -3.527806520986    -1.711746012530    -0.604992264501     1.007825032230
         H            0.171811479014     1.701630987470     1.495655735499     1.007825032230
         H            0.341466479014    -1.885197012530    -0.938000264501     1.007825032230
         H            2.456982479014     2.309764987470     0.741566735499     1.007825032230
         H            2.627066479014    -1.263989012530    -1.678304264501     1.007825032230
         H            3.694690479014     0.829621987470    -0.840311264501     1.007825032230

  Nuclear repulsion =  407.366190042351036

  ==> Basis Set <==

  Basis Set: 6-311G
    Blend: 6-311G
    Number of shells: 99
    Number of basis function: 153
    Number of Cartesian functions: 153
    Spherical Harmonics?: true
    Max angular momentum: 1

  ==> DFJKGrad: Density-Fitted SCF Gradients <==

    Gradient:                    1
    J tasked:                  Yes
    K tasked:                  Yes
    wK tasked:                 Yes
    Omega:               2.000E-01
    OpenMP threads:              8
    Integrals threads:           8
    Memory [MiB]:              500
    Schwarz Cutoff:          0E+00
    Fitting Condition:       1E-10

   => Auxiliary Basis Set <=

  Basis Set: (6-311G AUX)
    Blend: CC-PVTZ-JKFIT
    Number of shells: 345
    Number of basis function: 1071
    Number of Cartesian functions: 1284
    Spherical Harmonics?: true
    Max angular momentum: 4

  ==> DFT Potential <==

   => Composite Functional: WB97X-D <= 

    wB97X-D Hyb-GGA Exchange-Correlation Functional

    J.-D. Chai and M. Head-Gordon, Phys. Chem. Chem. Phys. 10, 6615 (2008)

    Deriv               =              1
    GGA                 =           TRUE
    Meta                =          FALSE

    Exchange Hybrid     =           TRUE
    MP2 Hybrid          =          FALSE

   => Exchange-Correlation Functionals <=

    1.0000   wB97D range-separated functional

   => Exact (HF) Exchange <=

    0.7780            HF,LR [omega = 0.2000]
    0.2220               HF 

   => Molecular Quadrature <=

    Radial Scheme          =       TREUTLER
    Pruning Scheme         =           FLAT
    Nuclear Scheme         =       TREUTLER

    BS radius alpha        =              1
    Pruning alpha          =              1
    Radial Points          =             75
    Spherical Points       =            302
    Total Points           =         470088
    Total Blocks           =           3449
    Max Points             =            256
    Max Functions          =            144


  -Total Gradient:
     Atom            X                  Y                   Z
    ------   -----------------  -----------------  -----------------
       1       -0.006059178390     0.001868974227     0.003520707452
       2       -0.002107210123     0.001605564651     0.004599934640
       3        0.000227241189    -0.004468101569    -0.000067277299
       4       -0.001463369092    -0.004700167073    -0.003266071981
       5       -0.006809097610     0.006495826828     0.006558607994
       6       -0.005304786616    -0.008678822389    -0.004227006178
       7        0.004774329252     0.007464755210     0.003014048567
       8        0.005691421926    -0.005453495390    -0.005716361804
       9        0.006364438781     0.001515052872    -0.002154020641
      10        0.000716815255    -0.002145941472     0.003104877955
      11       -0.001381179488    -0.001718342475     0.003241101787
      12        0.000709799923     0.003219122649    -0.000534011898
      13       -0.000330701888     0.002115348786    -0.002985127659
      14       -0.000670608418     0.000662387325     0.001434126364
      15       -0.001347397455     0.001015342266    -0.001430297460
      16       -0.000796213697    -0.001897075952    -0.001228356047
      17       -0.000817084455     0.004110524817     0.002071160364
      18       -0.000310775371    -0.003414170042    -0.003040894167
      19        0.002143134210     0.003725980923     0.001408760063
      20        0.002558472344    -0.002500118856    -0.002871381790
      21        0.004154948602     0.001159463594    -0.001437052717


*** tstop() called on daniele-Precision-5750 at Wed Jun  2 00:22:52 2021
Module time:
	user time   =      37.46 seconds =       0.62 minutes
	system time =       0.45 seconds =       0.01 minutes
	total time  =          5 seconds =       0.08 minutes
Total time:
	user time   =     115.27 seconds =       1.92 minutes
	system time =       2.66 seconds =       0.04 minutes
	total time  =         16 seconds =       0.27 minutes

			-----------------------------------------
			 OPTKING 2.0: for geometry optimizations 
			  - R.A. King,  Bethel University        
			-----------------------------------------
	At level 1: Red. Int., RFO, no backsteps, dynamic trust

	Internal coordinates to be generated automatically.
	Detected frag 1 with atoms:  1 2 3 4 5 6 7 8 9 10 11 12 13 14 15 16 17 18 19 20
	 21
	---Fragment 1 Bond Connectivity---
	 1 : 2 3 10 11
	 2 : 1 4 12 13
	 3 : 1 5 6
	 4 : 2 14 15 16
	 5 : 3 7 17
	 6 : 3 8 18
	 7 : 5 9 19
	 8 : 6 9 20
	 9 : 7 8 21
	 10 : 1
	 11 : 1
	 12 : 2
	 13 : 2
	 14 : 4
	 15 : 4
	 16 : 4
	 17 : 5
	 18 : 6
	 19 : 7
	 20 : 8
	 21 : 9

	Assuming in current code that numbering for constraints corresponds to unified fragment.
	Frozen dihedral atom list: 
	     4     2     1     3
	     2     1     3     5
	     2     1     3     6
	     1     2     4    14
	---Fragment 1 Geometry and Gradient---
	 C          -2.5201095098       -0.9753821633        1.5166162097
	 C          -4.5896468556        0.2194670994       -0.1948520504
	 C           0.1696642962       -0.2890808777        0.6768823908
	 C          -7.0350960811       -1.3549960166       -0.3595473514
	 C           1.3233137499        1.9677661216        1.5296836658
	 C           1.5028528496       -1.8367079930       -1.0503216187
	 C           3.7704864057        2.6310108587        0.7203215252
	 C           3.9511404438       -1.1738525394       -1.8567036613
	 C           5.0888065939        1.0571808010       -0.9673286267
	 H          -2.6996278226       -3.0428200234        1.5026511336
	 H          -2.8285147032       -0.4282516480        3.4937610657
	 H          -4.9966655171        2.1452416404        0.4613742440
	 H          -3.8314414909        0.4556545191       -2.1133605944
	 H          -7.8962669532       -1.5913270556        1.5075398551
	 H          -8.4224101702       -0.4228640388       -1.5800080722
	 H          -6.6665881483       -3.2347311600       -1.1432696879
	 H           0.3246766405        3.2156165329        2.8263797181
	 H           0.6452781264       -3.5625060462       -1.7725636055
	 H           4.6430239804        4.3648232405        1.4013580338
	 H           4.9644361587       -2.3885930593       -3.1715354151
	 H           6.9819531237        1.5677583440       -1.5879581500
	            -0.0060591784        0.0018689742        0.0035207075
	            -0.0021072101        0.0016055647        0.0045999346
	             0.0002272412       -0.0044681016       -0.0000672773
	            -0.0014633691       -0.0047001671       -0.0032660720
	            -0.0068090976        0.0064958268        0.0065586080
	            -0.0053047866       -0.0086788224       -0.0042270062
	             0.0047743293        0.0074647552        0.0030140486
	             0.0056914219       -0.0054534954       -0.0057163618
	             0.0063644388        0.0015150529       -0.0021540206
	             0.0007168153       -0.0021459415        0.0031048780
	            -0.0013811795       -0.0017183425        0.0032411018
	             0.0007097999        0.0032191226       -0.0005340119
	            -0.0003307019        0.0021153488       -0.0029851277
	            -0.0006706084        0.0006623873        0.0014341264
	            -0.0013473975        0.0010153423       -0.0014302975
	            -0.0007962137       -0.0018970760       -0.0012283560
	            -0.0008170845        0.0041105248        0.0020711604
	            -0.0003107754       -0.0034141700       -0.0030408942
	             0.0021431342        0.0037259809        0.0014087601
	             0.0025584723       -0.0025001189       -0.0028713818
	             0.0041549486        0.0011594636       -0.0014370527

	Previous optimization step data not found.  Starting new optimization.

	---Fragment 1 Intrafragment Coordinates---
	 - Coordinate -           - BOHR/RAD -       - ANG/DEG -
	 R(1,2)           =         2.939349	       1.555437
	 R(1,3)           =         2.900180	       1.534709
	 R(1,10)          =         2.075264	       1.098182
	 R(1,11)          =         2.074504	       1.097780
	 R(2,4)           =         2.913122	       1.541558
	 R(2,12)          =         2.074826	       1.097951
	 R(2,13)          =         2.076375	       1.098771
	 R(3,5)           =         2.674235	       1.415144
	 R(3,6)           =         2.675028	       1.415564
	 R(4,14)          =         2.069658	       1.095216
	 R(4,15)          =         2.069549	       1.095158
	 R(4,16)          =         2.069643	       1.095208
	 R(5,7)           =         2.661506	       1.408408
	 R(5,17)          =         2.058113	       1.089106
	 R(6,8)           =         2.661530	       1.408421
	 R(6,18)          =         2.058020	       1.089057
	 R(7,9)           =         2.657644	       1.406365
	 R(7,19)          =         2.056997	       1.088516
	 R(8,9)           =         2.657590	       1.406336
	 R(8,20)          =         2.056975	       1.088504
	 R(9,21)          =         2.056666	       1.088341
	 B(1,2,4)         =         1.986969	     113.844931
	 B(1,2,12)        =         1.908436	     109.345319
	 B(1,2,13)        =         1.904062	     109.094703
	 B(1,3,5)         =         2.103041	     120.495360
	 B(1,3,6)         =         2.108623	     120.815200
	 B(2,1,3)         =         1.969489	     112.843397
	 B(2,1,10)        =         1.917867	     109.885676
	 B(2,1,11)        =         1.920961	     110.062935
	 B(2,4,14)        =         1.939072	     111.100646
	 B(2,4,15)        =         1.931185	     110.648764
	 B(2,4,16)        =         1.942088	     111.273433
	 B(3,1,10)        =         1.890229	     108.302150
	 B(3,1,11)        =         1.929888	     110.574431
	 B(3,5,7)         =         2.105961	     120.662653
	 B(3,5,17)        =         2.098179	     120.216793
	 B(3,6,8)         =         2.105970	     120.663193
	 B(3,6,18)        =         2.099102	     120.269698
	 B(4,2,12)        =         1.933550	     110.784276
	 B(4,2,13)        =         1.892072	     108.407730
	 B(5,3,6)         =         2.070485	     118.630024
	 B(5,7,9)         =         2.096286	     120.108322
	 B(5,7,19)        =         2.093685	     119.959301
	 B(6,8,9)         =         2.096091	     120.097169
	 B(6,8,20)        =         2.094089	     119.982463
	 B(7,5,17)        =         2.079045	     119.120529
	 B(7,9,8)         =         2.091283	     119.821711
	 B(7,9,21)        =         2.095806	     120.080811
	 B(8,6,18)        =         2.078112	     119.067059
	 B(8,9,21)        =         2.096091	     120.097186
	 B(9,7,19)        =         2.093215	     119.932374
	 B(9,8,20)        =         2.093005	     119.920344
	 B(10,1,11)       =         1.829988	     104.850582
	 B(12,2,13)       =         1.832046	     104.968508
	 B(14,4,15)       =         1.880218	     107.728529
	 B(14,4,16)       =         1.888081	     108.179087
	 B(15,4,16)       =         1.880860	     107.765332
	*D(1,2,4,14)      =         1.050434	      60.185454
	 D(1,2,4,15)      =         3.138165	     179.803593
	 D(1,2,4,16)      =        -1.054508	     -60.418862
	 D(1,3,5,7)       =        -3.117655	    -178.628461
	 D(1,3,5,17)      =         0.024951	       1.429614
	 D(1,3,6,8)       =         3.118773	     178.692517
	 D(1,3,6,18)      =        -0.024255	      -1.389690
	*D(2,1,3,5)       =         1.506975	      86.343306
	*D(2,1,3,6)       =        -1.585021	     -90.815040
	*D(3,1,2,4)       =         2.625557	     150.433358
	 D(3,1,2,12)      =        -1.484753	     -85.070076
	 D(3,1,2,13)      =         0.509835	      29.211394
	 D(3,5,7,9)       =         0.008644	       0.495247
	 D(3,5,7,19)      =        -3.133324	    -179.526221
	 D(3,6,8,9)       =        -0.011203	      -0.641901
	 D(3,6,8,20)      =         3.131360	     179.413728
	 D(4,2,1,10)      =         0.514066	      29.453798
	 D(4,2,1,11)      =        -1.492669	     -85.523617
	 D(5,3,1,10)      =        -2.649062	    -151.780060
	 D(5,3,1,11)      =        -0.653065	     -37.417887
	 D(5,3,6,8)       =         0.025868	       1.482129
	 D(5,3,6,18)      =        -3.117159	    -178.600078
	 D(5,7,9,8)       =         0.006520	       0.373595
	 D(5,7,9,21)      =        -3.138500	    -179.822818
	 D(6,3,1,10)      =         0.542127	      31.061594
	 D(6,3,1,11)      =         2.538124	     145.423768
	 D(6,3,5,7)       =        -0.024589	      -1.408852
	 D(6,3,5,17)      =         3.118017	     178.649223
	 D(6,8,9,7)       =        -0.005248	      -0.300691
	 D(6,8,9,21)      =         3.139773	     179.895754
	 D(7,9,8,20)      =         3.135374	     179.643714
	 D(8,9,7,19)      =        -3.134698	    -179.604944
	 D(9,7,5,17)      =        -3.133952	    -179.562199
	 D(9,8,6,18)      =         3.131807	     179.439329
	 D(10,1,2,12)     =         2.686941	     153.950363
	 D(10,1,2,13)     =        -1.601657	     -91.768167
	 D(11,1,2,12)     =         0.680206	      38.972948
	 D(11,1,2,13)     =         2.674794	     153.254418
	 D(12,2,4,14)     =        -1.108896	     -63.535051
	 D(12,2,4,15)     =         0.978835	      56.083087
	 D(12,2,4,16)     =         3.069347	     175.860633
	 D(13,2,4,14)     =        -3.110364	    -178.210709
	 D(13,2,4,15)     =        -1.022633	     -58.592570
	 D(13,2,4,16)     =         1.067879	      61.184975
	 D(17,5,7,19)     =         0.007266	       0.416334
	 D(18,6,8,20)     =        -0.008815	      -0.505042
	 D(19,7,9,21)     =         0.003467	       0.198643
	 D(20,8,9,21)     =        -0.002790	      -0.159840

	Current energy   :      -350.0606622980

	Generating empirical Hessian (Schlegel '84) for each fragment.
	Taking RFO optimization step.
	Going to follow RFO solution 1.
	Using RFO vector 1.
	Norm of target step-size    0.15277
	Projected energy change by RFO approximation:        -0.0045698529

	Back-transformation to cartesian coordinates...
	Successfully converged to displaced geometry.

	Back-transformation to cartesian coordinates to adjust frozen coordinates...
	Successfully converged to displaced geometry.

	--- Internal Coordinate Step in ANG or DEG, aJ/ANG or AJ/DEG ---
	 ---------------------------------------------------------------------------
	   Coordinate                Previous        Force       Change         New 
	   ----------                --------       ------       ------       ------
	    1 R(1,2)          =      1.555437    -0.057618    -0.013376     1.542061
	    2 R(1,3)          =      1.534709    -0.112453    -0.024512     1.510198
	    3 R(1,10)         =      1.098182    -0.016969    -0.003172     1.095010
	    4 R(1,11)         =      1.097780    -0.023382    -0.004365     1.093415
	    5 R(2,4)          =      1.541558    -0.053618    -0.011935     1.529623
	    6 R(2,12)         =      1.097951    -0.022038    -0.004117     1.093834
	    7 R(2,13)         =      1.098771    -0.023698    -0.004439     1.094332
	    8 R(3,5)          =      1.415144    -0.128605    -0.019074     1.396070
	    9 R(3,6)          =      1.415564    -0.135993    -0.020207     1.395357
	   10 R(4,14)         =      1.095216    -0.012323    -0.002282     1.092934
	   11 R(4,15)         =      1.095158    -0.018100    -0.003350     1.091808
	   12 R(4,16)         =      1.095208    -0.016939    -0.003136     1.092072
	   13 R(5,7)          =      1.408408    -0.112536    -0.016144     1.392264
	   14 R(5,17)         =      1.089106    -0.034581    -0.006276     1.082830
	   15 R(6,8)          =      1.408421    -0.113784    -0.016356     1.392065
	   16 R(6,18)         =      1.089057    -0.033390    -0.006059     1.082998
	   17 R(7,9)          =      1.406365    -0.104154    -0.014675     1.391690
	   18 R(7,19)         =      1.088516    -0.037265    -0.006750     1.081766
	   19 R(8,9)          =      1.406336    -0.101685    -0.014337     1.391999
	   20 R(8,20)         =      1.088504    -0.037638    -0.006818     1.081687
	   21 R(9,21)         =      1.088341    -0.037482    -0.006785     1.081555
	   22 B(1,2,4)        =    113.844931    -0.000202    -0.973988   112.870943
	   23 B(1,2,12)       =    109.345319     0.000098     0.306204   109.651523
	   24 B(1,2,13)       =    109.094703    -0.000037    -0.568943   108.525760
	   25 B(1,3,5)        =    120.495360     0.000077     0.257376   120.752736
	   26 B(1,3,6)        =    120.815200    -0.000087    -0.226768   120.588432
	   27 B(2,1,3)        =    112.843397     0.000016    -0.264413   112.578984
	   28 B(2,1,10)       =    109.885676    -0.000124    -0.979984   108.905692
	   29 B(2,1,11)       =    110.062935    -0.000009     0.018908   110.081843
	   30 B(2,4,14)       =    111.100646     0.000063     0.279945   111.380591
	   31 B(2,4,15)       =    110.648764     0.000039     0.280799   110.929564
	   32 B(2,4,16)       =    111.273433    -0.000140    -0.732277   110.541155
	   33 B(3,1,10)       =    108.302150     0.000038     0.183086   108.485236
	   34 B(3,1,11)       =    110.574431    -0.000049    -0.435810   110.138621
	   35 B(3,5,7)        =    120.662653     0.000059     0.161409   120.824062
	   36 B(3,5,17)       =    120.216793    -0.000180    -0.774473   119.442320
	   37 B(3,6,8)        =    120.663193     0.000046     0.113756   120.776949
	   38 B(3,6,18)       =    120.269698    -0.000181    -0.784391   119.485307
	   39 B(4,2,12)       =    110.784276     0.000013    -0.235277   110.549000
	   40 B(4,2,13)       =    108.407730     0.000099     0.434975   108.842705
	   41 B(5,3,6)        =    118.630024     0.000010    -0.030573   118.599451
	   42 B(5,7,9)        =    120.108322    -0.000018    -0.009417   120.098905
	   43 B(5,7,19)       =    119.959301    -0.000010    -0.081892   119.877409
	   44 B(6,8,9)        =    120.097169     0.000010     0.068191   120.165361
	   45 B(6,8,20)       =    119.982463    -0.000035    -0.168196   119.814267
	   46 B(7,5,17)       =    119.120529     0.000121     0.613086   119.733614
	   47 B(7,9,8)        =    119.821711    -0.000105    -0.286533   119.535178
	   48 B(7,9,21)       =    120.080811     0.000053     0.146567   120.227379
	   49 B(8,6,18)       =    119.067059     0.000135     0.670577   119.737636
	   50 B(8,9,21)       =    120.097186     0.000052     0.139821   120.237007
	   51 B(9,7,19)       =    119.932374     0.000028     0.091146   120.023519
	   52 B(9,8,20)       =    119.920344     0.000025     0.099730   120.020074
	   53 B(10,1,11)      =    104.850582     0.000135     1.590465   106.441047
	   54 B(12,2,13)      =    104.968508     0.000046     1.185696   106.154204
	   55 B(14,4,15)      =    107.728529    -0.000017     0.093900   107.822429
	   56 B(14,4,16)      =    108.179087     0.000004    -0.183024   107.996063
	   57 B(15,4,16)      =    107.765332     0.000056     0.273100   108.038433
	   58 *D(1,2,4,14)    =     60.185454    -0.000000     0.000000    60.185454
	   59 D(1,2,4,15)     =    179.803593     0.000010     0.490425   180.294017
	   60 D(1,2,4,16)     =    -60.418862     0.000011     0.537426   -59.881436
	   61 D(1,3,5,7)      =   -178.628461     0.000010     1.454871  -177.173590
	   62 D(1,3,5,17)     =      1.429614     0.000009     1.373162     2.802776
	   63 D(1,3,6,8)      =    178.692517    -0.000009    -1.504872   177.187645
	   64 D(1,3,6,18)     =     -1.389690    -0.000008    -1.302801    -2.692491
	   65 *D(2,1,3,5)     =     86.343306     0.000000     0.000000    86.343306
	   66 *D(2,1,3,6)     =    -90.815040     0.000000    -0.000000   -90.815040
	   67 *D(3,1,2,4)     =    150.433358    -0.000000     0.000000   150.433358
	   68 D(3,1,2,12)     =    -85.070076    -0.000012    -0.775528   -85.845605
	   69 D(3,1,2,13)     =     29.211394     0.000008     0.489156    29.700550
	   70 D(3,5,7,9)      =      0.495247    -0.000004    -0.575613    -0.080366
	   71 D(3,5,7,19)     =   -179.526221    -0.000003    -0.405785  -179.932006
	   72 D(3,6,8,9)      =     -0.641901     0.000005     0.703657     0.061756
	   73 D(3,6,8,20)     =    179.413728     0.000003     0.449412   179.863140
	   74 D(4,2,1,10)     =     29.453798     0.000006     0.623181    30.076979
	   75 D(4,2,1,11)     =    -85.523617    -0.000014    -0.742362   -86.265979
	   76 D(5,3,1,10)     =   -151.780060    -0.000027    -1.278492  -153.058552
	   77 D(5,3,1,11)     =    -37.417887     0.000008     0.492197   -36.925689
	   78 D(5,3,6,8)      =      1.482129    -0.000010    -1.513096    -0.030967
	   79 D(5,3,6,18)     =   -178.600078    -0.000008    -1.311025  -179.911103
	   80 D(5,7,9,8)      =      0.373595    -0.000002    -0.264012     0.109583
	   81 D(5,7,9,21)     =   -179.822818     0.000001     0.172279  -179.650540
	   82 D(6,3,1,10)     =     31.061594    -0.000027    -1.278492    29.783102
	   83 D(6,3,1,11)     =    145.423768     0.000008     0.492197   145.915965
	   84 D(6,3,5,7)      =     -1.408852     0.000009     1.449135     0.040283
	   85 D(6,3,5,17)     =    178.649223     0.000009     1.367427   180.016650
	   86 D(6,8,9,7)      =     -0.300691     0.000001     0.200254    -0.100437
	   87 D(6,8,9,21)     =    179.895754    -0.000002    -0.236092   179.659662
	   88 D(7,9,8,20)     =    179.643714     0.000003     0.454876   180.098590
	   89 D(8,9,7,19)     =   -179.604944    -0.000003    -0.434052  -180.038996
	   90 D(9,7,5,17)     =   -179.562199    -0.000003    -0.494466  -180.056665
	   91 D(9,8,6,18)     =    179.439329     0.000003     0.502262   179.941591
	   92 D(10,1,2,12)    =    153.950363    -0.000006    -0.152347   153.798016
	   93 D(10,1,2,13)    =    -91.768167     0.000014     1.112338   -90.655829
	   94 D(11,1,2,12)    =     38.972948    -0.000026    -1.517891    37.455057
	   95 D(11,1,2,13)    =    153.254418    -0.000006    -0.253206   153.001212
	   96 D(12,2,4,14)    =    -63.535051     0.000002     0.496200   -63.038851
	   97 D(12,2,4,15)    =     56.083087     0.000013     0.986625    57.069713
	   98 D(12,2,4,16)    =    175.860633     0.000013     1.033626   176.894259
	   99 D(13,2,4,14)    =   -178.210709    -0.000025    -1.051960  -179.262669
	  100 D(13,2,4,15)    =    -58.592570    -0.000015    -0.561535   -59.154105
	  101 D(13,2,4,16)    =     61.184975    -0.000014    -0.514534    60.670441
	  102 D(17,5,7,19)    =      0.416334    -0.000002    -0.324638     0.091696
	  103 D(18,6,8,20)    =     -0.505042     0.000002     0.248017    -0.257025
	  104 D(19,7,9,21)    =      0.198643     0.000000     0.002238     0.200882
	  105 D(20,8,9,21)    =     -0.159840     0.000000     0.018529    -0.141311
	 ---------------------------------------------------------------------------
	Successfully symmetrized geometry.

  ==> Convergence Check <==

  Measures of convergence in internal coordinates in au.
  Criteria marked as inactive (o), active & met (*), and active & unmet ( ).
  --------------------------------------------------------------------------------------------- ~
   Step     Total Energy     Delta E     MAX Force     RMS Force      MAX Disp      RMS Disp    ~
  --------------------------------------------------------------------------------------------- ~
    Convergence Criteria             o    2.50e-03 *    1.70e-03 *    1.00e-02 *    6.70e-03 *  ~
  --------------------------------------------------------------------------------------------- ~
      1    -350.06066230   -3.50e+02 o    1.65e-02      4.00e-03      4.63e-02      1.49e-02    ~
  ---------------------------------------------------------------------------------------------

	Writing optimization data to binary file.
	Structure for next step:
	Cartesian Geometry (in Angstrom)
	    C    -1.3185870998  -0.5085725186   0.7992525168
	    C    -2.3960086166   0.1281461032  -0.1016936369
	    C     0.0837925573  -0.1546862309   0.3647499627
	    C    -3.6744074990  -0.7079758478  -0.1813348597
	    C     0.6948483623   1.0184428682   0.8112821915
	    C     0.7730407813  -0.9648003041  -0.5383961609
	    C     1.9647182943   1.3754919735   0.3659214109
	    C     2.0429695858  -0.6119236111  -0.9862851359
	    C     2.6435651068   0.5596862877  -0.5343166951
	    H    -1.4275740582  -1.5976728941   0.7671652760
	    H    -1.4763295788  -0.2122991112   1.8398751218
	    H    -2.6198070842   1.1391471247   0.2508178449
	    H    -1.9842848807   0.2411989837  -1.1092972257
	    H    -4.1287551284  -0.8361057840   0.8043911765
	    H    -4.4122136733  -0.2316166436  -0.8300015217
	    H    -3.4591994173  -1.6995703276  -0.5851253033
	    H     0.1723756312   1.6571080878   1.5124599082
	    H     0.3118920381  -1.8774089356  -0.8952895860
	    H     2.4242793184   2.2874482748   0.7227923729
	    H     2.5641675119  -1.2526087053  -1.6847988167
	    H     3.6324379459   0.8321789525  -0.8773033945
			--------------------------
			 OPTKING Finished Execution 
			--------------------------

    Structure for next step:
    Molecular point group: c1
    Full point group: C1

    Geometry (in Angstrom), charge = 0, multiplicity = 1:

    C           -1.312614798213    -0.508933682119     0.800042058679
    C           -2.390036319330     0.127784942229    -0.100904098561
    C            0.089764864320    -0.155047392987     0.365539502896
    C           -3.668435206738    -0.708337012062    -0.180545321681
    C            0.700820671782     1.018081710692     0.812071733427
    C            0.779013091037    -0.965161469413    -0.537606624215
    C            1.970690608770     1.375130817464     0.366710951110
    C            2.048941900596    -0.612284774943    -0.985495601029
    C            2.649537423885     0.559325128429    -0.533527158488
    H           -1.421601757065    -1.598034061863     0.767954817802
    H           -1.470357277855    -0.212660273496     1.840664667793
    H           -2.613834787748     1.138785967676     0.251607384636
    H           -1.978312581815     0.240837823212    -1.108507691274
    H           -4.122782837890    -0.836466948726     0.805180718413
    H           -4.406241383957    -0.231977805987    -0.829211986164
    H           -3.453227124221    -1.699931495753    -0.584335766818
    H            0.178347938636     1.656746932872     1.513249452918
    H            0.317864346011    -1.877770104494    -0.894500050804
    H            2.430251634606     2.287087122325     0.723581914515
    H            2.570139828752    -1.252969871663    -1.684009284593
    H            3.638410266935     0.831817794281    -0.876513859153

gradient() will perform analytic gradient computation.

*** tstart() called on daniele-Precision-5750
*** at Wed Jun  2 00:22:52 2021

   => Loading Basis Set <=

    Name: 6-311G
    Role: ORBITAL
    Keyword: BASIS
    atoms 1-9   entry C          line    92 file /home/daniele/anaconda3/envs/poltype/share/psi4/basis/6-311g.gbs 
    atoms 10-21 entry H          line    21 file /home/daniele/anaconda3/envs/poltype/share/psi4/basis/6-311g.gbs 


         ---------------------------------------------------------
                                   SCF
               by Justin Turney, Rob Parrish, Andy Simmonett
                          and Daniel G. A. Smith
                              RKS Reference
                        8 Threads,    667 MiB Core
         ---------------------------------------------------------

  ==> Geometry <==

    Molecular point group: c1
    Full point group: C1

    Geometry (in Angstrom), charge = 0, multiplicity = 1:

       Center              X                  Y                   Z               Mass       
    ------------   -----------------  -----------------  -----------------  -----------------
         C           -1.312614798213    -0.508933682119     0.800042058679    12.000000000000
         C           -2.390036319330     0.127784942229    -0.100904098561    12.000000000000
         C            0.089764864320    -0.155047392987     0.365539502896    12.000000000000
         C           -3.668435206738    -0.708337012062    -0.180545321681    12.000000000000
         C            0.700820671782     1.018081710692     0.812071733427    12.000000000000
         C            0.779013091037    -0.965161469413    -0.537606624215    12.000000000000
         C            1.970690608770     1.375130817464     0.366710951110    12.000000000000
         C            2.048941900596    -0.612284774943    -0.985495601029    12.000000000000
         C            2.649537423885     0.559325128429    -0.533527158488    12.000000000000
         H           -1.421601757065    -1.598034061863     0.767954817802     1.007825032230
         H           -1.470357277855    -0.212660273496     1.840664667793     1.007825032230
         H           -2.613834787748     1.138785967676     0.251607384636     1.007825032230
         H           -1.978312581815     0.240837823212    -1.108507691274     1.007825032230
         H           -4.122782837890    -0.836466948726     0.805180718413     1.007825032230
         H           -4.406241383957    -0.231977805987    -0.829211986164     1.007825032230
         H           -3.453227124221    -1.699931495753    -0.584335766818     1.007825032230
         H            0.178347938636     1.656746932872     1.513249452918     1.007825032230
         H            0.317864346011    -1.877770104494    -0.894500050804     1.007825032230
         H            2.430251634606     2.287087122325     0.723581914515     1.007825032230
         H            2.570139828752    -1.252969871663    -1.684009284593     1.007825032230
         H            3.638410266935     0.831817794281    -0.876513859153     1.007825032230

  Running in c1 symmetry.

  Rotational constants: A =      0.14014  B =      0.02921  C =      0.02600 [cm^-1]
  Rotational constants: A =   4201.41398  B =    875.61006  C =    779.51320 [MHz]
  Nuclear repulsion =  412.153854369921419

  Charge       = 0
  Multiplicity = 1
  Electrons    = 66
  Nalpha       = 33
  Nbeta        = 33

  ==> Algorithm <==

  SCF Algorithm Type is DF.
  DIIS enabled.
  MOM disabled.
  Fractional occupation disabled.
  Guess Type is READ.
  Energy threshold   = 1.00e-08
  Density threshold  = 1.00e-08
  Integral threshold = 0.00e+00

  ==> Primary Basis <==

  Basis Set: 6-311G
    Blend: 6-311G
    Number of shells: 99
    Number of basis function: 153
    Number of Cartesian functions: 153
    Spherical Harmonics?: true
    Max angular momentum: 1

  ==> DFT Potential <==

   => Composite Functional: WB97X-D <= 

    wB97X-D Hyb-GGA Exchange-Correlation Functional

    J.-D. Chai and M. Head-Gordon, Phys. Chem. Chem. Phys. 10, 6615 (2008)

    Deriv               =              1
    GGA                 =           TRUE
    Meta                =          FALSE

    Exchange Hybrid     =           TRUE
    MP2 Hybrid          =          FALSE

   => Exchange-Correlation Functionals <=

    1.0000   wB97D range-separated functional

   => Exact (HF) Exchange <=

    0.7780            HF,LR [omega = 0.2000]
    0.2220               HF 

   => Molecular Quadrature <=

    Radial Scheme          =       TREUTLER
    Pruning Scheme         =           FLAT
    Nuclear Scheme         =       TREUTLER

    BS radius alpha        =              1
    Pruning alpha          =              1
    Radial Points          =             75
    Spherical Points       =            302
    Total Points           =         470057
    Total Blocks           =           3447
    Max Points             =            256
    Max Functions          =            144

   => WB97X-D: Empirical Dispersion <=

    Chai and Head-Gordon Dispersion Correction
    Chai, J.-D.; Head-Gordon, M. (2010), J. Chem. Phys., 132: 6615-6620

        s6 =       1.000000

   => Loading Basis Set <=

    Name: (6-311G AUX)
    Role: JKFIT
    Keyword: DF_BASIS_SCF
    atoms 1-9   entry C          line   125 file /home/daniele/anaconda3/envs/poltype/share/psi4/basis/cc-pvtz-jkfit.gbs 
    atoms 10-21 entry H          line    51 file /home/daniele/anaconda3/envs/poltype/share/psi4/basis/cc-pvtz-jkfit.gbs 

   => Loading Basis Set <=

    Name: 6-311G
    Role: ORBITAL
    Keyword: BASIS
    atoms 1-9   entry C          line    92 file /home/daniele/anaconda3/envs/poltype/share/psi4/basis/6-311g.gbs 
    atoms 10-21 entry H          line    21 file /home/daniele/anaconda3/envs/poltype/share/psi4/basis/6-311g.gbs 

  Reading orbitals from file 180, no projection.

  ==> Pre-Iterations <==

   -------------------------------------------------------
    Irrep   Nso     Nmo     Nalpha   Nbeta   Ndocc  Nsocc
   -------------------------------------------------------
     A        153     153       0       0       0       0
   -------------------------------------------------------
    Total     153     153      33      33      33       0
   -------------------------------------------------------

  ==> Integral Setup <==

  ==> DiskDFJK: Density-Fitted J/K Matrices <==

    J tasked:                  Yes
    K tasked:                  Yes
    wK tasked:                 Yes
    Omega:               2.000E-01
    OpenMP threads:              8
    Integrals threads:           8
    Memory [MiB]:              114
    Algorithm:                Disk
    Integral Cache:           NONE
    Schwarz Cutoff:          1E-12
    Fitting Condition:       1E-10

   => Auxiliary Basis Set <=

  Basis Set: (6-311G AUX)
    Blend: CC-PVTZ-JKFIT
    Number of shells: 345
    Number of basis function: 1071
    Number of Cartesian functions: 1284
    Spherical Harmonics?: true
    Max angular momentum: 4

  Cached 33.3% of DFT collocation blocks in 0.435 [GiB].

  Minimum eigenvalue in the overlap matrix is 2.4494466457E-04.
  Using Symmetric Orthogonalization.

  SCF Guess: Orbitals guess was supplied from a previous computation.

  ==> Iterations <==

                           Total Energy        Delta E     RMS |[F,P]|

   @DF-RKS iter   0:  -350.13296207356871   -3.50133e+02   6.42410e-04 
   @DF-RKS iter   1:  -350.06262378733015    7.03383e-02   1.00909e-04 DIIS
   @DF-RKS iter   2:  -350.06274434912285   -1.20562e-04   7.02084e-05 DIIS
   @DF-RKS iter   3:  -350.06280662511710   -6.22760e-05   9.43597e-06 DIIS
   @DF-RKS iter   4:  -350.06280882639896   -2.20128e-06   4.52261e-06 DIIS
   @DF-RKS iter   5:  -350.06280917386346   -3.47464e-07   1.82019e-06 DIIS
   @DF-RKS iter   6:  -350.06280923553942   -6.16760e-08   6.28522e-07 DIIS
   @DF-RKS iter   7:  -350.06280924149894   -5.95952e-09   1.35195e-07 DIIS
   @DF-RKS iter   8:  -350.06280924198433   -4.85386e-10   3.02499e-08 DIIS
   @DF-RKS iter   9:  -350.06280924200018   -1.58593e-11   1.28624e-08 DIIS
   @DF-RKS iter  10:  -350.06280924200337   -3.18323e-12   2.69938e-09 DIIS
  Energy and wave function converged.


  ==> Post-Iterations <==

    Orbital Energies [Eh]
    ---------------------

    Doubly Occupied:                                                      

       1A    -10.296587     2A    -10.288361     3A    -10.288237  
       4A    -10.286032     5A    -10.285580     6A    -10.285339  
       7A    -10.283428     8A    -10.280371     9A    -10.270610  
      10A     -0.967079    11A     -0.901358    12A     -0.850671  
      13A     -0.848964    14A     -0.779410    15A     -0.704416  
      16A     -0.699488    17A     -0.672461    18A     -0.607862  
      19A     -0.565530    20A     -0.547784    21A     -0.532704  
      22A     -0.518271    23A     -0.509952    24A     -0.499782  
      25A     -0.472037    26A     -0.461217    27A     -0.444945  
      28A     -0.427536    29A     -0.421842    30A     -0.410810  
      31A     -0.405638    32A     -0.329168    33A     -0.318330  

    Virtual:                                                              

      34A      0.066248    35A      0.069098    36A      0.120342  
      37A      0.135444    38A      0.144206    39A      0.159170  
      40A      0.169983    41A      0.175512    42A      0.192679  
      43A      0.206334    44A      0.212813    45A      0.217131  
      46A      0.223026    47A      0.230604    48A      0.237426  
      49A      0.298215    50A      0.306709    51A      0.317376  
      52A      0.359145    53A      0.367569    54A      0.370806  
      55A      0.381885    56A      0.394006    57A      0.406023  
      58A      0.412160    59A      0.423068    60A      0.440130  
      61A      0.474936    62A      0.483489    63A      0.495718  
      64A      0.501014    65A      0.505665    66A      0.525851  
      67A      0.541055    68A      0.556077    69A      0.564677  
      70A      0.575714    71A      0.587435    72A      0.602488  
      73A      0.632810    74A      0.639814    75A      0.651407  
      76A      0.667054    77A      0.683283    78A      0.684335  
      79A      0.689815    80A      0.693892    81A      0.701590  
      82A      0.702043    83A      0.709424    84A      0.722258  
      85A      0.728773    86A      0.737314    87A      0.750754  
      88A      0.756136    89A      0.764670    90A      0.785295  
      91A      0.811594    92A      0.855081    93A      0.868549  
      94A      0.890775    95A      0.921732    96A      0.948596  
      97A      0.969235    98A      0.975818    99A      1.014347  
     100A      1.052038   101A      1.103558   102A      1.141970  
     103A      1.160233   104A      1.218306   105A      1.374201  
     106A      2.303219   107A      2.337069   108A      2.350130  
     109A      2.359463   110A      2.369137   111A      2.387992  
     112A      2.393380   113A      2.406595   114A      2.419677  
     115A      2.460288   116A      2.461566   117A      2.617372  
     118A      2.646115   119A      2.676056   120A      2.704337  
     121A      2.774850   122A      2.786318   123A      2.823239  
     124A      2.842405   125A      2.910715   126A      2.920245  
     127A      2.938998   128A      2.960873   129A      2.964867  
     130A      2.986597   131A      2.996962   132A      3.049352  
     133A      3.081218   134A      3.114520   135A      3.159672  
     136A      3.183748   137A      3.205329   138A      3.229358  
     139A      3.284924   140A      3.318909   141A      3.361851  
     142A      3.400915   143A      3.420117   144A      3.546063  
     145A     23.255253   146A     23.474924   147A     23.489337  
     148A     23.528918   149A     23.645793   150A     23.734283  
     151A     23.755561   152A     23.770146   153A     24.027347  

    Final Occupation by Irrep:
              A 
    DOCC [    33 ]

  @DF-RKS Final Energy:  -350.06280924200337

   => Energetics <=

    Nuclear Repulsion Energy =            412.1538543699214188
    One-Electron Energy =               -1286.8628533243920629
    Two-Electron Energy =                 561.0548316144329419
    DFT Exchange-Correlation Energy =     -36.3970515315936751
    Empirical Dispersion Energy =          -0.0115903703719539
    VV10 Nonlocal Energy =                  0.0000000000000000
    Total Energy =                       -350.0628092420033113

Computation Completed


Properties will be evaluated at   0.000000,   0.000000,   0.000000 [a0]

Properties computed using the SCF density matrix

  Nuclear Dipole Moment: [e a0]
     X:    -9.6853      Y:    -1.4573      Z:    -0.0702

  Electronic Dipole Moment: [e a0]
     X:     9.5351      Y:     1.4626      Z:     0.0620

  Dipole Moment: [e a0]
     X:    -0.1502      Y:     0.0052      Z:    -0.0082     Total:     0.1505

  Dipole Moment: [D]
     X:    -0.3818      Y:     0.0133      Z:    -0.0208     Total:     0.3826


*** tstop() called on daniele-Precision-5750 at Wed Jun  2 00:23:01 2021
Module time:
	user time   =      68.76 seconds =       1.15 minutes
	system time =       1.89 seconds =       0.03 minutes
	total time  =          9 seconds =       0.15 minutes
Total time:
	user time   =     185.29 seconds =       3.09 minutes
	system time =       4.58 seconds =       0.08 minutes
	total time  =         25 seconds =       0.42 minutes

*** tstart() called on daniele-Precision-5750
*** at Wed Jun  2 00:23:01 2021


         ------------------------------------------------------------
                                   SCF GRAD                          
                          Rob Parrish, Justin Turney,                
                       Andy Simmonett, and Alex Sokolov              
         ------------------------------------------------------------

  ==> Geometry <==

    Molecular point group: c1
    Full point group: C1

    Geometry (in Angstrom), charge = 0, multiplicity = 1:

       Center              X                  Y                   Z               Mass       
    ------------   -----------------  -----------------  -----------------  -----------------
         C           -1.312614798213    -0.508933682119     0.800042058679    12.000000000000
         C           -2.390036319330     0.127784942229    -0.100904098561    12.000000000000
         C            0.089764864320    -0.155047392987     0.365539502896    12.000000000000
         C           -3.668435206738    -0.708337012062    -0.180545321681    12.000000000000
         C            0.700820671782     1.018081710692     0.812071733427    12.000000000000
         C            0.779013091037    -0.965161469413    -0.537606624215    12.000000000000
         C            1.970690608770     1.375130817464     0.366710951110    12.000000000000
         C            2.048941900596    -0.612284774943    -0.985495601029    12.000000000000
         C            2.649537423885     0.559325128429    -0.533527158488    12.000000000000
         H           -1.421601757065    -1.598034061863     0.767954817802     1.007825032230
         H           -1.470357277855    -0.212660273496     1.840664667793     1.007825032230
         H           -2.613834787748     1.138785967676     0.251607384636     1.007825032230
         H           -1.978312581815     0.240837823212    -1.108507691274     1.007825032230
         H           -4.122782837890    -0.836466948726     0.805180718413     1.007825032230
         H           -4.406241383957    -0.231977805987    -0.829211986164     1.007825032230
         H           -3.453227124221    -1.699931495753    -0.584335766818     1.007825032230
         H            0.178347938636     1.656746932872     1.513249452918     1.007825032230
         H            0.317864346011    -1.877770104494    -0.894500050804     1.007825032230
         H            2.430251634606     2.287087122325     0.723581914515     1.007825032230
         H            2.570139828752    -1.252969871663    -1.684009284593     1.007825032230
         H            3.638410266935     0.831817794281    -0.876513859153     1.007825032230

  Nuclear repulsion =  412.153854369921419

  ==> Basis Set <==

  Basis Set: 6-311G
    Blend: 6-311G
    Number of shells: 99
    Number of basis function: 153
    Number of Cartesian functions: 153
    Spherical Harmonics?: true
    Max angular momentum: 1

  ==> DFJKGrad: Density-Fitted SCF Gradients <==

    Gradient:                    1
    J tasked:                  Yes
    K tasked:                  Yes
    wK tasked:                 Yes
    Omega:               2.000E-01
    OpenMP threads:              8
    Integrals threads:           8
    Memory [MiB]:              500
    Schwarz Cutoff:          0E+00
    Fitting Condition:       1E-10

   => Auxiliary Basis Set <=

  Basis Set: (6-311G AUX)
    Blend: CC-PVTZ-JKFIT
    Number of shells: 345
    Number of basis function: 1071
    Number of Cartesian functions: 1284
    Spherical Harmonics?: true
    Max angular momentum: 4

  ==> DFT Potential <==

   => Composite Functional: WB97X-D <= 

    wB97X-D Hyb-GGA Exchange-Correlation Functional

    J.-D. Chai and M. Head-Gordon, Phys. Chem. Chem. Phys. 10, 6615 (2008)

    Deriv               =              1
    GGA                 =           TRUE
    Meta                =          FALSE

    Exchange Hybrid     =           TRUE
    MP2 Hybrid          =          FALSE

   => Exchange-Correlation Functionals <=

    1.0000   wB97D range-separated functional

   => Exact (HF) Exchange <=

    0.7780            HF,LR [omega = 0.2000]
    0.2220               HF 

   => Molecular Quadrature <=

    Radial Scheme          =       TREUTLER
    Pruning Scheme         =           FLAT
    Nuclear Scheme         =       TREUTLER

    BS radius alpha        =              1
    Pruning alpha          =              1
    Radial Points          =             75
    Spherical Points       =            302
    Total Points           =         470057
    Total Blocks           =           3447
    Max Points             =            256
    Max Functions          =            144


  -Total Gradient:
     Atom            X                  Y                   Z
    ------   -----------------  -----------------  -----------------
       1       -0.001667069612     0.003493843774    -0.000497729192
       2       -0.000590465255     0.000249517945     0.003617149409
       3        0.002913219923    -0.002032132567    -0.002630921516
       4        0.001660064798    -0.002489222590    -0.001719003929
       5       -0.000991766684    -0.001660753319    -0.000526718905
       6       -0.001219204316     0.001099835815     0.001627978257
       7       -0.000227944870    -0.001247920023    -0.000851915298
       8       -0.000562351456     0.001197814939     0.000874777829
       9       -0.001402784823    -0.000275248300     0.000485564874
      10        0.000538431541    -0.000289008751    -0.000021951299
      11        0.000460912453     0.000264546851     0.000132504771
      12       -0.000001387885     0.000178777193     0.000203277056
      13        0.000261908174     0.000061040799    -0.000209647030
      14       -0.000175406179     0.000430115155    -0.000013080102
      15        0.000332975782     0.000495134876    -0.000171897277
      16        0.000225177584     0.000318359562     0.000005465977
      17        0.000313183418     0.000025698663    -0.000323970658
      18        0.000233446529     0.000288797951    -0.000175505568
      19       -0.000052875899    -0.000165250460    -0.000111380803
      20       -0.000130539962     0.000144393304     0.000137581478
      21        0.000030007970    -0.000087051438     0.000147010322


*** tstop() called on daniele-Precision-5750 at Wed Jun  2 00:23:06 2021
Module time:
	user time   =      36.52 seconds =       0.61 minutes
	system time =       0.45 seconds =       0.01 minutes
	total time  =          5 seconds =       0.08 minutes
Total time:
	user time   =     221.82 seconds =       3.70 minutes
	system time =       5.03 seconds =       0.08 minutes
	total time  =         30 seconds =       0.50 minutes

			-----------------------------------------
			 OPTKING 2.0: for geometry optimizations 
			  - R.A. King,  Bethel University        
			-----------------------------------------
	At level 1: Red. Int., RFO, no backsteps, dynamic trust

	Previous internal coordinate definitions found.
	---Fragment 1 Geometry and Gradient---
	 C          -2.4804824768       -0.9617452752        1.5118603798
	 C          -4.5165140734        0.2414785438       -0.1906811112
	 C           0.1696310093       -0.2929971092        0.6907695485
	 C          -6.9323378497       -1.3385629573       -0.3411812112
	 C           1.3243591327        1.9238956065        1.5345931704
	 C           1.4721213902       -1.8238908440       -1.0159292830
	 C           3.7240655286        2.5986206317        0.6929832648
	 C           3.8719390391       -1.1570505354       -1.8623167838
	 C           5.0069000903        1.0569713078       -1.0082202100
	 H          -2.6864379803       -3.0198467161        1.4512242824
	 H          -2.7785725617       -0.4018696747        3.4783521109
	 H          -4.9394318860        2.1519935944        0.4754690481
	 H          -3.7384689702        0.4551175265       -2.0947759445
	 H          -7.7909304384       -1.5806934461        1.5215710393
	 H          -8.3265894583       -0.4383745205       -1.5669835538
	 H          -6.5256535138       -3.2124049590       -1.1042345646
	 H           0.3370287591        3.1307979623        2.8596270255
	 H           0.6006765590       -3.5484712241       -1.6903601152
	 H           4.5925100054        4.3219682863        1.3673716478
	 H           4.8568603805       -2.3677699009       -3.1823163406
	 H           6.8755989366        1.5719078175       -1.6563711390
	            -0.0016670696        0.0034938438       -0.0004977292
	            -0.0005904653        0.0002495179        0.0036171494
	             0.0029132199       -0.0020321326       -0.0026309215
	             0.0016600648       -0.0024892226       -0.0017190039
	            -0.0009917667       -0.0016607533       -0.0005267189
	            -0.0012192043        0.0010998358        0.0016279783
	            -0.0002279449       -0.0012479200       -0.0008519153
	            -0.0005623515        0.0011978149        0.0008747778
	            -0.0014027848       -0.0002752483        0.0004855649
	             0.0005384315       -0.0002890088       -0.0000219513
	             0.0004609125        0.0002645469        0.0001325048
	            -0.0000013879        0.0001787772        0.0002032771
	             0.0002619082        0.0000610408       -0.0002096470
	            -0.0001754062        0.0004301152       -0.0000130801
	             0.0003329758        0.0004951349       -0.0001718973
	             0.0002251776        0.0003183596        0.0000054660
	             0.0003131834        0.0000256987       -0.0003239707
	             0.0002334465        0.0002887980       -0.0001755056
	            -0.0000528759       -0.0001652505       -0.0001113808
	            -0.0001305400        0.0001443933        0.0001375815
	             0.0000300080       -0.0000870514        0.0001470103

	---Fragment 1 Intrafragment Coordinates---
	 - Coordinate -           - BOHR/RAD -       - ANG/DEG -
	 R(1,2)           =         2.914073	       1.542061
	 R(1,3)           =         2.853860	       1.510198
	 R(1,10)          =         2.069269	       1.095010
	 R(1,11)          =         2.066255	       1.093415
	 R(2,4)           =         2.890568	       1.529623
	 R(2,12)          =         2.067047	       1.093834
	 R(2,13)          =         2.067988	       1.094332
	 R(3,5)           =         2.638190	       1.396070
	 R(3,6)           =         2.636842	       1.395357
	 R(4,14)          =         2.065346	       1.092934
	 R(4,15)          =         2.063218	       1.091808
	 R(4,16)          =         2.063717	       1.092072
	 R(5,7)           =         2.630998	       1.392264
	 R(5,17)          =         2.046252	       1.082830
	 R(6,8)           =         2.630622	       1.392065
	 R(6,18)          =         2.046570	       1.082998
	 R(7,9)           =         2.629913	       1.391690
	 R(7,19)          =         2.044241	       1.081766
	 R(8,9)           =         2.630496	       1.391999
	 R(8,20)          =         2.044092	       1.081687
	 R(9,21)          =         2.043843	       1.081555
	 B(1,2,4)         =         1.969970	     112.870943
	 B(1,2,12)        =         1.913780	     109.651523
	 B(1,2,13)        =         1.894132	     108.525760
	 B(1,3,5)         =         2.107533	     120.752736
	 B(1,3,6)         =         2.104665	     120.588432
	 B(2,1,3)         =         1.964874	     112.578984
	 B(2,1,10)        =         1.900763	     108.905692
	 B(2,1,11)        =         1.921291	     110.081843
	 B(2,4,14)        =         1.943958	     111.380591
	 B(2,4,15)        =         1.936086	     110.929564
	 B(2,4,16)        =         1.929307	     110.541155
	 B(3,1,10)        =         1.893425	     108.485236
	 B(3,1,11)        =         1.922282	     110.138621
	 B(3,5,7)         =         2.108778	     120.824062
	 B(3,5,17)        =         2.084662	     119.442320
	 B(3,6,8)         =         2.107955	     120.776949
	 B(3,6,18)        =         2.085412	     119.485307
	 B(4,2,12)        =         1.929444	     110.549000
	 B(4,2,13)        =         1.899664	     108.842705
	 B(5,3,6)         =         2.069951	     118.599451
	 B(5,7,9)         =         2.096121	     120.098905
	 B(5,7,19)        =         2.092255	     119.877409
	 B(6,8,9)         =         2.097281	     120.165361
	 B(6,8,20)        =         2.091153	     119.814267
	 B(7,5,17)        =         2.089746	     119.733614
	 B(7,9,8)         =         2.086282	     119.535178
	 B(7,9,21)        =         2.098364	     120.227379
	 B(8,6,18)        =         2.089816	     119.737636
	 B(8,9,21)        =         2.098532	     120.237007
	 B(9,7,19)        =         2.094806	     120.023519
	 B(9,8,20)        =         2.094745	     120.020074
	 B(10,1,11)       =         1.857747	     106.441047
	 B(12,2,13)       =         1.852740	     106.154204
	 B(14,4,15)       =         1.881856	     107.822429
	 B(14,4,16)       =         1.884887	     107.996063
	 B(15,4,16)       =         1.885626	     108.038433
	*D(1,2,4,14)      =         1.050434	      60.185454
	 D(1,2,4,15)      =        -3.136461	    -179.705983
	 D(1,2,4,16)      =        -1.045128	     -59.881436
	 D(1,3,5,7)       =        -3.092263	    -177.173590
	 D(1,3,5,17)      =         0.048918	       2.802776
	 D(1,3,6,8)       =         3.092508	     177.187645
	 D(1,3,6,18)      =        -0.046993	      -2.692491
	*D(2,1,3,5)       =         1.506975	      86.343306
	*D(2,1,3,6)       =        -1.585021	     -90.815040
	*D(3,1,2,4)       =         2.625557	     150.433358
	 D(3,1,2,12)      =        -1.498288	     -85.845605
	 D(3,1,2,13)      =         0.518372	      29.700550
	 D(3,5,7,9)       =        -0.001403	      -0.080366
	 D(3,5,7,19)      =        -3.140406	    -179.932006
	 D(3,6,8,9)       =         0.001078	       0.061756
	 D(3,6,8,20)      =         3.139204	     179.863140
	 D(4,2,1,10)      =         0.524942	      30.076979
	 D(4,2,1,11)      =        -1.505625	     -86.265979
	 D(5,3,1,10)      =        -2.671376	    -153.058552
	 D(5,3,1,11)      =        -0.644475	     -36.925689
	 D(5,3,6,8)       =        -0.000540	      -0.030967
	 D(5,3,6,18)      =        -3.140041	    -179.911103
	 D(5,7,9,8)       =         0.001913	       0.109583
	 D(5,7,9,21)      =        -3.135493	    -179.650540
	 D(6,3,1,10)      =         0.519813	      29.783102
	 D(6,3,1,11)      =         2.546714	     145.915965
	 D(6,3,5,7)       =         0.000703	       0.040283
	 D(6,3,5,17)      =        -3.141302	    -179.983350
	 D(6,8,9,7)       =        -0.001753	      -0.100437
	 D(6,8,9,21)      =         3.135653	     179.659662
	 D(7,9,8,20)      =        -3.139872	    -179.901410
	 D(8,9,7,19)      =         3.140912	     179.961004
	 D(9,7,5,17)      =         3.140604	     179.943335
	 D(9,8,6,18)      =         3.140573	     179.941591
	 D(10,1,2,12)     =         2.684282	     153.798016
	 D(10,1,2,13)     =        -1.582243	     -90.655829
	 D(11,1,2,12)     =         0.653714	      37.455057
	 D(11,1,2,13)     =         2.670375	     153.001212
	 D(12,2,4,14)     =        -1.100236	     -63.038851
	 D(12,2,4,15)     =         0.996054	      57.069713
	 D(12,2,4,16)     =         3.087387	     176.894259
	 D(13,2,4,14)     =        -3.128724	    -179.262669
	 D(13,2,4,15)     =        -1.032434	     -59.154105
	 D(13,2,4,16)     =         1.058899	      60.670441
	 D(17,5,7,19)     =         0.001600	       0.091696
	 D(18,6,8,20)     =        -0.004486	      -0.257025
	 D(19,7,9,21)     =         0.003506	       0.200882
	 D(20,8,9,21)     =        -0.002466	      -0.141311

	Current energy   :      -350.0628092420

	Energy change for the previous step:
		Projected    :        -0.0045698529
		Actual       :        -0.0021469440

	Performing BFGS update.
	Previous computed or guess Hessian on step 1.
	Steps to be used in Hessian update: 1
	Taking RFO optimization step.
	Going to follow RFO solution 1.
	Using RFO vector 1.
	Norm of target step-size    0.02720
	Projected energy change by RFO approximation:        -0.0001130345

	Back-transformation to cartesian coordinates...
	Successfully converged to displaced geometry.

	Back-transformation to cartesian coordinates to adjust frozen coordinates...
	Successfully converged to displaced geometry.

	--- Internal Coordinate Step in ANG or DEG, aJ/ANG or AJ/DEG ---
	 ---------------------------------------------------------------------------
	   Coordinate                Previous        Force       Change         New 
	   ----------                --------       ------       ------       ------
	    1 R(1,2)          =      1.542061     0.021146     0.004328     1.546388
	    2 R(1,3)          =      1.510198     0.010186     0.001729     1.511926
	    3 R(1,10)         =      1.095010    -0.001956    -0.000372     1.094638
	    4 R(1,11)         =      1.093415    -0.001079    -0.000236     1.093178
	    5 R(2,4)          =      1.529623     0.007537     0.001387     1.531010
	    6 R(2,12)         =      1.093834    -0.001839    -0.000363     1.093471
	    7 R(2,13)         =      1.094332    -0.002444    -0.000471     1.093861
	    8 R(3,5)          =      1.396070     0.021160     0.002637     1.398707
	    9 R(3,6)          =      1.395357     0.025144     0.003170     1.398527
	   10 R(4,14)         =      1.092934    -0.000095    -0.000044     1.092891
	   11 R(4,15)         =      1.091808    -0.000680    -0.000155     1.091653
	   12 R(4,16)         =      1.092072     0.001924     0.000287     1.092359
	   13 R(5,7)          =      1.392264     0.009725     0.001073     1.393337
	   14 R(5,17)         =      1.082830     0.002811     0.000390     1.083220
	   15 R(6,8)          =      1.392065     0.010480     0.001184     1.393250
	   16 R(6,18)         =      1.082998     0.002408     0.000326     1.083324
	   17 R(7,9)          =      1.391690     0.015343     0.001780     1.393470
	   18 R(7,19)         =      1.081766     0.001574     0.000179     1.081945
	   19 R(8,9)          =      1.391999     0.013623     0.001568     1.393567
	   20 R(8,20)         =      1.081687     0.001992     0.000247     1.081934
	   21 R(9,21)         =      1.081555     0.000315    -0.000030     1.081526
	   22 B(1,2,4)        =    112.870943     0.000016     0.046059   112.917002
	   23 B(1,2,12)       =    109.651523     0.000002     0.064804   109.716327
	   24 B(1,2,13)       =    108.525760     0.000001     0.004593   108.530353
	   25 B(1,3,5)        =    120.752736     0.000028     0.075147   120.827883
	   26 B(1,3,6)        =    120.588432     0.000037     0.093851   120.682284
	   27 B(2,1,3)        =    112.578984     0.000049     0.192371   112.771354
	   28 B(2,1,10)       =    108.905692    -0.000041    -0.298519   108.607174
	   29 B(2,1,11)       =    110.081843    -0.000033    -0.129641   109.952202
	   30 B(2,4,14)       =    111.380591    -0.000008    -0.061392   111.319200
	   31 B(2,4,15)       =    110.929564     0.000061     0.302024   111.231588
	   32 B(2,4,16)       =    110.541155     0.000021     0.070900   110.612056
	   33 B(3,1,10)       =    108.485236     0.000014     0.141971   108.627207
	   34 B(3,1,11)       =    110.138621     0.000007     0.189915   110.328537
	   35 B(3,5,7)        =    120.824062     0.000024     0.078978   120.903040
	   36 B(3,5,17)       =    119.442320    -0.000032    -0.133108   119.309212
	   37 B(3,6,8)        =    120.776949     0.000030     0.101541   120.878491
	   38 B(3,6,18)       =    119.485307    -0.000034    -0.138262   119.347044
	   39 B(4,2,12)       =    110.549000    -0.000008    -0.008217   110.540783
	   40 B(4,2,13)       =    108.842705    -0.000012    -0.097807   108.744898
	   41 B(5,3,6)        =    118.599451    -0.000066    -0.168799   118.430651
	   42 B(5,7,9)        =    120.098905     0.000005     0.000423   120.099328
	   43 B(5,7,19)       =    119.877409    -0.000006    -0.015071   119.862338
	   44 B(6,8,9)        =    120.165361    -0.000009    -0.035294   120.130067
	   45 B(6,8,20)       =    119.814267     0.000004     0.014582   119.828848
	   46 B(7,5,17)       =    119.733614     0.000008     0.053802   119.787416
	   47 B(7,9,8)        =    119.535178     0.000015     0.023134   119.558312
	   48 B(7,9,21)       =    120.227379    -0.000005    -0.003721   120.223658
	   49 B(8,6,18)       =    119.737636     0.000003     0.036519   119.774155
	   50 B(8,9,21)       =    120.237007    -0.000009    -0.019326   120.217680
	   51 B(9,7,19)       =    120.023519     0.000001     0.014729   120.038248
	   52 B(9,8,20)       =    120.020074     0.000005     0.020880   120.040955
	   53 B(10,1,11)      =    106.441047     0.000001    -0.117834   106.323213
	   54 B(12,2,13)      =    106.154204     0.000000    -0.014817   106.139387
	   55 B(14,4,15)      =    107.822429    -0.000029    -0.104924   107.717505
[...]
	 R(1,3)           =         2.857127	       1.511926
	 R(1,10)          =         2.068566	       1.094638
	 R(1,11)          =         2.065808	       1.093178
	 R(2,4)           =         2.893190	       1.531010
	 R(2,12)          =         2.066361	       1.093471
	 R(2,13)          =         2.067097	       1.093861
	 R(3,5)           =         2.643174	       1.398707
	 R(3,6)           =         2.642832	       1.398527
	 R(4,14)          =         2.065264	       1.092891
	 R(4,15)          =         2.062924	       1.091653
	 R(4,16)          =         2.064259	       1.092359
	 R(5,7)           =         2.633026	       1.393337
	 R(5,17)          =         2.046989	       1.083220
	 R(6,8)           =         2.632860	       1.393250
	 R(6,18)          =         2.047186	       1.083324
	 R(7,9)           =         2.633276	       1.393470
	 R(7,19)          =         2.044579	       1.081945
	 R(8,9)           =         2.633459	       1.393567
	 R(8,20)          =         2.044559	       1.081934
	 R(9,21)          =         2.043787	       1.081526
	 B(1,2,4)         =         1.970773	     112.917002
	 B(1,2,12)        =         1.914911	     109.716327
	 B(1,2,13)        =         1.894212	     108.530353
	 B(1,3,5)         =         2.108844	     120.827883
	 B(1,3,6)         =         2.106303	     120.682284
	 B(2,1,3)         =         1.968231	     112.771354
	 B(2,1,10)        =         1.895553	     108.607174
	 B(2,1,11)        =         1.919028	     109.952202
	 B(2,4,14)        =         1.942887	     111.319200
	 B(2,4,15)        =         1.941357	     111.231588
	 B(2,4,16)        =         1.930545	     110.612056
	 B(3,1,10)        =         1.895902	     108.627207
	 B(3,1,11)        =         1.925596	     110.328537
	 B(3,5,7)         =         2.110156	     120.903040
	 B(3,5,17)        =         2.082339	     119.309212
	 B(3,6,8)         =         2.109728	     120.878491
	 B(3,6,18)        =         2.082999	     119.347044
	 B(4,2,12)        =         1.929301	     110.540783
	 B(4,2,13)        =         1.897957	     108.744898
	 B(5,3,6)         =         2.067005	     118.430651
	 B(5,7,9)         =         2.096129	     120.099328
	 B(5,7,19)        =         2.091992	     119.862338
	 B(6,8,9)         =         2.096665	     120.130067
	 B(6,8,20)        =         2.091408	     119.828848
	 B(7,5,17)        =         2.090685	     119.787416
	 B(7,9,8)         =         2.086686	     119.558312
	 B(7,9,21)        =         2.098299	     120.223658
	 B(8,6,18)        =         2.090453	     119.774155
	 B(8,9,21)        =         2.098194	     120.217680
	 B(9,7,19)        =         2.095063	     120.038248
	 B(9,8,20)        =         2.095110	     120.040955
	 B(10,1,11)       =         1.855690	     106.323213
	 B(12,2,13)       =         1.852482	     106.139387
	 B(14,4,15)       =         1.880025	     107.717505
	 B(14,4,16)       =         1.882490	     107.858758
	 B(15,4,16)       =         1.884121	     107.952201
	*D(1,2,4,14)      =         1.050434	      60.185454
	 D(1,2,4,15)      =        -3.135940	    -179.676151
	 D(1,2,4,16)      =        -1.042230	     -59.715363
	 D(1,3,5,7)       =        -3.091891	    -177.152334
	 D(1,3,5,17)      =         0.053370	       3.057903
	 D(1,3,6,8)       =         3.092535	     177.189214
	 D(1,3,6,18)      =        -0.052599	      -3.013681
	*D(2,1,3,5)       =         1.506975	      86.343306
	*D(2,1,3,6)       =        -1.585021	     -90.815040
	*D(3,1,2,4)       =         2.625557	     150.433358
	 D(3,1,2,12)      =        -1.497057	     -85.775047
	 D(3,1,2,13)      =         0.519954	      29.791153
	 D(3,5,7,9)       =        -0.000143	      -0.008215
	 D(3,5,7,19)      =        -3.139880	    -179.901882
	 D(3,6,8,9)       =        -0.000999	      -0.057230
	 D(3,6,8,20)      =         3.138304	     179.811596
	 D(4,2,1,10)      =         0.523242	      29.979558
	 D(4,2,1,11)      =        -1.500611	     -85.978685
	 D(5,3,1,10)      =        -2.674095	    -153.214375
	 D(5,3,1,11)      =        -0.646400	     -37.035996
	 D(5,3,6,8)       =        -0.000629	      -0.036020
	 D(5,3,6,18)      =         3.137423	     179.761085
	 D(5,7,9,8)       =        -0.001497	      -0.085746
	 D(5,7,9,21)      =        -3.139340	    -179.870954
	 D(6,3,1,10)      =         0.517094	      29.627280
	 D(6,3,1,11)      =         2.544789	     145.805658
	 D(6,3,5,7)       =         0.001199	       0.068699
	 D(6,3,5,17)      =        -3.136724	    -179.721064
	 D(6,8,9,7)       =         0.002061	       0.118114
	 D(6,8,9,21)      =         3.139906	     179.903335
	 D(7,9,8,20)      =        -3.137237	    -179.750432
	 D(8,9,7,19)      =         3.138237	     179.807733
	 D(9,7,5,17)      =         3.137763	     179.780551
	 D(9,8,6,18)      =        -3.139035	    -179.853475
	 D(10,1,2,12)     =         2.683813	     153.771153
	 D(10,1,2,13)     =        -1.582362	     -90.662647
	 D(11,1,2,12)     =         0.659960	      37.812909
	 D(11,1,2,13)     =         2.676970	     153.379110
	 D(12,2,4,14)     =        -1.102188	     -63.150704
	 D(12,2,4,15)     =         0.994623	      56.987691
	 D(12,2,4,16)     =         3.088334	     176.948479
	 D(13,2,4,14)     =        -3.129284	    -179.294787
	 D(13,2,4,15)     =        -1.032474	     -59.156392
	 D(13,2,4,16)     =         1.061237	      60.804397
	 D(17,5,7,19)     =        -0.001974	      -0.113116
	 D(18,6,8,20)     =         0.000268	       0.015351
	 D(19,7,9,21)     =         0.000393	       0.022525
	 D(20,8,9,21)     =         0.000607	       0.034789

	Current energy   :      -350.0628652004

	Energy change for the previous step:
		Projected    :        -0.0001130345
		Actual       :        -0.0000559584

	Performing BFGS update.
	Previous computed or guess Hessian on step 1.
	Steps to be used in Hessian update: 2 1
	Taking RFO optimization step.
	Going to follow RFO solution 1.
	Using RFO vector 1.
	Norm of target step-size    0.00724
	Projected energy change by RFO approximation:        -0.0000048753

	Back-transformation to cartesian coordinates...
	Could not converge backtransformation.
	Using first guess instead.

	Back-transformation to cartesian coordinates to adjust frozen coordinates...
	Successfully converged to displaced geometry.

	--- Internal Coordinate Step in ANG or DEG, aJ/ANG or AJ/DEG ---
	 ---------------------------------------------------------------------------
	   Coordinate                Previous        Force       Change         New 
	   ----------                --------       ------       ------       ------
	    1 R(1,2)          =      1.546388     0.001649     0.000536     1.546924
	    2 R(1,3)          =      1.511926    -0.004568    -0.001095     1.510831
	    3 R(1,10)         =      1.094638     0.000216     0.000010     1.094648
	    4 R(1,11)         =      1.093178    -0.000022    -0.000036     1.093142
	    5 R(2,4)          =      1.531010    -0.000878    -0.000202     1.530808
	    6 R(2,12)         =      1.093471    -0.000355    -0.000107     1.093364
	    7 R(2,13)         =      1.093861     0.000088    -0.000027     1.093834
	    8 R(3,5)          =      1.398707     0.001500     0.000259     1.398966
	    9 R(3,6)          =      1.398527     0.001362     0.000257     1.398784
	   10 R(4,14)         =      1.092891     0.000966     0.000175     1.093065
	   11 R(4,15)         =      1.091653    -0.000272    -0.000076     1.091576
	   12 R(4,16)         =      1.092359     0.000826     0.000158     1.092517
	   13 R(5,7)          =      1.393337    -0.000648    -0.000131     1.393207
	   14 R(5,17)         =      1.083220     0.000757     0.000131     1.083351
	   15 R(6,8)          =      1.393250    -0.000705    -0.000135     1.393115
	   16 R(6,18)         =      1.083324     0.000768     0.000132     1.083456
	   17 R(7,9)          =      1.393470     0.000550     0.000086     1.393556
	   18 R(7,19)         =      1.081945     0.000319     0.000035     1.081980
	   19 R(8,9)          =      1.393567     0.000988     0.000144     1.393711
	   20 R(8,20)         =      1.081934     0.000247     0.000024     1.081958
	   21 R(9,21)         =      1.081526     0.000433     0.000047     1.081572
	   22 B(1,2,4)        =    112.917002    -0.000023    -0.099078   112.817924
	   23 B(1,2,12)       =    109.716327     0.000004    -0.009221   109.707106
	   24 B(1,2,13)       =    108.530353     0.000002    -0.023758   108.506595
	   25 B(1,3,5)        =    120.827883     0.000004     0.016660   120.844542
	   26 B(1,3,6)        =    120.682284    -0.000000     0.002564   120.684848
	   27 B(2,1,3)        =    112.771354    -0.000010    -0.037093   112.734261
	   28 B(2,1,10)       =    108.607174    -0.000002    -0.047740   108.559434
	   29 B(2,1,11)       =    109.952202    -0.000005    -0.066386   109.885816
	   30 B(2,4,14)       =    111.319200     0.000004     0.020028   111.339227
	   31 B(2,4,15)       =    111.231588    -0.000002    -0.003288   111.228300
	   32 B(2,4,16)       =    110.612056     0.000005     0.030307   110.642362
	   33 B(3,1,10)       =    108.627207     0.000006     0.052462   108.679669
	   34 B(3,1,11)       =    110.328537     0.000009     0.056669   110.385205
	   35 B(3,5,7)        =    120.903040     0.000002     0.011065   120.914105
	   36 B(3,5,17)       =    119.309212    -0.000006    -0.039110   119.270102
	   37 B(3,6,8)        =    120.878491     0.000000     0.007572   120.886063
	   38 B(3,6,18)       =    119.347044    -0.000007    -0.044501   119.302543
	   39 B(4,2,12)       =    110.540783     0.000009     0.028250   110.569033
	   40 B(4,2,13)       =    108.744898     0.000011     0.062462   108.807360
	   41 B(5,3,6)        =    118.430651    -0.000004    -0.019201   118.411450
	   42 B(5,7,9)        =    120.099328     0.000000    -0.000423   120.098905
	   43 B(5,7,19)       =    119.862338    -0.000001    -0.002908   119.859431
	   44 B(6,8,9)        =    120.130067     0.000001     0.001915   120.131982
	   45 B(6,8,20)       =    119.828848    -0.000001    -0.006194   119.822654
	   46 B(7,5,17)       =    119.787416     0.000004     0.028183   119.815599
	   47 B(7,9,8)        =    119.558312     0.000000    -0.000832   119.557480
	   48 B(7,9,21)       =    120.223658    -0.000001    -0.001729   120.221929
	   49 B(8,6,18)       =    119.774155     0.000007     0.037135   119.811290
	   50 B(8,9,21)       =    120.217680     0.000000     0.002794   120.220475
	   51 B(9,7,19)       =    120.038248     0.000000     0.003310   120.041559
	   52 B(9,8,20)       =    120.040955     0.000000     0.004196   120.045151
	   53 B(10,1,11)      =    106.323213     0.000002     0.046930   106.370144
	   54 B(12,2,13)      =    106.139387    -0.000002     0.050394   106.189781
	   55 B(14,4,15)      =    107.717505    -0.000001    -0.018148   107.699357
	   56 B(14,4,16)      =    107.858758    -0.000004    -0.013009   107.845749
	   57 B(15,4,16)      =    107.952201    -0.000002    -0.018521   107.933681
	   58 *D(1,2,4,14)    =     60.185454     0.000000    -0.000000    60.185454
	   59 D(1,2,4,15)     =   -179.676151    -0.000000    -0.011712  -179.687863
	   60 D(1,2,4,16)     =    -59.715363    -0.000000    -0.017024   -59.732387
	   61 D(1,3,5,7)      =   -177.152334    -0.000000    -0.031205  -177.183539
	   62 D(1,3,5,17)     =      3.057903    -0.000000    -0.081036     2.976868
	   63 D(1,3,6,8)      =    177.189214     0.000000     0.000502   177.189716
	   64 D(1,3,6,18)     =     -3.013681     0.000001     0.086153    -2.927528
	   65 *D(2,1,3,5)     =     86.343306    -0.000000     0.000000    86.343306
	   66 *D(2,1,3,6)     =    -90.815040    -0.000000    -0.000000   -90.815040
	   67 *D(3,1,2,4)     =    150.433358     0.000000    -0.000000   150.433358
	   68 D(3,1,2,12)     =    -85.775047    -0.000000    -0.040849   -85.815896
	   69 D(3,1,2,13)     =     29.791153    -0.000000     0.001014    29.792167
	   70 D(3,5,7,9)      =     -0.008215    -0.000000    -0.000187    -0.008402
	   71 D(3,5,7,19)     =   -179.901882     0.000000     0.011840  -179.890043
	   72 D(3,6,8,9)      =     -0.057230     0.000000     0.062508     0.005278
	   73 D(3,6,8,20)     =    179.811596     0.000000     0.026210   179.837805
	   74 D(4,2,1,10)     =     29.979558     0.000000    -0.009687    29.969871
	   75 D(4,2,1,11)     =    -85.978685     0.000000    -0.002303   -85.980988
	   76 D(5,3,1,10)     =   -153.214375    -0.000001    -0.047799  -153.262173
	   77 D(5,3,1,11)     =    -37.035996     0.000001     0.070842   -36.965154
	   78 D(5,3,6,8)      =     -0.036020     0.000000    -0.000484    -0.036504
	   79 D(5,3,6,18)     =    179.761085     0.000000     0.085167   179.846252
	   80 D(5,7,9,8)      =     -0.085746     0.000000     0.062184    -0.023562
	   81 D(5,7,9,21)     =   -179.870954    -0.000000    -0.028723  -179.899677
	   82 D(6,3,1,10)     =     29.627280    -0.000001    -0.047799    29.579481
	   83 D(6,3,1,11)     =    145.805658     0.000001     0.070842   145.876501
	   84 D(6,3,5,7)      =      0.068699    -0.000000    -0.030627     0.038072
	   85 D(6,3,5,17)     =   -179.721064    -0.000000    -0.080457  -179.801522
	   86 D(6,8,9,7)      =      0.118114    -0.000001    -0.093002     0.025112
	   87 D(6,8,9,21)     =    179.903335    -0.000000    -0.002107   179.901228
	   88 D(7,9,8,20)     =   -179.750432    -0.000000    -0.056609  -179.807041
	   89 D(8,9,7,19)     =    179.807733     0.000000     0.050129   179.857861
	   90 D(9,7,5,17)     =    179.780551     0.000000     0.049773   179.830323
	   91 D(9,8,6,18)     =   -179.853475    -0.000000    -0.023411  -179.876886
	   92 D(10,1,2,12)    =    153.771153    -0.000000    -0.050536   153.720616
	   93 D(10,1,2,13)    =    -90.662647    -0.000000    -0.008673   -90.671320
	   94 D(11,1,2,12)    =     37.812909    -0.000000    -0.043152    37.769757
	   95 D(11,1,2,13)    =    153.379110     0.000000    -0.001289   153.377821
	   96 D(12,2,4,14)    =    -63.150704     0.000001     0.062730   -63.087975
	   97 D(12,2,4,15)    =     56.987691     0.000001     0.051018    57.038709
	   98 D(12,2,4,16)    =    176.948479     0.000001     0.045705   176.994184
	   99 D(13,2,4,14)    =   -179.294787    -0.000001    -0.050590  -179.345377
	  100 D(13,2,4,15)    =    -59.156392    -0.000001    -0.062302   -59.218693
	  101 D(13,2,4,16)    =     60.804397    -0.000001    -0.067615    60.736782
	  102 D(17,5,7,19)    =     -0.113116     0.000000     0.061799    -0.051317
	  103 D(18,6,8,20)    =      0.015351    -0.000000    -0.059709    -0.044358
	  104 D(19,7,9,21)    =      0.022525    -0.000000    -0.040778    -0.018253
	  105 D(20,8,9,21)    =      0.034789     0.000000     0.034286     0.069075
	 ---------------------------------------------------------------------------
	Successfully symmetrized geometry.

  ==> Convergence Check <==

  Measures of convergence in internal coordinates in au.
  Criteria marked as inactive (o), active & met (*), and active & unmet ( ).
  ---------------------------------------------------------------------------------------------
   Step     Total Energy     Delta E     MAX Force     RMS Force      MAX Disp      RMS Disp   
  ---------------------------------------------------------------------------------------------
    Convergence Criteria             o    2.50e-03 *    1.70e-03 *    1.00e-02 *    6.70e-03 *
  ---------------------------------------------------------------------------------------------
      3    -350.06286520   -5.60e-05 o    5.54e-04 *    8.57e-05 *    2.07e-03 *    7.06e-04 *  ~
  ---------------------------------------------------------------------------------------------


  **** Optimization is complete! (in 3 steps) ****

  ==> Optimization Summary <==

  Measures of convergence in internal coordinates in au.
  --------------------------------------------------------------------------------------------------------------- ~
   Step         Total Energy             Delta E       MAX Force       RMS Force        MAX Disp        RMS Disp  ~
  --------------------------------------------------------------------------------------------------------------- ~
      1    -350.060662298019   -350.060662298019      0.01650652      0.00400238      0.04632045      0.01490963  ~
      2    -350.062809242003     -0.002146943984      0.00305194      0.00061177      0.00817795      0.00265527  ~
      3    -350.062865200379     -0.000055958376      0.00055445      0.00008575      0.00207006      0.00070613  ~
  --------------------------------------------------------------------------------------------------------------- ~

	Writing optimization data to binary file.
	Final energy is   -350.0628652003793
	Final (previous) structure:
	Cartesian Geometry (in Angstrom)
	    C    -1.3153413134  -0.5088713954   0.7985141686
	    C    -2.3977649180   0.1262238936  -0.1049958409
	    C     0.0894610334  -0.1546104161   0.3661358868
	    C    -3.6759668081  -0.7128103093  -0.1838252170
	    C     0.7018974414   1.0209310350   0.8126846359
	    C     0.7842185369  -0.9658499063  -0.5366813227
	    C     1.9734202398   1.3784547210   0.3690681332
	    C     2.0561165973  -0.6129565197  -0.9826474197
	    C     2.6545332076   0.5619867741  -0.5316108763
	    H    -1.4273496764  -1.5972617531   0.7654471871
	    H    -1.4780934950  -0.2147176752   1.8387181700
	    H    -2.6235007571   1.1373454632   0.2447976206
	    H    -1.9876948001   0.2376387854  -1.1129445201
	    H    -4.1290350176  -0.8402958474   0.8025248189
	    H    -4.4180194517  -0.2428206227  -0.8320327509
	    H    -3.4599727308  -1.7059524121  -0.5841542298
	    H     0.1784551472   1.6575456621   1.5156040256
	    H     0.3254373032  -1.8817272876  -0.8892144359
	    H     2.4319860553   2.2908249074   0.7267029343
	    H     2.5795692641  -1.2547127606  -1.6788708063
	    H     3.6424424852   0.8365040193  -0.8756649313
	Saving final (previous) structure.
			--------------------------
			 OPTKING Finished Execution 
			--------------------------

    Final optimized geometry and variables:
    Molecular point group: c1
    Full point group: C1

    Geometry (in Angstrom), charge = 0, multiplicity = 1:

    C           -1.315341318560    -0.508871397447     0.798514171744
    C           -2.397764927404     0.126223894138    -0.104995841284
    C            0.089461033703    -0.154610416665     0.366135888270
    C           -3.675966822557    -0.712810312075    -0.183825217710
    C            0.701897444112     1.020931038968     0.812684639105
    C            0.784218540010    -0.965849910073    -0.536681324831
    C            1.973420247594     1.378454726434     0.369068134698
    C            2.056116605356    -0.612956522143    -0.982647423608
    C            2.654533218031     0.561986776325    -0.531610878392
    H           -1.427349682058    -1.597261759397     0.765447190086
    H           -1.478093500775    -0.214717676065     1.838718177179
    H           -2.623500767371     1.137345467649     0.244797621538
    H           -1.987694807932     0.237638786323    -1.112944524495
    H           -4.129035033862    -0.840295850683     0.802524822051
    H           -4.418019469056    -0.242820623683    -0.832032754189
    H           -3.459972744411    -1.705952418782    -0.584154232119
    H            0.178455147920     1.657545668572     1.515604031581
    H            0.325437304521    -1.881727294992    -0.889214439403
    H            2.431986064905     2.290824916369     0.726702937158
    H            2.579569274209    -1.254712765550    -1.678870812911
    H            3.642442499557     0.836504022607    -0.875664934702

	Removing binary optimization data file.
	Cleaning optimization helper files.

    Psi4 stopped on: Wednesday, 02 June 2021 12:23AM
    Psi4 wall time for execution: 0:00:42.45

*** Psi4 exiting successfully. Buy a developer a beer!
