
    -----------------------------------------------------------------------
          Psi4: An Open-Source Ab Initio Electronic Structure Package
                               Psi4 1.3.2 release

                         Git: Rev {HEAD} ecbda83 


    R. M. Parrish, L. A. Burns, D. G. A. Smith, A. C. Simmonett,
    A. E. DePrince III, E. G. Hohenstein, U. Bozkaya, A. Yu. Sokolov,
    R. Di Remigio, R. M. Richard, J. F. Gonthier, A. M. James,
    H. R. McAlexander, A. Kumar, M. Saitow, X. Wang, B. P. Pritchard,
    P. Verma, H. F. Schaefer III, K. Patkowski, R. A. King, E. F. Valeev,
    F. A. Evangelista, J. M. Turney, T. D. Crawford, and C. D. Sherrill,
    J. Chem. Theory Comput. 13(7) pp 3185--3197 (2017).
    (doi: 10.1021/acs.jctc.7b00174)


                         Additional Contributions by
    P. Kraus, H. Kruse, M. H. Lechner, M. C. Schieber, R. A. Shaw,
    A. Alenaizan, R. Galvelis, Z. L. Glick, S. Lehtola, and J. P. Misiewicz

    -----------------------------------------------------------------------


    Psi4 started on: Wednesday, 02 June 2021 12:32AM

    Process ID: 78920
    Host:       daniele-Precision-5750
    PSIDATADIR: /home/daniele/anaconda3/envs/poltype/share/psi4
    Memory:     500.0 MiB
    Threads:    1
    
  ==> Input File <==

--------------------------------------------------------------------------
molecule { 
0 1
 C   -1.427454   -0.069979    0.655325
 C   -2.370966   -0.640005   -0.444220
 C    0.062286    0.114441    0.280708
 C   -3.835249   -0.784986    0.017489
 C    0.940506    0.704889    1.223845
 C    0.585140   -0.235300   -0.990870
 C    2.297960    0.917624    0.917827
 C    1.944308   -0.022304   -1.295576
 C    2.801670    0.552361   -0.341957
 H   -1.477069   -0.723656    1.536651
 H   -1.819554    0.900793    0.988091
 H   -2.329964    0.011648   -1.327291
 H   -1.994676   -1.618978   -0.769409
 H   -4.255389    0.182688    0.311650
 H   -4.457690   -1.188411   -0.788279
 H   -3.914748   -1.463717    0.873391
 H    0.569033    1.000019    2.204418
 H   -0.046535   -0.676693   -1.758377
 H    2.958097    1.366229    1.657813
 H    2.331752   -0.302892   -2.273506
 H    3.850770    0.716709   -0.579439
}
set optking { 
  frozen_dihedral = ("
    2 1 3 5
    2 1 3 6
    4 2 1 3
    1 2 4 14
  ")
}
set {
  geom_maxiter 400
  g_convergence GAU_LOOSE
  dynamic_level 1
}
memory 700MB
set_num_threads(8)
psi4_io.set_default_path("/home/daniele/PSI4_sctatch/Psi4-propbenzene")
for _ in range(1):
  try:
    set opt_coordinates both
    optimize('wb97x-d/6-311G')
    break
  except OptimizationConvergenceError:
    break
  else:
    try:
      set opt_coordinates cartesian
      optimize('wb97x-d/6-311G')
      break
    except OptimizationConvergenceError:
      pass
clean()
--------------------------------------------------------------------------

  Memory set to 667.572 MiB by Python driver.
  Threads set to 8 by Python driver.
gradient() will perform analytic gradient computation.

*** tstart() called on daniele-Precision-5750
*** at Wed Jun  2 00:32:32 2021

   => Loading Basis Set <=

    Name: 6-311G
    Role: ORBITAL
    Keyword: BASIS
    atoms 1-9   entry C          line    92 file /home/daniele/anaconda3/envs/poltype/share/psi4/basis/6-311g.gbs 
    atoms 10-21 entry H          line    21 file /home/daniele/anaconda3/envs/poltype/share/psi4/basis/6-311g.gbs 


         ---------------------------------------------------------
                                   SCF
               by Justin Turney, Rob Parrish, Andy Simmonett
                          and Daniel G. A. Smith
                              RKS Reference
                        8 Threads,    667 MiB Core
         ---------------------------------------------------------

  ==> Geometry <==

    Molecular point group: c1
    Full point group: C1

    Geometry (in Angstrom), charge = 0, multiplicity = 1:

       Center              X                  Y                   Z               Mass       
    ------------   -----------------  -----------------  -----------------  -----------------
         C           -1.438358828770    -0.108536954941     0.652434283190    12.000000000000
         C           -2.381870828770    -0.678562954941    -0.447110716810    12.000000000000
         C            0.051381171230     0.075883045059     0.277817283190    12.000000000000
         C           -3.846153828770    -0.823543954941     0.014598283190    12.000000000000
         C            0.929601171230     0.666331045059     1.220954283190    12.000000000000
         C            0.574235171230    -0.273857954941    -0.993760716810    12.000000000000
         C            2.287055171230     0.879066045059     0.914936283190    12.000000000000
         C            1.933403171230    -0.060861954941    -1.298466716810    12.000000000000
         C            2.790765171230     0.513803045059    -0.344847716810    12.000000000000
         H           -1.487973828770    -0.762213954941     1.533760283190     1.007825032230
         H           -1.830458828770     0.862235045059     0.985200283190     1.007825032230
         H           -2.340868828770    -0.026909954941    -1.330181716810     1.007825032230
         H           -2.005580828770    -1.657535954941    -0.772299716810     1.007825032230
         H           -4.266293828770     0.144130045059     0.308759283190     1.007825032230
         H           -4.468594828770    -1.226968954941    -0.791169716810     1.007825032230
         H           -3.925652828770    -1.502274954941     0.870500283190     1.007825032230
         H            0.558128171230     0.961461045059     2.201527283190     1.007825032230
         H           -0.057439828770    -0.715250954941    -1.761267716810     1.007825032230
         H            2.947192171230     1.327671045059     1.654922283190     1.007825032230
         H            2.320847171230    -0.341449954941    -2.276396716810     1.007825032230
         H            3.839865171230     0.678151045059    -0.582329716810     1.007825032230

  Running in c1 symmetry.

  Rotational constants: A =      0.15296  B =      0.02734  C =      0.02350 [cm^-1]
  Rotational constants: A =   4585.53233  B =    819.50012  C =    704.44933 [MHz]
  Nuclear repulsion =  405.383255112609049

  Charge       = 0
  Multiplicity = 1
  Electrons    = 66
  Nalpha       = 33
  Nbeta        = 33

  ==> Algorithm <==

  SCF Algorithm Type is DF.
  DIIS enabled.
  MOM disabled.
  Fractional occupation disabled.
  Guess Type is SAD.
  Energy threshold   = 1.00e-08
  Density threshold  = 1.00e-08
  Integral threshold = 0.00e+00

  ==> Primary Basis <==

  Basis Set: 6-311G
    Blend: 6-311G
    Number of shells: 99
    Number of basis function: 153
    Number of Cartesian functions: 153
    Spherical Harmonics?: true
    Max angular momentum: 1

  ==> DFT Potential <==

   => Composite Functional: WB97X-D <= 

    wB97X-D Hyb-GGA Exchange-Correlation Functional

    J.-D. Chai and M. Head-Gordon, Phys. Chem. Chem. Phys. 10, 6615 (2008)

    Deriv               =              1
    GGA                 =           TRUE
    Meta                =          FALSE

    Exchange Hybrid     =           TRUE
    MP2 Hybrid          =          FALSE

   => Exchange-Correlation Functionals <=

    1.0000   wB97D range-separated functional

   => Exact (HF) Exchange <=

    0.7780            HF,LR [omega = 0.2000]
    0.2220               HF 

   => Molecular Quadrature <=

    Radial Scheme          =       TREUTLER
    Pruning Scheme         =           FLAT
    Nuclear Scheme         =       TREUTLER

    BS radius alpha        =              1
    Pruning alpha          =              1
    Radial Points          =             75
    Spherical Points       =            302
    Total Points           =         470003
    Total Blocks           =           3502
    Max Points             =            256
    Max Functions          =            141

   => WB97X-D: Empirical Dispersion <=

    Chai and Head-Gordon Dispersion Correction
    Chai, J.-D.; Head-Gordon, M. (2010), J. Chem. Phys., 132: 6615-6620

        s6 =       1.000000

   => Loading Basis Set <=

    Name: (6-311G AUX)
    Role: JKFIT
    Keyword: DF_BASIS_SCF
    atoms 1-9   entry C          line   125 file /home/daniele/anaconda3/envs/poltype/share/psi4/basis/cc-pvtz-jkfit.gbs 
    atoms 10-21 entry H          line    51 file /home/daniele/anaconda3/envs/poltype/share/psi4/basis/cc-pvtz-jkfit.gbs 

  ==> Pre-Iterations <==

   -------------------------------------------------------
    Irrep   Nso     Nmo     Nalpha   Nbeta   Ndocc  Nsocc
   -------------------------------------------------------
     A        153     153       0       0       0       0
   -------------------------------------------------------
    Total     153     153      33      33      33       0
   -------------------------------------------------------

  ==> Integral Setup <==

  ==> DiskDFJK: Density-Fitted J/K Matrices <==

    J tasked:                  Yes
    K tasked:                  Yes
    wK tasked:                 Yes
    Omega:               2.000E-01
    OpenMP threads:              8
    Integrals threads:           8
    Memory [MiB]:              113
    Algorithm:                Disk
    Integral Cache:           NONE
    Schwarz Cutoff:          1E-12
    Fitting Condition:       1E-10

   => Auxiliary Basis Set <=

  Basis Set: (6-311G AUX)
    Blend: CC-PVTZ-JKFIT
    Number of shells: 345
    Number of basis function: 1071
    Number of Cartesian functions: 1284
    Spherical Harmonics?: true
    Max angular momentum: 4

  Cached 33.4% of DFT collocation blocks in 0.430 [GiB].

  Minimum eigenvalue in the overlap matrix is 2.6449252116E-04.
  Using Symmetric Orthogonalization.

  SCF Guess: Superposition of Atomic Densities via on-the-fly atomic UHF.

  ==> Iterations <==

                           Total Energy        Delta E     RMS |[F,P]|

   @DF-RKS iter SAD:  -349.21725633269563   -3.49217e+02   0.00000e+00 
   @DF-RKS iter   1:  -349.71872003659018   -5.01464e-01   5.11067e-03 DIIS
   @DF-RKS iter   2:  -349.90832036135163   -1.89600e-01   3.53508e-03 DIIS
   @DF-RKS iter   3:  -350.05970816605770   -1.51388e-01   2.19345e-04 DIIS
   @DF-RKS iter   4:  -350.06039432485886   -6.86159e-04   1.33566e-04 DIIS
   @DF-RKS iter   5:  -350.06061584055220   -2.21516e-04   2.59327e-05 DIIS
   @DF-RKS iter   6:  -350.06062403086736   -8.19032e-06   1.31754e-05 DIIS
   @DF-RKS iter   7:  -350.06062631101008   -2.28014e-06   1.44833e-06 DIIS
   @DF-RKS iter   8:  -350.06062636759378   -5.65837e-08   6.66166e-07 DIIS
   @DF-RKS iter   9:  -350.06062637514043   -7.54665e-09   2.26848e-07 DIIS
   @DF-RKS iter  10:  -350.06062637664201   -1.50158e-09   8.02276e-08 DIIS
   @DF-RKS iter  11:  -350.06062637683715   -1.95143e-10   3.93256e-08 DIIS
   @DF-RKS iter  12:  -350.06062637688899   -5.18412e-11   9.56811e-09 DIIS
  Energy and wave function converged.


  ==> Post-Iterations <==

    Orbital Energies [Eh]
    ---------------------

    Doubly Occupied:                                                      

       1A    -10.306974     2A    -10.292821     3A    -10.292454  
       4A    -10.291205     5A    -10.291042     6A    -10.290919  
       7A    -10.289774     8A    -10.286732     9A    -10.275031  
      10A     -0.957210    11A     -0.895215    12A     -0.848129  
      13A     -0.843493    14A     -0.778025    15A     -0.711518  
      16A     -0.691052    17A     -0.667175    18A     -0.604604  
      19A     -0.555845    20A     -0.546122    21A     -0.540247  
      22A     -0.517811    23A     -0.507478    24A     -0.487190  
      25A     -0.484598    26A     -0.450680    27A     -0.443056  
      28A     -0.434699    29A     -0.416350    30A     -0.412719  
      31A     -0.407263    32A     -0.326486    33A     -0.316127  

    Virtual:                                                              

      34A      0.062299    35A      0.067580    36A      0.122808  
      37A      0.131005    38A      0.145216    39A      0.162342  
      40A      0.163669    41A      0.173599    42A      0.187792  
      43A      0.198677    44A      0.215853    45A      0.220169  
      46A      0.222982    47A      0.234640    48A      0.252221  
      49A      0.277284    50A      0.285525    51A      0.304597  
      52A      0.350567    53A      0.356449    54A      0.366491  
      55A      0.384691    56A      0.385707    57A      0.408569  
      58A      0.412265    59A      0.425650    60A      0.460280  
      61A      0.471373    62A      0.482239    63A      0.495175  
      64A      0.497359    65A      0.522216    66A      0.533463  
      67A      0.540272    68A      0.556867    69A      0.560573  
      70A      0.562857    71A      0.591031    72A      0.607721  
      73A      0.626204    74A      0.631399    75A      0.633981  
      76A      0.657231    77A      0.666247    78A      0.680789  
      79A      0.685199    80A      0.686940    81A      0.690214  
      82A      0.696640    83A      0.709640    84A      0.712675  
      85A      0.722183    86A      0.727436    87A      0.738481  
      88A      0.748055    89A      0.764767    90A      0.806755  
      91A      0.815064    92A      0.852582    93A      0.871331  
      94A      0.886025    95A      0.937093    96A      0.945875  
      97A      0.966111    98A      0.990513    99A      1.005484  
     100A      1.090054   101A      1.098518   102A      1.136850  
     103A      1.155931   104A      1.266955   105A      1.366245  
     106A      2.302172   107A      2.337421   108A      2.347555  
     109A      2.358109   110A      2.362366   111A      2.369848  
     112A      2.374172   113A      2.400504   114A      2.430968  
     115A      2.442312   116A      2.455069   117A      2.610644  
     118A      2.635903   119A      2.671920   120A      2.685424  
     121A      2.787415   122A      2.818598   123A      2.822488  
     124A      2.842939   125A      2.906065   126A      2.933299  
     127A      2.935459   128A      2.947363   129A      2.982174  
     130A      3.000591   131A      3.030506   132A      3.063804  
     133A      3.066491   134A      3.103659   135A      3.162969  
     136A      3.207653   137A      3.217836   138A      3.238819  
     139A      3.269242   140A      3.305756   141A      3.345877  
     142A      3.356238   143A      3.358128   144A      3.527675  
     145A     23.251909   146A     23.478335   147A     23.482842  
     148A     23.520029   149A     23.644192   150A     23.704840  
     151A     23.754482   152A     23.769434   153A     23.989785  

    Final Occupation by Irrep:
              A 
    DOCC [    33 ]

  @DF-RKS Final Energy:  -350.06062637688899

   => Energetics <=

    Nuclear Repulsion Energy =            405.3832551126090493
    One-Electron Energy =               -1273.3758416247819696
    Two-Electron Energy =                 554.2569109941453007
    DFT Exchange-Correlation Energy =     -36.3134427142211678
    Empirical Dispersion Energy =          -0.0115081446401304
    VV10 Nonlocal Energy =                  0.0000000000000000
    Total Energy =                       -350.0606263768889335

Computation Completed


Properties will be evaluated at   0.000000,   0.000000,   0.000000 [a0]

Properties computed using the SCF density matrix

  Nuclear Dipole Moment: [e a0]
     X:   -10.0467      Y:    -2.1177      Z:     0.0385

  Electronic Dipole Moment: [e a0]
     X:     9.8595      Y:     2.0962      Z:    -0.0135

  Dipole Moment: [e a0]
     X:    -0.1872      Y:    -0.0215      Z:     0.0250     Total:     0.1901

  Dipole Moment: [D]
     X:    -0.4759      Y:    -0.0546      Z:     0.0634     Total:     0.4832


*** tstop() called on daniele-Precision-5750 at Wed Jun  2 00:32:43 2021
Module time:
	user time   =      78.43 seconds =       1.31 minutes
	system time =       2.28 seconds =       0.04 minutes
	total time  =         11 seconds =       0.18 minutes
Total time:
	user time   =      78.43 seconds =       1.31 minutes
	system time =       2.28 seconds =       0.04 minutes
	total time  =         11 seconds =       0.18 minutes

*** tstart() called on daniele-Precision-5750
*** at Wed Jun  2 00:32:43 2021


         ------------------------------------------------------------
                                   SCF GRAD                          
                          Rob Parrish, Justin Turney,                
                       Andy Simmonett, and Alex Sokolov              
         ------------------------------------------------------------

  ==> Geometry <==

    Molecular point group: c1
    Full point group: C1

    Geometry (in Angstrom), charge = 0, multiplicity = 1:

       Center              X                  Y                   Z               Mass       
    ------------   -----------------  -----------------  -----------------  -----------------
         C           -1.438358828770    -0.108536954941     0.652434283190    12.000000000000
         C           -2.381870828770    -0.678562954941    -0.447110716810    12.000000000000
         C            0.051381171230     0.075883045059     0.277817283190    12.000000000000
         C           -3.846153828770    -0.823543954941     0.014598283190    12.000000000000
         C            0.929601171230     0.666331045059     1.220954283190    12.000000000000
         C            0.574235171230    -0.273857954941    -0.993760716810    12.000000000000
         C            2.287055171230     0.879066045059     0.914936283190    12.000000000000
         C            1.933403171230    -0.060861954941    -1.298466716810    12.000000000000
         C            2.790765171230     0.513803045059    -0.344847716810    12.000000000000
         H           -1.487973828770    -0.762213954941     1.533760283190     1.007825032230
         H           -1.830458828770     0.862235045059     0.985200283190     1.007825032230
         H           -2.340868828770    -0.026909954941    -1.330181716810     1.007825032230
         H           -2.005580828770    -1.657535954941    -0.772299716810     1.007825032230
         H           -4.266293828770     0.144130045059     0.308759283190     1.007825032230
         H           -4.468594828770    -1.226968954941    -0.791169716810     1.007825032230
         H           -3.925652828770    -1.502274954941     0.870500283190     1.007825032230
         H            0.558128171230     0.961461045059     2.201527283190     1.007825032230
         H           -0.057439828770    -0.715250954941    -1.761267716810     1.007825032230
         H            2.947192171230     1.327671045059     1.654922283190     1.007825032230
         H            2.320847171230    -0.341449954941    -2.276396716810     1.007825032230
         H            3.839865171230     0.678151045059    -0.582329716810     1.007825032230

  Nuclear repulsion =  405.383255112609049

  ==> Basis Set <==

  Basis Set: 6-311G
    Blend: 6-311G
    Number of shells: 99
    Number of basis function: 153
    Number of Cartesian functions: 153
    Spherical Harmonics?: true
    Max angular momentum: 1

  ==> DFJKGrad: Density-Fitted SCF Gradients <==

    Gradient:                    1
    J tasked:                  Yes
    K tasked:                  Yes
    wK tasked:                 Yes
    Omega:               2.000E-01
    OpenMP threads:              8
    Integrals threads:           8
    Memory [MiB]:              500
    Schwarz Cutoff:          0E+00
    Fitting Condition:       1E-10

   => Auxiliary Basis Set <=

  Basis Set: (6-311G AUX)
    Blend: CC-PVTZ-JKFIT
    Number of shells: 345
    Number of basis function: 1071
    Number of Cartesian functions: 1284
    Spherical Harmonics?: true
    Max angular momentum: 4

  ==> DFT Potential <==

   => Composite Functional: WB97X-D <= 

    wB97X-D Hyb-GGA Exchange-Correlation Functional

    J.-D. Chai and M. Head-Gordon, Phys. Chem. Chem. Phys. 10, 6615 (2008)

    Deriv               =              1
    GGA                 =           TRUE
    Meta                =          FALSE

    Exchange Hybrid     =           TRUE
    MP2 Hybrid          =          FALSE

   => Exchange-Correlation Functionals <=

    1.0000   wB97D range-separated functional

   => Exact (HF) Exchange <=

    0.7780            HF,LR [omega = 0.2000]
    0.2220               HF 

   => Molecular Quadrature <=

    Radial Scheme          =       TREUTLER
    Pruning Scheme         =           FLAT
    Nuclear Scheme         =       TREUTLER

    BS radius alpha        =              1
    Pruning alpha          =              1
    Radial Points          =             75
    Spherical Points       =            302
    Total Points           =         470003
    Total Blocks           =           3502
    Max Points             =            256
    Max Functions          =            141


  -Total Gradient:
     Atom            X                  Y                   Z
    ------   -----------------  -----------------  -----------------
       1       -0.003711553926     0.002353680366     0.004896945116
       2       -0.006930192753    -0.002401926458    -0.003146808642
       3        0.000894928552    -0.003175135371     0.006439741496
       4       -0.004452797465    -0.000832942208     0.000221346714
       5       -0.004803349038     0.003821372621     0.008866950749
       6       -0.005021031638    -0.003113895786    -0.008869417592
       7        0.007920971302     0.004004785273     0.004639566317
       8        0.002924225692    -0.002781017509    -0.009519303498
       9        0.006110370350     0.001560976532     0.000263019318
      10        0.000327071923    -0.000048201726     0.001847661622
      11       -0.000721083147     0.001355191885     0.001637837840
      12        0.000261015693     0.000790665253    -0.002470429858
      13        0.000932137699    -0.001802102973    -0.001410026289
      14       -0.001063983593     0.001466949554     0.000161244550
      15       -0.001745644245    -0.000893487460    -0.001672582427
      16       -0.000444763666    -0.001402439046     0.001154999124
      17        0.000314079983     0.001731061676     0.004036980108
      18       -0.000209117979    -0.001757058184    -0.004835602171
      19        0.003097269916     0.001657123217     0.002802611255
      20        0.002222738964    -0.001144869706    -0.004002101605
      21        0.004219599346     0.000682399977    -0.000945258034


*** tstop() called on daniele-Precision-5750 at Wed Jun  2 00:32:47 2021
Module time:
	user time   =      36.70 seconds =       0.61 minutes
	system time =       0.46 seconds =       0.01 minutes
	total time  =          4 seconds =       0.07 minutes
Total time:
	user time   =     115.14 seconds =       1.92 minutes
	system time =       2.74 seconds =       0.05 minutes
	total time  =         15 seconds =       0.25 minutes

			-----------------------------------------
			 OPTKING 2.0: for geometry optimizations 
			  - R.A. King,  Bethel University        
			-----------------------------------------
	At level 1: Red. Int., RFO, no backsteps, dynamic trust

	Internal coordinates to be generated automatically.
	Detected frag 1 with atoms:  1 2 3 4 5 6 7 8 9 10 11 12 13 14 15 16 17 18 19 20
	 21
	---Fragment 1 Bond Connectivity---
	 1 : 2 3 10 11
	 2 : 1 4 12 13
	 3 : 1 5 6
	 4 : 2 14 15 16
	 5 : 3 7 17
	 6 : 3 8 18
	 7 : 5 9 19
	 8 : 6 9 20
	 9 : 7 8 21
	 10 : 1
	 11 : 1
	 12 : 2
	 13 : 2
	 14 : 4
	 15 : 4
	 16 : 4
	 17 : 5
	 18 : 6
	 19 : 7
	 20 : 8
	 21 : 9

	Assuming in current code that numbering for constraints corresponds to unified fragment.
	Frozen dihedral atom list: 
	     2     1     3     5
	     2     1     3     6
	     4     2     1     3
	     1     2     4    14
	---Fragment 1 Geometry and Gradient---
	 C          -2.7181042565       -0.2051051193        1.2329221101
	 C          -4.5010835326       -1.2822981437       -0.8449168025
	 C           0.0970963416        0.1433981727        0.5249985781
	 C          -7.2681773728       -1.5562725271        0.0275867571
	 C           1.7566916195        1.2591831841        2.3072692069
	 C           1.0851472052       -0.5175165321       -1.8779355890
	 C           4.3219079074        1.6611940714        1.7289789975
	 C           3.6536024837       -0.1150124263       -2.4537464778
	 C           5.2737818541        0.9709470376       -0.6516677398
	 H          -2.8118630182       -1.4403756238        2.8983868773
	 H          -3.4590658703        1.6293880909        1.8617587140
	 H          -4.4236009820       -0.0508524449       -2.5136791419
	 H          -3.7899984888       -3.1322889979       -1.4594349515
	 H          -8.0621269071        0.2723663116        0.5834704839
	 H          -8.4444203920       -2.3186352893       -1.4950940835
	 H          -7.4184087100       -2.8388882300        1.6450071274
	 H           1.0547093865        1.8168980555        4.1602836230
	 H          -0.1085455451       -1.3516284158       -3.3283136184
	 H           5.5693860427        2.5089346599        3.1273498741
	 H           4.3857655327       -0.6452469004       -4.3017663477
	 H           7.2562935323        1.2815197469       -1.1004436795
	            -0.0037115539        0.0023536804        0.0048969451
	            -0.0069301928       -0.0024019265       -0.0031468086
	             0.0008949286       -0.0031751354        0.0064397415
	            -0.0044527975       -0.0008329422        0.0002213467
	            -0.0048033490        0.0038213726        0.0088669507
	            -0.0050210316       -0.0031138958       -0.0088694176
	             0.0079209713        0.0040047853        0.0046395663
	             0.0029242257       -0.0027810175       -0.0095193035
	             0.0061103703        0.0015609765        0.0002630193
	             0.0003270719       -0.0000482017        0.0018476616
	            -0.0007210831        0.0013551919        0.0016378378
	             0.0002610157        0.0007906653       -0.0024704299
	             0.0009321377       -0.0018021030       -0.0014100263
	            -0.0010639836        0.0014669496        0.0001612446
	            -0.0017456442       -0.0008934875       -0.0016725824
	            -0.0004447637       -0.0014024390        0.0011549991
	             0.0003140800        0.0017310617        0.0040369801
	            -0.0002091180       -0.0017570582       -0.0048356022
	             0.0030972699        0.0016571232        0.0028026113
	             0.0022227390       -0.0011448697       -0.0040021016
	             0.0042195993        0.0006824000       -0.0009452580

	Previous optimization step data not found.  Starting new optimization.

	---Fragment 1 Intrafragment Coordinates---
	 - Coordinate -           - BOHR/RAD -       - ANG/DEG -
	 R(1,2)           =         2.942240	       1.556966
	 R(1,3)           =         2.923690	       1.547150
	 R(1,10)          =         2.075682	       1.098404
	 R(1,11)          =         2.076012	       1.098578
	 R(2,4)           =         2.914298	       1.542180
	 R(2,12)          =         2.075387	       1.098247
	 R(2,13)          =         2.075028	       1.098057
	 R(3,5)           =         2.678754	       1.417535
	 R(3,6)           =         2.680885	       1.418663
	 R(4,14)          =         2.069609	       1.095190
	 R(4,15)          =         2.069614	       1.095192
	 R(4,16)          =         2.069715	       1.095246
	 R(5,7)           =         2.660144	       1.407688
	 R(5,17)          =         2.058516	       1.089320
	 R(6,8)           =         2.662805	       1.409096
	 R(6,18)          =         2.055296	       1.087616
	 R(7,9)           =         2.655181	       1.405061
	 R(7,19)          =         2.056771	       1.088396
	 R(8,9)           =         2.655518	       1.405240
	 R(8,20)          =         2.057277	       1.088664
	 R(9,21)          =         2.056261	       1.088126
	 B(1,2,4)         =         1.980538	     113.476491
	 B(1,2,12)        =         1.904965	     109.146468
	 B(1,2,13)        =         1.904861	     109.140493
	 B(1,3,5)         =         2.077275	     119.019096
	 B(1,3,6)         =         2.144232	     122.855439
	 B(2,1,3)         =         2.044461	     117.138998
	 B(2,1,10)        =         1.897992	     108.746951
	 B(2,1,11)        =         1.897737	     108.732299
	 B(2,4,14)        =         1.940774	     111.198163
	 B(2,4,15)        =         1.932633	     110.731735
	 B(2,4,16)        =         1.940287	     111.170232
	 B(3,1,10)        =         1.884635	     107.981642
	 B(3,1,11)        =         1.887760	     108.160695
	 B(3,5,7)         =         2.112669	     121.047045
	 B(3,5,17)        =         2.094967	     120.032739
	 B(3,6,8)         =         2.108369	     120.800672
	 B(3,6,18)        =         2.115907	     121.232529
	 B(4,2,12)        =         1.909176	     109.387733
	 B(4,2,13)        =         1.907339	     109.282485
	 B(5,3,6)         =         2.060889	     118.080229
	 B(5,7,9)         =         2.095932	     120.088077
	 B(5,7,19)        =         2.093664	     119.958102
	 B(6,8,9)         =         2.098522	     120.236447
	 B(6,8,20)        =         2.092742	     119.905273
	 B(7,5,17)        =         2.075547	     118.920072
	 B(7,9,8)         =         2.089823	     119.738053
	 B(7,9,21)        =         2.096773	     120.136232
	 B(8,6,18)        =         2.058907	     117.966663
	 B(8,9,21)        =         2.096584	     120.125427
	 B(9,7,19)        =         2.093589	     119.953810
	 B(9,8,20)        =         2.091921	     119.858251
	 B(10,1,11)       =         1.840781	     105.468966
	 B(12,2,13)       =         1.852599	     106.146124
	 B(14,4,15)       =         1.880793	     107.761507
	 B(14,4,16)       =         1.885788	     108.047716
	 B(15,4,16)       =         1.881180	     107.783686
	*D(1,2,4,14)      =         1.051021	      60.219055
	 D(1,2,4,15)      =         3.141547	     179.997375
	 D(1,2,4,16)      =        -1.050946	     -60.214774
	 D(1,3,5,7)       =        -3.119049	    -178.708327
	 D(1,3,5,17)      =         0.024977	       1.431090
	 D(1,3,6,8)       =         3.117798	     178.636675
	 D(1,3,6,18)      =        -0.026186	      -1.500363
	*D(2,1,3,5)       =         3.076268	     176.257194
	*D(2,1,3,6)       =        -0.021776	      -1.247680
	*D(3,1,2,4)       =        -3.138578	    -179.827281
	 D(3,1,2,12)      =        -1.004572	     -57.557750
	 D(3,1,2,13)      =         1.013042	      58.043006
	 D(3,5,7,9)       =         0.007932	       0.454458
	 D(3,5,7,19)      =        -3.134345	    -179.584736
	 D(3,6,8,9)       =        -0.008897	      -0.509761
	 D(3,6,8,20)      =         3.133764	     179.551442
	 D(4,2,1,10)      =         1.003006	      57.467984
	 D(4,2,1,11)      =        -0.992994	     -56.894339
	 D(5,3,1,10)      =        -1.058461	     -60.645375
	 D(5,3,1,11)      =         0.925575	      53.031542
	 D(5,3,6,8)       =         0.019367	       1.109641
	 D(5,3,6,18)      =        -3.124618	    -179.027398
	 D(5,7,9,8)       =         0.003099	       0.177563
	 D(5,7,9,21)      =         3.141287	     179.982507
	 D(6,3,1,10)      =         2.126679	     121.849751
	 D(6,3,1,11)      =        -2.172469	    -124.473332
	 D(6,3,5,7)       =        -0.018918	      -1.083907
	 D(6,3,5,17)      =         3.125108	     179.055510
	 D(6,8,9,7)       =        -0.002608	      -0.149454
	 D(6,8,9,21)      =        -3.140797	    -179.954419
	 D(7,9,8,20)      =         3.137916	     179.789372
	 D(8,9,7,19)      =        -3.137810	    -179.783245
	 D(9,7,5,17)      =        -3.136068	    -179.683437
	 D(9,8,6,18)      =         3.135011	     179.622910
	 D(10,1,2,12)     =         3.137011	     179.737515
	 D(10,1,2,13)     =        -1.128560	     -64.661729
	 D(11,1,2,12)     =         1.141012	      65.375192
	 D(11,1,2,13)     =        -3.124559	    -179.024052
	 D(12,2,4,14)     =        -1.080648	     -61.916569
	 D(12,2,4,15)     =         1.009878	      57.861752
	 D(12,2,4,16)     =         3.100570	     177.649602
	 D(13,2,4,14)     =        -3.101976	    -177.730138
	 D(13,2,4,15)     =        -1.011450	     -57.951818
	 D(13,2,4,16)     =         1.079242	      61.836033
	 D(17,5,7,19)     =         0.004841	       0.277370
	 D(18,6,8,20)     =        -0.005513	      -0.315887
	 D(19,7,9,21)     =         0.000379	       0.021699
	 D(20,8,9,21)     =        -0.000272	      -0.015593

	Current energy   :      -350.0606263769

	Generating empirical Hessian (Schlegel '84) for each fragment.
	Taking RFO optimization step.
	Going to follow RFO solution 1.
	Using RFO vector 1.
	Norm of target step-size    0.14502
	Projected energy change by RFO approximation:        -0.0060947757

	Back-transformation to cartesian coordinates...
	Could not converge backtransformation.
	Using first guess instead.

	Back-transformation to cartesian coordinates to adjust frozen coordinates...
	Successfully converged to displaced geometry.

	--- Internal Coordinate Step in ANG or DEG, aJ/ANG or AJ/DEG ---
	 ---------------------------------------------------------------------------
	   Coordinate                Previous        Force       Change         New 
	   ----------                --------       ------       ------       ------
	    1 R(1,2)          =      1.556966    -0.124777    -0.028372     1.528594
	    2 R(1,3)          =      1.547150    -0.143365    -0.032290     1.514860
	    3 R(1,10)         =      1.098404    -0.012301    -0.002185     1.096219
	    4 R(1,11)         =      1.098578    -0.016057    -0.002908     1.095670
	    5 R(2,4)          =      1.542180    -0.061322    -0.013608     1.528572
	    6 R(2,12)         =      1.098247    -0.020345    -0.003723     1.094525
	    7 R(2,13)         =      1.098057    -0.019345    -0.003550     1.094508
	    8 R(3,5)          =      1.417535    -0.133867    -0.020023     1.397512
	    9 R(3,6)          =      1.418663    -0.160247    -0.023999     1.394664
	   10 R(4,14)         =      1.095190    -0.014364    -0.002642     1.092548
	   11 R(4,15)         =      1.095192    -0.021131    -0.003894     1.091298
	   12 R(4,16)         =      1.095246    -0.014812    -0.002715     1.092532
	   13 R(5,7)          =      1.407688    -0.120844    -0.017221     1.390466
	   14 R(5,17)         =      1.089320    -0.032923    -0.005920     1.083400
	   15 R(6,8)          =      1.409096    -0.106417    -0.015253     1.393843
	   16 R(6,18)         =      1.087616    -0.035033    -0.005930     1.081685
	   17 R(7,9)          =      1.405061    -0.090345    -0.012512     1.392549
	   18 R(7,19)         =      1.088396    -0.036758    -0.006625     1.081771
	   19 R(8,9)          =      1.405240    -0.106023    -0.014707     1.390533
	   20 R(8,20)         =      1.088664    -0.038563    -0.006874     1.081791
	   21 R(9,21)         =      1.088126    -0.036018    -0.006465     1.081661
	   22 B(1,2,4)        =    113.476491    -0.000412    -1.633391   111.843100
	   23 B(1,2,12)       =    109.146468     0.000113     0.233506   109.379974
	   24 B(1,2,13)       =    109.140493     0.000115     0.265684   109.406177
	   25 B(1,3,5)        =    119.019096    -0.000013     0.006310   119.025406
	   26 B(1,3,6)        =    122.855439    -0.000120    -0.311933   122.543506
	   27 B(2,1,3)        =    117.138998    -0.000454    -1.761608   115.377390
	   28 B(2,1,10)       =    108.746951     0.000074     0.079057   108.826008
	   29 B(2,1,11)       =    108.732299     0.000107     0.166064   108.898363
	   30 B(2,4,14)       =    111.198163    -0.000028    -0.158706   111.039457
	   31 B(2,4,15)       =    110.731735    -0.000023    -0.029651   110.702085
	   32 B(2,4,16)       =    111.170232    -0.000020    -0.131389   111.038842
	   33 B(3,1,10)       =    107.981642     0.000182     0.667085   108.648728
	   34 B(3,1,11)       =    108.160695     0.000139     0.287425   108.448120
	   35 B(3,5,7)        =    121.047045     0.000010    -0.006376   121.040669
	   36 B(3,5,17)       =    120.032739    -0.000149    -0.654567   119.378172
	   37 B(3,6,8)        =    120.800672     0.000001    -0.057920   120.742752
	   38 B(3,6,18)       =    121.232529    -0.000228    -1.004263   120.228266
	   39 B(4,2,12)       =    109.387733     0.000128     0.344192   109.731925
	   40 B(4,2,13)       =    109.282485     0.000110     0.248778   109.531263
	   41 B(5,3,6)        =    118.080229     0.000133     0.305337   118.385566
	   42 B(5,7,9)        =    120.088077    -0.000018     0.012007   120.100084
	   43 B(5,7,19)       =    119.958102    -0.000026    -0.167659   119.790443
	   44 B(6,8,9)        =    120.236447     0.000019     0.118104   120.354551
	   45 B(6,8,20)       =    119.905273    -0.000055    -0.263227   119.642047
	   46 B(7,5,17)       =    118.920072     0.000139     0.660913   119.580985
	   47 B(7,9,8)        =    119.738053    -0.000145    -0.370695   119.367357
	   48 B(7,9,21)       =    120.136232     0.000074     0.190558   120.326789
	   49 B(8,6,18)       =    117.966663     0.000227     1.062096   119.028758
	   50 B(8,9,21)       =    120.125427     0.000071     0.179936   120.305364
	   51 B(9,7,19)       =    119.953810     0.000044     0.155106   120.108916
	   52 B(9,8,20)       =    119.858251     0.000036     0.144812   120.003063
	   53 B(10,1,11)      =    105.468966    -0.000007     0.793335   106.262301
	   54 B(12,2,13)      =    106.146124    -0.000029     0.671536   106.817660
	   55 B(14,4,15)      =    107.761507     0.000031     0.215834   107.977340
	   56 B(14,4,16)      =    108.047716     0.000011    -0.089582   107.958134
	   57 B(15,4,16)      =    107.783686     0.000033     0.212379   107.996065
	   58 *D(1,2,4,14)    =     60.219055     0.000000     0.000000    60.219055
	   59 D(1,2,4,15)     =    179.997375     0.000001     0.147427   180.144802
	   60 D(1,2,4,16)     =    -60.214774     0.000004     0.308459   -59.906315
	   61 D(1,3,5,7)      =   -178.708327     0.000001     0.020843  -178.687484
	   62 D(1,3,5,17)     =      1.431090     0.000001     0.033954     1.465044
	   63 D(1,3,6,8)      =    178.636675    -0.000001    -0.043629   178.593046
	   64 D(1,3,6,18)     =     -1.500363    -0.000001    -0.080470    -1.580834
	   65 *D(2,1,3,5)     =    176.257194    -0.000000     0.000000   176.257194
	   66 *D(2,1,3,6)     =     -1.247680    -0.000000    -0.000000    -1.247680
	   67 *D(3,1,2,4)     =   -179.827281     0.000000     0.000000  -179.827281
	   68 D(3,1,2,12)     =    -57.557750    -0.000008    -0.494643   -58.052393
	   69 D(3,1,2,13)     =     58.043006     0.000013     0.590397    58.633402
	   70 D(3,5,7,9)      =      0.454458     0.000000     0.028712     0.483170
	   71 D(3,5,7,19)     =   -179.584736    -0.000001    -0.203450  -179.788185
	   72 D(3,6,8,9)      =     -0.509761     0.000000     0.031347    -0.478415
	   73 D(3,6,8,20)     =    179.551442     0.000001     0.182003   179.733444
	   74 D(4,2,1,10)     =     57.467984     0.000006     0.317209    57.785193
	   75 D(4,2,1,11)     =    -56.894339    -0.000014    -0.752322   -57.646661
	   76 D(5,3,1,10)     =    -60.645375    -0.000018    -0.615276   -61.260651
	   77 D(5,3,1,11)     =     53.031542     0.000017     0.804339    53.835882
	   78 D(5,3,6,8)      =      1.109641     0.000000    -0.036690     1.072950
	   79 D(5,3,6,18)     =   -179.027398    -0.000000    -0.073531  -179.100930
	   80 D(5,7,9,8)      =      0.177563    -0.000000    -0.039930     0.137634
	   81 D(5,7,9,21)     =    179.982507    -0.000001    -0.098595   179.883912
	   82 D(6,3,1,10)     =    121.849751    -0.000018    -0.615276   121.234475
	   83 D(6,3,1,11)     =   -124.473332     0.000017     0.804339  -123.668993
	   84 D(6,3,5,7)      =     -1.083907    -0.000001     0.005686    -1.078221
	   85 D(6,3,5,17)     =    179.055510    -0.000001     0.018797   179.074307
	   86 D(6,8,9,7)      =     -0.149454     0.000000     0.009542    -0.139912
	   87 D(6,8,9,21)     =   -179.954419     0.000000     0.068174  -179.886245
	   88 D(7,9,8,20)     =    179.789372    -0.000001    -0.141909   179.647463
	   89 D(8,9,7,19)     =   -179.783245     0.000001     0.193104  -179.590140
	   90 D(9,7,5,17)     =   -179.683437     0.000000     0.013773  -179.669663
	   91 D(9,8,6,18)     =    179.622910     0.000001     0.070497   179.693407
	   92 D(10,1,2,12)    =    179.737515    -0.000002    -0.177433   179.560081
	   93 D(10,1,2,13)    =    -64.661729     0.000019     0.907606   -63.754123
	   94 D(11,1,2,12)    =     65.375192    -0.000022    -1.246965    64.128227
	   95 D(11,1,2,13)    =   -179.024052    -0.000001    -0.161925  -179.185978
	   96 D(12,2,4,14)    =    -61.916569     0.000010     0.563368   -61.353200
	   97 D(12,2,4,15)    =     57.861752     0.000011     0.710795    58.572547
	   98 D(12,2,4,16)    =    177.649602     0.000014     0.871827   178.521429
	   99 D(13,2,4,14)    =   -177.730138    -0.000012    -0.583640  -178.313778
	  100 D(13,2,4,15)    =    -57.951818    -0.000011    -0.436214   -58.388031
	  101 D(13,2,4,16)    =     61.836033    -0.000008    -0.275181    61.560852
	  102 D(17,5,7,19)    =      0.277370    -0.000002    -0.218389     0.058981
	  103 D(18,6,8,20)    =     -0.315887     0.000002     0.221153    -0.094734
	  104 D(19,7,9,21)    =      0.021699     0.000001     0.134439     0.156138
	  105 D(20,8,9,21)    =     -0.015593    -0.000001    -0.083278    -0.098871
	 ---------------------------------------------------------------------------
	Successfully symmetrized geometry.

  ==> Convergence Check <==

  Measures of convergence in internal coordinates in au.
  Criteria marked as inactive (o), active & met (*), and active & unmet ( ).
  --------------------------------------------------------------------------------------------- ~
   Step     Total Energy     Delta E     MAX Force     RMS Force      MAX Disp      RMS Disp    ~
  --------------------------------------------------------------------------------------------- ~
    Convergence Criteria             o    2.50e-03 *    1.70e-03 *    1.00e-02 *    6.70e-03 *  ~
  --------------------------------------------------------------------------------------------- ~
      1    -350.06062638   -3.50e+02 o    1.95e-02      4.53e-03      6.10e-02      1.41e-02    ~
  ---------------------------------------------------------------------------------------------

	Writing optimization data to binary file.
	Structure for next step:
	Cartesian Geometry (in Angstrom)
	    C    -1.4265352795  -0.1058543343   0.6541464599
	    C    -2.3202160927  -0.6668769194  -0.4518319292
	    C     0.0312251091   0.0728016402   0.2829068629
	    C    -3.7712370083  -0.8098268146   0.0071195079
	    C     0.9006897378   0.6540094716   1.2098744299
	    C     0.5341128262  -0.2742165028  -0.9707955180
	    C     2.2407404178   0.8626586431   0.9030736359
	    C     1.8767603679  -0.0666966008  -1.2822929114
	    C     2.7354877273   0.5006931392  -0.3472855262
	    H    -1.4875609148  -0.7659461704   1.5272159312
	    H    -1.8241698082   0.8636775241   0.9741274040
	    H    -2.2721301483  -0.0098977101  -1.3259318252
	    H    -1.9385426845  -1.6427994860  -0.7678187227
	    H    -4.1868699078   0.1570217055   0.3005727479
	    H    -4.3915030523  -1.2136775989  -0.7948198951
	    H    -3.8470098359  -1.4831667961   0.8641474225
	    H     0.5234972693   0.9437227545   2.1832950271
	    H    -0.1159391850  -0.7125155017  -1.7160267754
	    H     2.8966684770   1.3110724416   1.6371797075
	    H     2.2488919967  -0.3464845196  -2.2587700101
	    H     3.7768666226   0.6630645894  -0.5905070763
			--------------------------
			 OPTKING Finished Execution 
			--------------------------

    Structure for next step:
    Molecular point group: c1
    Full point group: C1

    Geometry (in Angstrom), charge = 0, multiplicity = 1:

    C           -1.417471110002    -0.103746614705     0.653381230720
    C           -2.311151926686    -0.664769202018    -0.452597162810
    C            0.040289284323     0.074909360489     0.282141632185
    C           -3.762172847985    -0.807719097732     0.006354276086
    C            0.909753916484     0.656117194188     1.209109202821
    C            0.543177003436    -0.272108783895    -0.971560753656
    C            2.249804601694     0.864766366546     0.902308407704
    C            1.885824550386    -0.064588881048    -1.283058148274
    C            2.744551913226     0.502800861132    -0.348050759332
    H           -1.478496745482    -0.763838453397     1.526450705368
    H           -1.815105640213     0.865785247458     0.973362175997
    H           -2.263065982070    -0.007789990151    -1.326697062236
    H           -1.929478517030    -1.640691772453    -0.768583957470
    H           -4.177805749104     0.159129426147     0.299807517336
    H           -4.382438894402    -1.211569883677    -0.795585130061
    H           -3.837945675921    -1.481059081891     0.863382194101
    H            0.532561446514     0.945830478193     2.182529803873
    H           -0.106875010336    -0.710407784532    -1.716792013978
    H            2.905732663473     1.313180166744     1.636414482135
    H            2.257956180679    -0.344376800965    -2.259535250746
    H            3.785930812538     0.665172312064    -0.591272310424

gradient() will perform analytic gradient computation.

*** tstart() called on daniele-Precision-5750
*** at Wed Jun  2 00:32:47 2021

   => Loading Basis Set <=

    Name: 6-311G
    Role: ORBITAL
    Keyword: BASIS
    atoms 1-9   entry C          line    92 file /home/daniele/anaconda3/envs/poltype/share/psi4/basis/6-311g.gbs 
    atoms 10-21 entry H          line    21 file /home/daniele/anaconda3/envs/poltype/share/psi4/basis/6-311g.gbs 


         ---------------------------------------------------------
                                   SCF
               by Justin Turney, Rob Parrish, Andy Simmonett
                          and Daniel G. A. Smith
                              RKS Reference
                        8 Threads,    667 MiB Core
         ---------------------------------------------------------

  ==> Geometry <==

    Molecular point group: c1
    Full point group: C1

    Geometry (in Angstrom), charge = 0, multiplicity = 1:

       Center              X                  Y                   Z               Mass       
    ------------   -----------------  -----------------  -----------------  -----------------
         C           -1.417471110002    -0.103746614705     0.653381230720    12.000000000000
         C           -2.311151926686    -0.664769202018    -0.452597162810    12.000000000000
         C            0.040289284323     0.074909360489     0.282141632185    12.000000000000
         C           -3.762172847985    -0.807719097732     0.006354276086    12.000000000000
         C            0.909753916484     0.656117194188     1.209109202821    12.000000000000
         C            0.543177003436    -0.272108783895    -0.971560753656    12.000000000000
         C            2.249804601694     0.864766366546     0.902308407704    12.000000000000
         C            1.885824550386    -0.064588881048    -1.283058148274    12.000000000000
         C            2.744551913226     0.502800861132    -0.348050759332    12.000000000000
         H           -1.478496745482    -0.763838453397     1.526450705368     1.007825032230
         H           -1.815105640213     0.865785247458     0.973362175997     1.007825032230
         H           -2.263065982070    -0.007789990151    -1.326697062236     1.007825032230
         H           -1.929478517030    -1.640691772453    -0.768583957470     1.007825032230
         H           -4.177805749104     0.159129426147     0.299807517336     1.007825032230
         H           -4.382438894402    -1.211569883677    -0.795585130061     1.007825032230
         H           -3.837945675921    -1.481059081891     0.863382194101     1.007825032230
         H            0.532561446514     0.945830478193     2.182529803873     1.007825032230
         H           -0.106875010336    -0.710407784532    -1.716792013978     1.007825032230
         H            2.905732663473     1.313180166744     1.636414482135     1.007825032230
         H            2.257956180679    -0.344376800965    -2.259535250746     1.007825032230
         H            3.785930812538     0.665172312064    -0.591272310424     1.007825032230

  Running in c1 symmetry.

  Rotational constants: A =      0.15614  B =      0.02851  C =      0.02444 [cm^-1]
  Rotational constants: A =   4680.96654  B =    854.85224  C =    732.80010 [MHz]
  Nuclear repulsion =  411.495866721415041

  Charge       = 0
  Multiplicity = 1
  Electrons    = 66
  Nalpha       = 33
  Nbeta        = 33

  ==> Algorithm <==

  SCF Algorithm Type is DF.
  DIIS enabled.
  MOM disabled.
  Fractional occupation disabled.
  Guess Type is READ.
  Energy threshold   = 1.00e-08
  Density threshold  = 1.00e-08
  Integral threshold = 0.00e+00

  ==> Primary Basis <==

  Basis Set: 6-311G
    Blend: 6-311G
    Number of shells: 99
    Number of basis function: 153
    Number of Cartesian functions: 153
    Spherical Harmonics?: true
    Max angular momentum: 1

  ==> DFT Potential <==

   => Composite Functional: WB97X-D <= 

    wB97X-D Hyb-GGA Exchange-Correlation Functional

    J.-D. Chai and M. Head-Gordon, Phys. Chem. Chem. Phys. 10, 6615 (2008)

    Deriv               =              1
    GGA                 =           TRUE
    Meta                =          FALSE

    Exchange Hybrid     =           TRUE
    MP2 Hybrid          =          FALSE

   => Exchange-Correlation Functionals <=

    1.0000   wB97D range-separated functional

   => Exact (HF) Exchange <=

    0.7780            HF,LR [omega = 0.2000]
    0.2220               HF 

   => Molecular Quadrature <=

    Radial Scheme          =       TREUTLER
    Pruning Scheme         =           FLAT
    Nuclear Scheme         =       TREUTLER

    BS radius alpha        =              1
    Pruning alpha          =              1
    Radial Points          =             75
    Spherical Points       =            302
    Total Points           =         469973
    Total Blocks           =           3500
    Max Points             =            256
    Max Functions          =            140

   => WB97X-D: Empirical Dispersion <=

    Chai and Head-Gordon Dispersion Correction
    Chai, J.-D.; Head-Gordon, M. (2010), J. Chem. Phys., 132: 6615-6620

        s6 =       1.000000

   => Loading Basis Set <=

    Name: (6-311G AUX)
    Role: JKFIT
    Keyword: DF_BASIS_SCF
    atoms 1-9   entry C          line   125 file /home/daniele/anaconda3/envs/poltype/share/psi4/basis/cc-pvtz-jkfit.gbs 
    atoms 10-21 entry H          line    51 file /home/daniele/anaconda3/envs/poltype/share/psi4/basis/cc-pvtz-jkfit.gbs 

   => Loading Basis Set <=

    Name: 6-311G
    Role: ORBITAL
    Keyword: BASIS
    atoms 1-9   entry C          line    92 file /home/daniele/anaconda3/envs/poltype/share/psi4/basis/6-311g.gbs 
    atoms 10-21 entry H          line    21 file /home/daniele/anaconda3/envs/poltype/share/psi4/basis/6-311g.gbs 

  Reading orbitals from file 180, no projection.

  ==> Pre-Iterations <==

   -------------------------------------------------------
    Irrep   Nso     Nmo     Nalpha   Nbeta   Ndocc  Nsocc
   -------------------------------------------------------
     A        153     153       0       0       0       0
   -------------------------------------------------------
    Total     153     153      33      33      33       0
   -------------------------------------------------------

  ==> Integral Setup <==

  ==> DiskDFJK: Density-Fitted J/K Matrices <==

    J tasked:                  Yes
    K tasked:                  Yes
    wK tasked:                 Yes
    Omega:               2.000E-01
    OpenMP threads:              8
    Integrals threads:           8
    Memory [MiB]:              114
    Algorithm:                Disk
    Integral Cache:           NONE
    Schwarz Cutoff:          1E-12
    Fitting Condition:       1E-10

   => Auxiliary Basis Set <=

  Basis Set: (6-311G AUX)
    Blend: CC-PVTZ-JKFIT
    Number of shells: 345
    Number of basis function: 1071
    Number of Cartesian functions: 1284
    Spherical Harmonics?: true
    Max angular momentum: 4

  Cached 33.3% of DFT collocation blocks in 0.438 [GiB].

  Minimum eigenvalue in the overlap matrix is 2.3342582685E-04.
  Using Symmetric Orthogonalization.

  SCF Guess: Orbitals guess was supplied from a previous computation.

  ==> Iterations <==

                           Total Energy        Delta E     RMS |[F,P]|

   @DF-RKS iter   0:  -350.14144639722787   -3.50141e+02   7.19035e-04 
   @DF-RKS iter   1:  -350.06300374218006    7.84427e-02   1.12070e-04 DIIS
   @DF-RKS iter   2:  -350.06311428260966   -1.10540e-04   8.12494e-05 DIIS
   @DF-RKS iter   3:  -350.06319510804030   -8.08254e-05   7.26288e-06 DIIS
   @DF-RKS iter   4:  -350.06319590411721   -7.96077e-07   3.26659e-06 DIIS
   @DF-RKS iter   5:  -350.06319606763697   -1.63520e-07   1.24417e-06 DIIS
   @DF-RKS iter   6:  -350.06319610244338   -3.48064e-08   4.97438e-07 DIIS
   @DF-RKS iter   7:  -350.06319610894110   -6.49771e-09   1.68194e-07 DIIS
   @DF-RKS iter   8:  -350.06319611120904   -2.26794e-09   4.62757e-08 DIIS
   @DF-RKS iter   9:  -350.06319611134779   -1.38755e-10   2.42406e-08 DIIS
   @DF-RKS iter  10:  -350.06319611136286   -1.50635e-11   7.10420e-09 DIIS
  Energy and wave function converged.


  ==> Post-Iterations <==

    Orbital Energies [Eh]
    ---------------------

    Doubly Occupied:                                                      

       1A    -10.297422     2A    -10.287490     3A    -10.287150  
       4A    -10.285181     5A    -10.284895     6A    -10.284286  
       7A    -10.284189     8A    -10.281932     9A    -10.271796  
      10A     -0.966411    11A     -0.903802    12A     -0.852370  
      13A     -0.847236    14A     -0.779729    15A     -0.715410  
      16A     -0.692251    17A     -0.667319    18A     -0.609771  
      19A     -0.561935    20A     -0.547639    21A     -0.542695  
      22A     -0.521564    23A     -0.508805    24A     -0.489199  
      25A     -0.485974    26A     -0.450106    27A     -0.446105  
      28A     -0.436491    29A     -0.416857    30A     -0.413652  
      31A     -0.406271    32A     -0.328235    33A     -0.317597  

    Virtual:                                                              

      34A      0.066250    35A      0.072060    36A      0.123497  
      37A      0.132544    38A      0.145340    39A      0.161105  
      40A      0.165975    41A      0.175045    42A      0.190451  
      43A      0.201248    44A      0.218814    45A      0.222984  
      46A      0.226139    47A      0.237977    48A      0.259740  
      49A      0.285764    50A      0.295992    51A      0.315343  
      52A      0.355655    53A      0.362867    54A      0.373501  
      55A      0.385553    56A      0.388940    57A      0.415453  
      58A      0.418247    59A      0.431582    60A      0.469581  
      61A      0.480440    62A      0.481655    63A      0.500050  
      64A      0.504461    65A      0.532050    66A      0.539343  
      67A      0.540147    68A      0.557367    69A      0.561711  
      70A      0.571162    71A      0.605721    72A      0.613729  
      73A      0.634314    74A      0.636287    75A      0.641052  
      76A      0.661516    77A      0.670602    78A      0.681173  
      79A      0.689172    80A      0.690005    81A      0.694500  
      82A      0.702079    83A      0.713313    84A      0.724341  
      85A      0.726535    86A      0.740299    87A      0.741730  
      88A      0.749898    89A      0.772192    90A      0.814288  
      91A      0.821257    92A      0.858674    93A      0.882937  
      94A      0.902010    95A      0.945250    96A      0.956983  
      97A      0.977132    98A      0.997183    99A      1.018760  
     100A      1.098122   101A      1.111237   102A      1.144738  
     103A      1.162308   104A      1.276425   105A      1.373823  
     106A      2.309854   107A      2.340136   108A      2.348563  
     109A      2.363502   110A      2.371033   111A      2.372738  
     112A      2.376011   113A      2.413236   114A      2.436835  
     115A      2.444145   116A      2.465931   117A      2.624054  
     118A      2.643162   119A      2.676221   120A      2.691972  
     121A      2.767786   122A      2.802750   123A      2.823805  
     124A      2.845001   125A      2.911923   126A      2.932753  
     127A      2.935457   128A      2.939092   129A      2.988215  
     130A      3.005626   131A      3.035800   132A      3.071061  
     133A      3.076931   134A      3.129344   135A      3.186891  
     136A      3.205835   137A      3.243426   138A      3.255851  
     139A      3.288618   140A      3.323611   141A      3.364069  
     142A      3.384538   143A      3.392176   144A      3.539752  
     145A     23.251901   146A     23.480542   147A     23.488788  
     148A     23.529765   149A     23.654041   150A     23.723875  
     151A     23.777123   152A     23.803566   153A     24.027661  

    Final Occupation by Irrep:
              A 
    DOCC [    33 ]

  @DF-RKS Final Energy:  -350.06319611136286

   => Energetics <=

    Nuclear Repulsion Energy =            411.4958667214150410
    One-Electron Energy =               -1285.5254615998223926
    Two-Electron Energy =                 560.3787684947119487
    DFT Exchange-Correlation Energy =     -36.4007012941186332
    Empirical Dispersion Energy =          -0.0116684335487954
    VV10 Nonlocal Energy =                  0.0000000000000000
    Total Energy =                       -350.0631961113627995

Computation Completed


Properties will be evaluated at   0.000000,   0.000000,   0.000000 [a0]

Properties computed using the SCF density matrix

  Nuclear Dipole Moment: [e a0]
     X:    -9.8519      Y:    -2.0724      Z:     0.0220

  Electronic Dipole Moment: [e a0]
     X:     9.6698      Y:     2.0546      Z:     0.0054

  Dipole Moment: [e a0]
     X:    -0.1821      Y:    -0.0178      Z:     0.0274     Total:     0.1850

  Dipole Moment: [D]
     X:    -0.4628      Y:    -0.0452      Z:     0.0697     Total:     0.4702


*** tstop() called on daniele-Precision-5750 at Wed Jun  2 00:32:56 2021
Module time:
	user time   =      68.53 seconds =       1.14 minutes
	system time =       1.85 seconds =       0.03 minutes
	total time  =          9 seconds =       0.15 minutes
Total time:
	user time   =     185.13 seconds =       3.09 minutes
	system time =       4.64 seconds =       0.08 minutes
	total time  =         24 seconds =       0.40 minutes

*** tstart() called on daniele-Precision-5750
*** at Wed Jun  2 00:32:57 2021


         ------------------------------------------------------------
                                   SCF GRAD                          
                          Rob Parrish, Justin Turney,                
                       Andy Simmonett, and Alex Sokolov              
         ------------------------------------------------------------

  ==> Geometry <==

    Molecular point group: c1
    Full point group: C1

    Geometry (in Angstrom), charge = 0, multiplicity = 1:

       Center              X                  Y                   Z               Mass       
    ------------   -----------------  -----------------  -----------------  -----------------
         C           -1.417471110002    -0.103746614705     0.653381230720    12.000000000000
         C           -2.311151926686    -0.664769202018    -0.452597162810    12.000000000000
         C            0.040289284323     0.074909360489     0.282141632185    12.000000000000
         C           -3.762172847985    -0.807719097732     0.006354276086    12.000000000000
         C            0.909753916484     0.656117194188     1.209109202821    12.000000000000
         C            0.543177003436    -0.272108783895    -0.971560753656    12.000000000000
         C            2.249804601694     0.864766366546     0.902308407704    12.000000000000
         C            1.885824550386    -0.064588881048    -1.283058148274    12.000000000000
         C            2.744551913226     0.502800861132    -0.348050759332    12.000000000000
         H           -1.478496745482    -0.763838453397     1.526450705368     1.007825032230
         H           -1.815105640213     0.865785247458     0.973362175997     1.007825032230
         H           -2.263065982070    -0.007789990151    -1.326697062236     1.007825032230
         H           -1.929478517030    -1.640691772453    -0.768583957470     1.007825032230
         H           -4.177805749104     0.159129426147     0.299807517336     1.007825032230
         H           -4.382438894402    -1.211569883677    -0.795585130061     1.007825032230
         H           -3.837945675921    -1.481059081891     0.863382194101     1.007825032230
         H            0.532561446514     0.945830478193     2.182529803873     1.007825032230
         H           -0.106875010336    -0.710407784532    -1.716792013978     1.007825032230
         H            2.905732663473     1.313180166744     1.636414482135     1.007825032230
         H            2.257956180679    -0.344376800965    -2.259535250746     1.007825032230
         H            3.785930812538     0.665172312064    -0.591272310424     1.007825032230

  Nuclear repulsion =  411.495866721415041

  ==> Basis Set <==

  Basis Set: 6-311G
    Blend: 6-311G
    Number of shells: 99
    Number of basis function: 153
    Number of Cartesian functions: 153
    Spherical Harmonics?: true
    Max angular momentum: 1

  ==> DFJKGrad: Density-Fitted SCF Gradients <==

    Gradient:                    1
    J tasked:                  Yes
    K tasked:                  Yes
    wK tasked:                 Yes
    Omega:               2.000E-01
    OpenMP threads:              8
    Integrals threads:           8
    Memory [MiB]:              500
    Schwarz Cutoff:          0E+00
    Fitting Condition:       1E-10

   => Auxiliary Basis Set <=

  Basis Set: (6-311G AUX)
    Blend: CC-PVTZ-JKFIT
    Number of shells: 345
    Number of basis function: 1071
    Number of Cartesian functions: 1284
    Spherical Harmonics?: true
    Max angular momentum: 4

  ==> DFT Potential <==

   => Composite Functional: WB97X-D <= 

    wB97X-D Hyb-GGA Exchange-Correlation Functional

    J.-D. Chai and M. Head-Gordon, Phys. Chem. Chem. Phys. 10, 6615 (2008)

    Deriv               =              1
    GGA                 =           TRUE
    Meta                =          FALSE

    Exchange Hybrid     =           TRUE
    MP2 Hybrid          =          FALSE

   => Exchange-Correlation Functionals <=

    1.0000   wB97D range-separated functional

   => Exact (HF) Exchange <=

    0.7780            HF,LR [omega = 0.2000]
    0.2220               HF 

   => Molecular Quadrature <=

    Radial Scheme          =       TREUTLER
    Pruning Scheme         =           FLAT
    Nuclear Scheme         =       TREUTLER

    BS radius alpha        =              1
    Pruning alpha          =              1
    Radial Points          =             75
    Spherical Points       =            302
    Total Points           =         469973
    Total Blocks           =           3500
    Max Points             =            256
    Max Functions          =            140


  -Total Gradient:
     Atom            X                  Y                   Z
    ------   -----------------  -----------------  -----------------
       1       -0.001339556575     0.001517222936     0.000634497693
       2        0.000704371878    -0.000066269774    -0.001458683688
       3        0.003249633359    -0.003723799112     0.000719170047
       4        0.000913737051     0.000622394147     0.001788357610
       5       -0.003021944533     0.000180746498    -0.001950896251
       6       -0.000971866264     0.002022780398     0.001626212014
       7        0.000088031256    -0.000760350964    -0.001920157447
       8       -0.001079247665     0.000104908482     0.000956115690
       9       -0.001271996860     0.000175376264     0.001312993311
      10        0.000633591483    -0.000404075835    -0.000147189630
      11        0.000424214411     0.000355776688    -0.000402717329
      12        0.000580775119     0.000390620604    -0.000079856165
      13        0.000724881168    -0.000113559085     0.000138514680
      14        0.000129301118     0.000057107335    -0.000132500698
      15        0.000888523556     0.000012180293    -0.000556261891
      16        0.000140384338    -0.000076311499    -0.000063802882
      17        0.000382153134     0.000068395446    -0.000106105434
      18       -0.000822435480    -0.000287249057    -0.000359040948
      19       -0.000198164258    -0.000100144409    -0.000100305006
      20       -0.000030112721     0.000060329274     0.000193119987
      21        0.000038084544     0.000035408063    -0.000033262085


*** tstop() called on daniele-Precision-5750 at Wed Jun  2 00:33:01 2021
Module time:
	user time   =      36.45 seconds =       0.61 minutes
	system time =       0.41 seconds =       0.01 minutes
	total time  =          4 seconds =       0.07 minutes
Total time:
	user time   =     221.58 seconds =       3.69 minutes
	system time =       5.06 seconds =       0.08 minutes
	total time  =         29 seconds =       0.48 minutes

			-----------------------------------------
			 OPTKING 2.0: for geometry optimizations 
			  - R.A. King,  Bethel University        
			-----------------------------------------
	At level 1: Red. Int., RFO, no backsteps, dynamic trust

	Previous internal coordinate definitions found.
	---Fragment 1 Geometry and Gradient---
	 C          -2.6786321887       -0.1960526882        1.2347115816
	 C          -4.3674441758       -1.2562317285       -0.8552846829
	 C           0.0761357132        0.1415581756        0.5331704134
	 C          -7.1094763193       -1.5263678810        0.0120078415
	 C           1.7191857437        1.2398818032        2.2848852491
	 C           1.0264557741       -0.5142110779       -1.8359837387
	 C           4.2515145330        1.6341715953        1.7051157713
	 C           3.5636919209       -0.1220552959       -2.4246285033
	 C           5.1864514531        0.9501559232       -0.6577206129
	 H          -2.7939539263       -1.4434454810        2.8845737772
	 H          -3.4300525488        1.6360970012        1.8393879335
	 H          -4.2765749100       -0.0147209479       -2.5070940991
	 H          -3.6461859621       -3.1004581062       -1.4524131840
	 H          -7.8949086712        0.3007110339        0.5665540981
	 H          -8.2816092720       -2.2895352620       -1.5034380053
	 H          -7.2526662119       -2.7987960404        1.6315558884
	 H           1.0063952789        1.7873605649        4.1243835900
	 H          -0.2019644992       -1.3424761502       -3.2442667208
	 H           5.4910389278        2.4815508685        3.0923751990
	 H           4.2669187848       -0.6507778378       -4.2699027947
	 H           7.1543723656        1.2569934960       -1.1173427323
	            -0.0013395566        0.0015172229        0.0006344977
	             0.0007043719       -0.0000662698       -0.0014586837
	             0.0032496334       -0.0037237991        0.0007191700
	             0.0009137371        0.0006223941        0.0017883576
	            -0.0030219445        0.0001807465       -0.0019508963
	            -0.0009718663        0.0020227804        0.0016262120
	             0.0000880313       -0.0007603510       -0.0019201574
	            -0.0010792477        0.0001049085        0.0009561157
	            -0.0012719969        0.0001753763        0.0013129933
	             0.0006335915       -0.0004040758       -0.0001471896
	             0.0004242144        0.0003557767       -0.0004027173
	             0.0005807751        0.0003906206       -0.0000798562
	             0.0007248812       -0.0001135591        0.0001385147
	             0.0001293011        0.0000571073       -0.0001325007
	             0.0008885236        0.0000121803       -0.0005562619
	             0.0001403843       -0.0000763115       -0.0000638029
	             0.0003821531        0.0000683954       -0.0001061054
	            -0.0008224355       -0.0002872491       -0.0003590409
	            -0.0001981643       -0.0001001444       -0.0001003050
	            -0.0000301127        0.0000603293        0.0001931200
	             0.0000380845        0.0000354081       -0.0000332621

	---Fragment 1 Intrafragment Coordinates---
	 - Coordinate -           - BOHR/RAD -       - ANG/DEG -
	 R(1,2)           =         2.888624	       1.528594
	 R(1,3)           =         2.862671	       1.514860
	 R(1,10)          =         2.071553	       1.096219
	 R(1,11)          =         2.070516	       1.095670
	 R(2,4)           =         2.888583	       1.528572
	 R(2,12)          =         2.068352	       1.094525
	 R(2,13)          =         2.068320	       1.094508
	 R(3,5)           =         2.640915	       1.397512
	 R(3,6)           =         2.635533	       1.394664
	 R(4,14)          =         2.064617	       1.092548
	 R(4,15)          =         2.062255	       1.091298
	 R(4,16)          =         2.064585	       1.092532
	 R(5,7)           =         2.627601	       1.390466
	 R(5,17)          =         2.047329	       1.083400
	 R(6,8)           =         2.633981	       1.393843
	 R(6,18)          =         2.044089	       1.081685
	 R(7,9)           =         2.631536	       1.392549
	 R(7,19)          =         2.044251	       1.081771
	 R(8,9)           =         2.627727	       1.390533
	 R(8,20)          =         2.044288	       1.081791
	 R(9,21)          =         2.044044	       1.081661
	 B(1,2,4)         =         1.952030	     111.843100
	 B(1,2,12)        =         1.909041	     109.379974
	 B(1,2,13)        =         1.909498	     109.406177
	 B(1,3,5)         =         2.077385	     119.025406
	 B(1,3,6)         =         2.138788	     122.543506
	 B(2,1,3)         =         2.013715	     115.377390
	 B(2,1,10)        =         1.899372	     108.826008
	 B(2,1,11)        =         1.900635	     108.898363
	 B(2,4,14)        =         1.938004	     111.039457
	 B(2,4,15)        =         1.932116	     110.702085
	 B(2,4,16)        =         1.937993	     111.038842
	 B(3,1,10)        =         1.896278	     108.648728
	 B(3,1,11)        =         1.892777	     108.448120
	 B(3,5,7)         =         2.112558	     121.040669
	 B(3,5,17)        =         2.083542	     119.378172
	 B(3,6,8)         =         2.107359	     120.742752
	 B(3,6,18)        =         2.098379	     120.228266
	 B(4,2,12)        =         1.915183	     109.731925
	 B(4,2,13)        =         1.911681	     109.531263
	 B(5,3,6)         =         2.066218	     118.385566
	 B(5,7,9)         =         2.096142	     120.100084
	 B(5,7,19)        =         2.090738	     119.790443
	 B(6,8,9)         =         2.100583	     120.354551
	 B(6,8,20)        =         2.088148	     119.642047
	 B(7,5,17)        =         2.087082	     119.580985
	 B(7,9,8)         =         2.083353	     119.367357
	 B(7,9,21)        =         2.100099	     120.326789
	 B(8,6,18)        =         2.077444	     119.028758
	 B(8,9,21)        =         2.099725	     120.305364
	 B(9,7,19)        =         2.096296	     120.108916
	 B(9,8,20)        =         2.094449	     120.003063
	 B(10,1,11)       =         1.854627	     106.262301
	 B(12,2,13)       =         1.864320	     106.817660
	 B(14,4,15)       =         1.884560	     107.977340
	 B(14,4,16)       =         1.884225	     107.958134
	 B(15,4,16)       =         1.884887	     107.996065
	*D(1,2,4,14)      =         1.051021	      60.219055
	 D(1,2,4,15)      =        -3.139065	    -179.855198
	 D(1,2,4,16)      =        -1.045562	     -59.906315
	 D(1,3,5,7)       =        -3.118685	    -178.687484
	 D(1,3,5,17)      =         0.025570	       1.465044
	 D(1,3,6,8)       =         3.117037	     178.593046
	 D(1,3,6,18)      =        -0.027591	      -1.580834
	*D(2,1,3,5)       =         3.076268	     176.257194
	*D(2,1,3,6)       =        -0.021776	      -1.247680
	*D(3,1,2,4)       =        -3.138578	    -179.827281
	 D(3,1,2,12)      =        -1.013205	     -58.052393
	 D(3,1,2,13)      =         1.023346	      58.633402
	 D(3,5,7,9)       =         0.008433	       0.483170
	 D(3,5,7,19)      =        -3.137896	    -179.788185
	 D(3,6,8,9)       =        -0.008350	      -0.478415
	 D(3,6,8,20)      =         3.136940	     179.733444
	 D(4,2,1,10)      =         1.008542	      57.785193
	 D(4,2,1,11)      =        -1.006124	     -57.646661
	 D(5,3,1,10)      =        -1.069200	     -61.260651
	 D(5,3,1,11)      =         0.939613	      53.835882
	 D(5,3,6,8)       =         0.018727	       1.072950
	 D(5,3,6,18)      =        -3.125901	    -179.100930
	 D(5,7,9,8)       =         0.002402	       0.137634
	 D(5,7,9,21)      =         3.139567	     179.883912
	 D(6,3,1,10)      =         2.115941	     121.234475
	 D(6,3,1,11)      =        -2.158431	    -123.668993
	 D(6,3,5,7)       =        -0.018819	      -1.078221
	 D(6,3,5,17)      =         3.125436	     179.074307
	 D(6,8,9,7)       =        -0.002442	      -0.139912
	 D(6,8,9,21)      =        -3.139607	    -179.886245
	 D(7,9,8,20)      =         3.135440	     179.647463
	 D(8,9,7,19)      =        -3.134439	    -179.590140
	 D(9,7,5,17)      =        -3.135827	    -179.669663
	 D(9,8,6,18)      =         3.136242	     179.693407
	 D(10,1,2,12)     =         3.133915	     179.560081
	 D(10,1,2,13)     =        -1.112719	     -63.754123
	 D(11,1,2,12)     =         1.119249	      64.128227
	 D(11,1,2,13)     =        -3.127385	    -179.185978
	 D(12,2,4,14)     =        -1.070815	     -61.353200
	 D(12,2,4,15)     =         1.022284	      58.572547
	 D(12,2,4,16)     =         3.115787	     178.521429
	 D(13,2,4,14)     =        -3.112163	    -178.313778
	 D(13,2,4,15)     =        -1.019063	     -58.388031
	 D(13,2,4,16)     =         1.074440	      61.560852
	 D(17,5,7,19)     =         0.001029	       0.058981
	 D(18,6,8,20)     =        -0.001653	      -0.094734
	 D(19,7,9,21)     =         0.002725	       0.156138
	 D(20,8,9,21)     =        -0.001726	      -0.098871

	Current energy   :      -350.0631961114

	Energy change for the previous step:
		Projected    :        -0.0060947757
		Actual       :        -0.0025697345

	Performing BFGS update.
	Previous computed or guess Hessian on step 1.
	Steps to be used in Hessian update: 1
	Taking RFO optimization step.
	Going to follow RFO solution 1.
	Using RFO vector 1.
	Norm of target step-size    0.04646
	Projected energy change by RFO approximation:        -0.0005460662

	Back-transformation to cartesian coordinates...
	Successfully converged to displaced geometry.

	Back-transformation to cartesian coordinates to adjust frozen coordinates...
	Successfully converged to displaced geometry.

	--- Internal Coordinate Step in ANG or DEG, aJ/ANG or AJ/DEG ---
	 ---------------------------------------------------------------------------
	   Coordinate                Previous        Force       Change         New 
	   ----------                --------       ------       ------       ------
	    1 R(1,2)          =      1.528594     0.019348     0.002638     1.531232
	    2 R(1,3)          =      1.514860     0.032403     0.004982     1.519843
	    3 R(1,10)         =      1.096219    -0.000728    -0.000216     1.096003
	    4 R(1,11)         =      1.095670    -0.000359    -0.000182     1.095488
	    5 R(2,4)          =      1.528572     0.013951     0.002117     1.530689
	    6 R(2,12)         =      1.094525    -0.002680    -0.000577     1.093948
	    7 R(2,13)         =      1.094508    -0.002616    -0.000557     1.093950
	    8 R(3,5)          =      1.397512     0.030911     0.003186     1.400698
	    9 R(3,6)          =      1.394664     0.028172     0.002710     1.397373
	   10 R(4,14)         =      1.092548     0.000303    -0.000054     1.092494
	   11 R(4,15)         =      1.091298     0.000730    -0.000034     1.091265
	   12 R(4,16)         =      1.092532     0.000140    -0.000084     1.092448
	   13 R(5,7)          =      1.390466     0.006344     0.000114     1.390581
	   14 R(5,17)         =      1.083400     0.001712     0.000033     1.083433
	   15 R(6,8)          =      1.393843     0.014883     0.001242     1.395085
	   16 R(6,18)         =      1.081685    -0.007115    -0.001375     1.080311
	   17 R(7,9)          =      1.392549     0.015948     0.001374     1.393923
	   18 R(7,19)         =      1.081771     0.001939     0.000045     1.081816
	   19 R(8,9)          =      1.390533     0.006447     0.000153     1.390686
	   20 R(8,20)         =      1.081791     0.001669    -0.000019     1.081772
	   21 R(9,21)         =      1.081661    -0.000341    -0.000302     1.081360
	   22 B(1,2,4)        =    111.843100     0.000100     0.258038   112.101138
	   23 B(1,2,12)       =    109.379974     0.000003     0.141287   109.521262
	   24 B(1,2,13)       =    109.406177    -0.000004     0.170176   109.576353
	   25 B(1,3,5)        =    119.025406    -0.000081    -0.212016   118.813391
	   26 B(1,3,6)        =    122.543506     0.000236     0.572797   123.116303
	   27 B(2,1,3)        =    115.377390     0.000425     1.328122   116.705512
	   28 B(2,1,10)       =    108.826008    -0.000133    -0.374786   108.451222
	   29 B(2,1,11)       =    108.898363    -0.000130    -0.383785   108.514578
	   30 B(2,4,14)       =    111.039457    -0.000006    -0.061162   110.978296
	   31 B(2,4,15)       =    110.702085     0.000112     0.517946   111.220031
	   32 B(2,4,16)       =    111.038842    -0.000006    -0.074446   110.964397
	   33 B(3,1,10)       =    108.648728    -0.000105    -0.067239   108.581489
	   34 B(3,1,11)       =    108.448120    -0.000111    -0.137510   108.310610
	   35 B(3,5,7)        =    121.040669     0.000080     0.231564   121.272233
	   36 B(3,5,17)       =    119.378172    -0.000066    -0.243353   119.134819
	   37 B(3,6,8)        =    120.742752     0.000048     0.143754   120.886506
	   38 B(3,6,18)       =    120.228266     0.000006     0.004569   120.232835
	   39 B(4,2,12)       =    109.731925    -0.000058    -0.269343   109.462582
	   40 B(4,2,13)       =    109.531263    -0.000059    -0.272623   109.258640
	   41 B(5,3,6)        =    118.385566    -0.000155    -0.360429   118.025137
	   42 B(5,7,9)        =    120.100084    -0.000000    -0.026675   120.073409
	   43 B(5,7,19)       =    119.790443     0.000007     0.034570   119.825012
	   44 B(6,8,9)        =    120.354551     0.000023     0.048553   120.403104
	   45 B(6,8,20)       =    119.642047    -0.000014    -0.044249   119.597797
	   46 B(7,5,17)       =    119.580985    -0.000014     0.011829   119.592814
	   47 B(7,9,8)        =    119.367357     0.000006    -0.035808   119.331550
	   48 B(7,9,21)       =    120.326789    -0.000004     0.015785   120.342574
	   49 B(8,6,18)       =    119.028758    -0.000054    -0.148382   118.880377
	   50 B(8,9,21)       =    120.305364    -0.000002     0.020146   120.325510
	   51 B(9,7,19)       =    120.108916    -0.000007    -0.007883   120.101032
	   52 B(9,8,20)       =    120.003063    -0.000008    -0.004349   119.998714
	   53 B(10,1,11)      =    106.262301     0.000028    -0.522783   105.739518
	   54 B(12,2,13)      =    106.817660     0.000014    -0.041816   106.775844
	   55 B(14,4,15)      =    107.977340    -0.000052    -0.109382   107.867959
[...]
	 R(1,3)           =         2.872087	       1.519843
	 R(1,10)          =         2.071145	       1.096003
	 R(1,11)          =         2.070173	       1.095488
	 R(2,4)           =         2.892583	       1.530689
	 R(2,12)          =         2.067262	       1.093948
	 R(2,13)          =         2.067267	       1.093950
	 R(3,5)           =         2.646935	       1.400698
	 R(3,6)           =         2.640653	       1.397373
	 R(4,14)          =         2.064515	       1.092494
	 R(4,15)          =         2.062191	       1.091265
	 R(4,16)          =         2.064427	       1.092448
	 R(5,7)           =         2.627817	       1.390581
	 R(5,17)          =         2.047391	       1.083433
	 R(6,8)           =         2.636328	       1.395085
	 R(6,18)          =         2.041491	       1.080311
	 R(7,9)           =         2.634132	       1.393923
	 R(7,19)          =         2.044337	       1.081816
	 R(8,9)           =         2.628017	       1.390686
	 R(8,20)          =         2.044252	       1.081772
	 R(9,21)          =         2.043474	       1.081360
	 B(1,2,4)         =         1.956534	     112.101138
	 B(1,2,12)        =         1.911507	     109.521262
	 B(1,2,13)        =         1.912468	     109.576353
	 B(1,3,5)         =         2.073685	     118.813391
	 B(1,3,6)         =         2.148785	     123.116303
	 B(2,1,3)         =         2.036895	     116.705512
	 B(2,1,10)        =         1.892831	     108.451222
	 B(2,1,11)        =         1.893937	     108.514578
	 B(2,4,14)        =         1.936937	     110.978296
	 B(2,4,15)        =         1.941156	     111.220031
	 B(2,4,16)        =         1.936694	     110.964397
	 B(3,1,10)        =         1.895104	     108.581489
	 B(3,1,11)        =         1.890377	     108.310610
	 B(3,5,7)         =         2.116600	     121.272233
	 B(3,5,17)        =         2.079295	     119.134819
	 B(3,6,8)         =         2.109868	     120.886506
	 B(3,6,18)        =         2.098459	     120.232835
	 B(4,2,12)        =         1.910482	     109.462582
	 B(4,2,13)        =         1.906923	     109.258640
	 B(5,3,6)         =         2.059927	     118.025137
	 B(5,7,9)         =         2.095676	     120.073409
	 B(5,7,19)        =         2.091341	     119.825012
	 B(6,8,9)         =         2.101431	     120.403104
	 B(6,8,20)        =         2.087375	     119.597797
	 B(7,5,17)        =         2.087288	     119.592814
	 B(7,9,8)         =         2.082728	     119.331550
	 B(7,9,21)        =         2.100374	     120.342574
	 B(8,6,18)        =         2.074854	     118.880377
	 B(8,9,21)        =         2.100076	     120.325510
	 B(9,7,19)        =         2.096158	     120.101032
	 B(9,8,20)        =         2.094373	     119.998714
	 B(10,1,11)       =         1.845503	     105.739518
	 B(12,2,13)       =         1.863590	     106.775844
	 B(14,4,15)       =         1.882651	     107.867959
	 B(14,4,16)       =         1.881092	     107.778609
	 B(15,4,16)       =         1.882890	     107.881627
	*D(1,2,4,14)      =         1.051021	      60.219055
	 D(1,2,4,15)      =        -3.136171	    -179.689385
	 D(1,2,4,16)      =        -1.040040	     -59.589877
	 D(1,3,5,7)       =        -3.117898	    -178.642415
	 D(1,3,5,17)      =         0.026034	       1.491664
	 D(1,3,6,8)       =         3.116140	     178.541650
	 D(1,3,6,18)      =        -0.028865	      -1.653858
	*D(2,1,3,5)       =         3.076268	     176.257194
	*D(2,1,3,6)       =        -0.021776	      -1.247680
	*D(3,1,2,4)       =        -3.138578	    -179.827281
	 D(3,1,2,12)      =        -1.014458	     -58.124158
	 D(3,1,2,13)      =         1.024334	      58.690016
	 D(3,5,7,9)       =         0.007679	       0.439952
	 D(3,5,7,19)      =        -3.138604	    -179.828756
	 D(3,6,8,9)       =        -0.008097	      -0.463950
	 D(3,6,8,20)      =         3.137435	     179.761789
	 D(4,2,1,10)      =         0.998755	      57.224419
	 D(4,2,1,11)      =        -0.998123	     -57.188212
	 D(5,3,1,10)      =        -1.062241	     -60.861907
	 D(5,3,1,11)      =         0.933966	      53.512325
	 D(5,3,6,8)       =         0.017772	       1.018258
	 D(5,3,6,18)      =        -3.127233	    -179.177250
	 D(5,7,9,8)       =         0.002527	       0.144784
	 D(5,7,9,21)      =         3.140288	     179.925255
	 D(6,3,1,10)      =         2.122900	     121.633218
	 D(6,3,1,11)      =        -2.164078	    -123.992549
	 D(6,3,5,7)       =        -0.017624	      -1.009767
	 D(6,3,5,17)      =         3.126309	     179.124312
	 D(6,8,9,7)       =        -0.002318	      -0.132792
	 D(6,8,9,21)      =        -3.140079	    -179.913301
	 D(7,9,8,20)      =         3.135319	     179.640562
	 D(8,9,7,19)      =        -3.134363	    -179.585761
	 D(9,7,5,17)      =        -3.136265	    -179.694732
	 D(9,8,6,18)      =         3.136862	     179.728959
	 D(10,1,2,12)     =         3.122875	     178.927542
	 D(10,1,2,13)     =        -1.121519	     -64.258284
	 D(11,1,2,12)     =         1.125998	      64.514911
	 D(11,1,2,13)     =        -3.118396	    -178.670915
	 D(12,2,4,14)     =        -1.073686	     -61.517672
	 D(12,2,4,15)     =         1.022307	      58.573888
	 D(12,2,4,16)     =         3.118439	     178.673396
	 D(13,2,4,14)     =        -3.108711	    -178.116013
	 D(13,2,4,15)     =        -1.012718	     -58.024453
	 D(13,2,4,16)     =         1.083414	      62.075056
	 D(17,5,7,19)     =         0.000638	       0.036561
	 D(18,6,8,20)     =        -0.000791	      -0.045302
	 D(19,7,9,21)     =         0.003398	       0.194710
	 D(20,8,9,21)     =        -0.002443	      -0.139947

	Current energy   :      -350.0633514155

	Energy change for the previous step:
		Projected    :        -0.0005460662
		Actual       :        -0.0001553042

	Performing BFGS update.
	Previous computed or guess Hessian on step 1.
	Steps to be used in Hessian update: 2 1
	Taking RFO optimization step.
	Going to follow RFO solution 1.
	Using RFO vector 1.
	Norm of target step-size    0.01000
	Projected energy change by RFO approximation:        -0.0000276992

	Back-transformation to cartesian coordinates...
	Successfully converged to displaced geometry.

	Back-transformation to cartesian coordinates to adjust frozen coordinates...
	Successfully converged to displaced geometry.

	--- Internal Coordinate Step in ANG or DEG, aJ/ANG or AJ/DEG ---
	 ---------------------------------------------------------------------------
	   Coordinate                Previous        Force       Change         New 
	   ----------                --------       ------       ------       ------
	    1 R(1,2)          =      1.531232    -0.001415    -0.000176     1.531056
	    2 R(1,3)          =      1.519843    -0.012279    -0.002110     1.517733
	    3 R(1,10)         =      1.096003     0.002198     0.000327     1.096330
	    4 R(1,11)         =      1.095488     0.002531     0.000380     1.095869
	    5 R(2,4)          =      1.530689     0.001957     0.000476     1.531165
	    6 R(2,12)         =      1.093948     0.001663     0.000213     1.094161
	    7 R(2,13)         =      1.093950     0.001831     0.000241     1.094191
	    8 R(3,5)          =      1.400698     0.008456     0.001216     1.401913
	    9 R(3,6)          =      1.397373    -0.000085     0.000090     1.397464
	   10 R(4,14)         =      1.092494     0.001740     0.000261     1.092755
	   11 R(4,15)         =      1.091265    -0.000456    -0.000085     1.091179
	   12 R(4,16)         =      1.092448     0.001854     0.000277     1.092724
	   13 R(5,7)          =      1.390581     0.000798     0.000064     1.390645
	   14 R(5,17)         =      1.083433     0.002225     0.000327     1.083759
	   15 R(6,8)          =      1.395085     0.004378     0.000560     1.395644
	   16 R(6,18)         =      1.080311     0.005523     0.000734     1.081045
	   17 R(7,9)          =      1.393923     0.008911     0.001136     1.395059
	   18 R(7,19)         =      1.081816     0.001283     0.000180     1.081996
	   19 R(8,9)          =      1.390686     0.004427     0.000498     1.391185
	   20 R(8,20)         =      1.081772     0.001581     0.000221     1.081993
	   21 R(9,21)         =      1.081360     0.001178     0.000140     1.081500
	   22 B(1,2,4)        =    112.101138    -0.000035    -0.071729   112.029409
	   23 B(1,2,12)       =    109.521262     0.000012     0.047347   109.568609
	   24 B(1,2,13)       =    109.576353     0.000012     0.058040   109.634393
	   25 B(1,3,5)        =    118.813391     0.000046     0.101421   118.914812
	   26 B(1,3,6)        =    123.116303    -0.000083    -0.168992   122.947311
	   27 B(2,1,3)        =    116.705512    -0.000115    -0.266661   116.438851
	   28 B(2,1,10)       =    108.451222     0.000039     0.097158   108.548380
	   29 B(2,1,11)       =    108.514578     0.000037     0.084958   108.599536
	   30 B(2,4,14)       =    110.978296     0.000007     0.026891   111.005187
	   31 B(2,4,15)       =    111.220031    -0.000006     0.003872   111.223904
	   32 B(2,4,16)       =    110.964397     0.000007     0.028432   110.992829
	   33 B(3,1,10)       =    108.581489     0.000030     0.049280   108.630769
	   34 B(3,1,11)       =    108.310610     0.000033     0.055275   108.365885
	   35 B(3,5,7)        =    121.272233    -0.000024    -0.049507   121.222726
	   36 B(3,5,17)       =    119.134819     0.000007    -0.004726   119.130093
	   37 B(3,6,8)        =    120.886506    -0.000011    -0.025449   120.861058
	   38 B(3,6,18)       =    120.232835    -0.000015    -0.064145   120.168689
	   39 B(4,2,12)       =    109.462582     0.000012     0.015683   109.478265
	   40 B(4,2,13)       =    109.258640     0.000014     0.040313   109.298953
	   41 B(5,3,6)        =    118.025137     0.000037     0.067501   118.092638
	   42 B(5,7,9)        =    120.073409    -0.000005    -0.009309   120.064100
	   43 B(5,7,19)       =    119.825012     0.000002     0.002205   119.827217
	   44 B(6,8,9)        =    120.403104    -0.000006    -0.013994   120.389110
	   45 B(6,8,20)       =    119.597797    -0.000005    -0.028161   119.569636
	   46 B(7,5,17)       =    119.592814     0.000017     0.054221   119.647035
	   47 B(7,9,8)        =    119.331550     0.000010     0.030746   119.362296
	   48 B(7,9,21)       =    120.342574    -0.000007    -0.021579   120.320995
	   49 B(8,6,18)       =    118.880377     0.000026     0.089617   118.969994
	   50 B(8,9,21)       =    120.325510    -0.000004    -0.009135   120.316375
	   51 B(9,7,19)       =    120.101032     0.000004     0.007116   120.108148
	   52 B(9,8,20)       =    119.998714     0.000012     0.042200   120.040914
	   53 B(10,1,11)      =    105.739518    -0.000017     0.002332   105.741850
	   54 B(12,2,13)      =    106.775844    -0.000014    -0.090568   106.685276
	   55 B(14,4,15)      =    107.867959    -0.000002    -0.022748   107.845211
	   56 B(14,4,16)      =    107.778609    -0.000006    -0.022769   107.755840
	   57 B(15,4,16)      =    107.881627    -0.000001    -0.017011   107.864615
	   58 *D(1,2,4,14)    =     60.219055    -0.000000     0.000000    60.219055
	   59 D(1,2,4,15)     =   -179.689385    -0.000000    -0.008117  -179.697502
	   60 D(1,2,4,16)     =    -59.589877    -0.000000    -0.007949   -59.597826
	   61 D(1,3,5,7)      =   -178.642415     0.000000    -0.001287  -178.643702
	   62 D(1,3,5,17)     =      1.491664     0.000000     0.004406     1.496070
	   63 D(1,3,6,8)      =    178.541650     0.000000    -0.001220   178.540430
	   64 D(1,3,6,18)     =     -1.653858     0.000000     0.007288    -1.646570
	   65 *D(2,1,3,5)     =    176.257194    -0.000000    -0.000000   176.257194
	   66 *D(2,1,3,6)     =     -1.247680     0.000000     0.000000    -1.247680
	   67 *D(3,1,2,4)     =   -179.827281    -0.000000     0.000000  -179.827281
	   68 D(3,1,2,12)     =    -58.124158     0.000000     0.004951   -58.119207
	   69 D(3,1,2,13)     =     58.690016    -0.000001    -0.043600    58.646416
	   70 D(3,5,7,9)      =      0.439952     0.000000     0.016103     0.456054
	   71 D(3,5,7,19)     =   -179.828756     0.000000     0.019060  -179.809696
	   72 D(3,6,8,9)      =     -0.463950     0.000000     0.002725    -0.461225
	   73 D(3,6,8,20)     =    179.761789    -0.000000    -0.010773   179.751016
	   74 D(4,2,1,10)     =     57.224419     0.000002     0.048112    57.272531
	   75 D(4,2,1,11)     =    -57.188212    -0.000002    -0.049456   -57.237668
	   76 D(5,3,1,10)     =    -60.861907    -0.000001    -0.023579   -60.885487
	   77 D(5,3,1,11)     =     53.512325     0.000001     0.033371    53.545696
	   78 D(5,3,6,8)      =      1.018258     0.000000    -0.002082     1.016176
	   79 D(5,3,6,18)     =   -179.177250     0.000000     0.006426  -179.170824
	   80 D(5,7,9,8)      =      0.144784    -0.000000    -0.016281     0.128503
	   81 D(5,7,9,21)     =    179.925255    -0.000000    -0.006479   179.918776
	   82 D(6,3,1,10)     =    121.633218    -0.000001    -0.023579   121.609639
	   83 D(6,3,1,11)     =   -123.992549     0.000001     0.033371  -123.959178
	   84 D(6,3,5,7)      =     -1.009767    -0.000000    -0.007325    -1.017092
	   85 D(6,3,5,17)     =    179.124312    -0.000000    -0.001632   179.122680
	   86 D(6,8,9,7)      =     -0.132792    -0.000000     0.006771    -0.126021
	   87 D(6,8,9,21)     =   -179.913301    -0.000000    -0.003003  -179.916304
	   88 D(7,9,8,20)     =    179.640562     0.000000     0.020173   179.660736
	   89 D(8,9,7,19)     =   -179.585761    -0.000000    -0.019234  -179.604995
	   90 D(9,7,5,17)     =   -179.694732     0.000000     0.010302  -179.684430
	   91 D(9,8,6,18)     =    179.728959     0.000000    -0.005390   179.723569
	   92 D(10,1,2,12)    =    178.927542     0.000002     0.053063   178.980605
	   93 D(10,1,2,13)    =    -64.258284     0.000002     0.004512   -64.253772
	   94 D(11,1,2,12)    =     64.514911    -0.000002    -0.044505    64.470406
	   95 D(11,1,2,13)    =   -178.670915    -0.000003    -0.093056  -178.763971
	   96 D(12,2,4,14)    =    -61.517672    -0.000000    -0.023146   -61.540818
	   97 D(12,2,4,15)    =     58.573888    -0.000000    -0.031263    58.542625
	   98 D(12,2,4,16)    =    178.673396    -0.000001    -0.031095   178.642302
	   99 D(13,2,4,14)    =   -178.116013     0.000000     0.053927  -178.062086
	  100 D(13,2,4,15)    =    -58.024453     0.000000     0.045809   -57.978643
	  101 D(13,2,4,16)    =     62.075056     0.000000     0.045978    62.121034
	  102 D(17,5,7,19)    =      0.036561     0.000000     0.013259     0.049820
	  103 D(18,6,8,20)    =     -0.045302    -0.000000    -0.018888    -0.064190
	  104 D(19,7,9,21)    =      0.194710    -0.000000    -0.009431     0.185279
	  105 D(20,8,9,21)    =     -0.139947     0.000000     0.010399    -0.129548
	 ---------------------------------------------------------------------------
	Successfully symmetrized geometry.

  ==> Convergence Check <==

  Measures of convergence in internal coordinates in au.
  Criteria marked as inactive (o), active & met (*), and active & unmet ( ).
  ---------------------------------------------------------------------------------------------
   Step     Total Energy     Delta E     MAX Force     RMS Force      MAX Disp      RMS Disp   
  ---------------------------------------------------------------------------------------------
    Convergence Criteria             o    2.50e-03 *    1.70e-03 *    1.00e-02 *    6.70e-03 *
  ---------------------------------------------------------------------------------------------
      3    -350.06335142   -1.55e-04 o    1.51e-03 *    3.37e-04 *    4.65e-03 *    9.76e-04 *  ~
  ---------------------------------------------------------------------------------------------


  **** Optimization is complete! (in 3 steps) ****

  ==> Optimization Summary <==

  Measures of convergence in internal coordinates in au.
  --------------------------------------------------------------------------------------------------------------- ~
   Step         Total Energy             Delta E       MAX Force       RMS Force        MAX Disp        RMS Disp  ~
  --------------------------------------------------------------------------------------------------------------- ~
      1    -350.060626376889   -350.060626376889      0.01945048      0.00453420      0.06101889      0.01412971  ~
      2    -350.063196111363     -0.002569734474      0.00558305      0.00110934      0.02318011      0.00453905  ~
      3    -350.063351415518     -0.000155304156      0.00151110      0.00033745      0.00465412      0.00097582  ~
  --------------------------------------------------------------------------------------------------------------- ~

	Writing optimization data to binary file.
	Final energy is   -350.0633514155184
	Final (previous) structure:
	Cartesian Geometry (in Angstrom)
	    C    -1.4274830741  -0.1170775635   0.6172969379
	    C    -2.3306446465  -0.6772419075  -0.4850585808
	    C     0.0400690772   0.0695083427   0.2688742154
	    C    -3.7832775527  -0.8178492924  -0.0234355535
	    C     0.8901747914   0.6527290154   1.2170978083
	    C     0.5779764052  -0.2673597518  -0.9760467736
	    C     2.2353183562   0.8731194128   0.9419028341
	    C     1.9269451011  -0.0482828182  -1.2563144615
	    C     2.7610816782   0.5207016099  -0.3000290588
	    H    -1.4980760380  -0.7747737223   1.4911813844
	    H    -1.8303108664   0.8493873925   0.9394307300
	    H    -2.2881087227  -0.0224873154  -1.3603922353
	    H    -1.9570199475  -1.6548388978  -0.8035488075
	    H    -4.1957892058   0.1501967562   0.2702727421
	    H    -4.4126353464  -1.2229640486  -0.8175698476
	    H    -3.8569259846  -1.4867775707   0.8371180427
	    H     0.4885996395   0.9341933867   2.1831939548
	    H    -0.0486717208  -0.7067871728  -1.7384684623
	    H     2.8714513564   1.3227191293   1.6925834387
	    H     2.3223074276  -0.3205323850  -2.2257464796
	    H     3.8061951694   0.6912391046  -0.5191034108
	Saving final (previous) structure.
			--------------------------
			 OPTKING Finished Execution 
			--------------------------

    Final optimized geometry and variables:
    Molecular point group: c1
    Full point group: C1

    Geometry (in Angstrom), charge = 0, multiplicity = 1:

    C           -1.427483079750    -0.117077564010     0.617296940347
    C           -2.330644655623    -0.677241910173    -0.485058582730
    C            0.040069077315     0.069508342958     0.268874216479
    C           -3.783277567547    -0.817849295573    -0.023435553628
    C            0.890174794931     0.652729017999     1.217097813126
    C            0.577976407444    -0.267359752866    -0.976046777434
    C            2.235318364995     0.873119416186     0.941902837778
    C            1.926945108712    -0.048282818374    -1.256314466399
    C            2.761081689056     0.520701611993    -0.300029060028
    H           -1.498076043934    -0.774773725333     1.491181390285
    H           -1.830310873595     0.849387395862     0.939430733677
    H           -2.288108731671    -0.022487315463    -1.360392240668
    H           -1.957019955167    -1.654838904342    -0.803548810637
    H           -4.195789222280     0.150196756761     0.270272743170
    H           -4.412635363699    -1.222964053360    -0.817569850766
    H           -3.856925999725    -1.486777576522     0.837118046033
    H            0.488599641393     0.934193390329     2.183193963408
    H           -0.048671721004    -0.706787175543    -1.738468469163
    H            2.871451367723     1.322719134528     1.692583445337
    H            2.322307436759    -0.320532386265    -2.225746488321
    H            3.806195184406     0.691239107286    -0.519103412820

	Removing binary optimization data file.
	Cleaning optimization helper files.

    Psi4 stopped on: Wednesday, 02 June 2021 12:33AM
    Psi4 wall time for execution: 0:00:42.57

*** Psi4 exiting successfully. Buy a developer a beer!
