
    -----------------------------------------------------------------------
          Psi4: An Open-Source Ab Initio Electronic Structure Package
                               Psi4 1.3.2 release

                         Git: Rev {HEAD} ecbda83 


    R. M. Parrish, L. A. Burns, D. G. A. Smith, A. C. Simmonett,
    A. E. DePrince III, E. G. Hohenstein, U. Bozkaya, A. Yu. Sokolov,
    R. Di Remigio, R. M. Richard, J. F. Gonthier, A. M. James,
    H. R. McAlexander, A. Kumar, M. Saitow, X. Wang, B. P. Pritchard,
    P. Verma, H. F. Schaefer III, K. Patkowski, R. A. King, E. F. Valeev,
    F. A. Evangelista, J. M. Turney, T. D. Crawford, and C. D. Sherrill,
    J. Chem. Theory Comput. 13(7) pp 3185--3197 (2017).
    (doi: 10.1021/acs.jctc.7b00174)


                         Additional Contributions by
    P. Kraus, H. Kruse, M. H. Lechner, M. C. Schieber, R. A. Shaw,
    A. Alenaizan, R. Galvelis, Z. L. Glick, S. Lehtola, and J. P. Misiewicz

    -----------------------------------------------------------------------


    Psi4 started on: Wednesday, 02 June 2021 12:46AM

    Process ID: 79933
    Host:       daniele-Precision-5750
    PSIDATADIR: /home/daniele/anaconda3/envs/poltype/share/psi4
    Memory:     500.0 MiB
    Threads:    1
    
  ==> Input File <==

--------------------------------------------------------------------------
molecule { 
0 1
 C   -1.219881   -1.234786    0.381137
 C   -2.362584   -0.703791   -0.516596
 C    0.071836   -0.468603    0.201613
 C   -3.189453    0.400706    0.146666
 C    0.331468    0.692458    0.938388
 C    1.022071   -0.886253   -0.736467
 C    1.501394    1.422106    0.736461
 C    2.193718   -0.160805   -0.940931
 C    2.435923    0.998410   -0.206287
 H   -1.036589   -2.286620    0.146227
 H   -1.535412   -1.199532    1.427785
 H   -1.941003   -0.345587   -1.459364
 H   -3.028734   -1.534660   -0.768769
 H   -2.567298    1.263431    0.396464
 H   -3.985959    0.747417   -0.514291
 H   -3.649644    0.037735    1.068648
 H   -0.384756    1.020150    1.681646
 H    0.841555   -1.787783   -1.309348
 H    1.684371    2.316842    1.316559
 H    2.916994   -0.501081   -1.670139
 H    3.345667    1.561910   -0.362848
}
memory 700MB
set_num_threads(8)
psi4_io.set_default_path("/home/daniele/PSI4_sctatch/Psi4-propbenzene")
set freeze_core True
E, wfn = energy('wb97x-d/6-311+G*',return_wfn=True)
oeprop(wfn,"WIBERG_LOWDIN_INDICES")
clean()
--------------------------------------------------------------------------

  Memory set to 667.572 MiB by Python driver.
  Threads set to 8 by Python driver.

*** tstart() called on daniele-Precision-5750
*** at Wed Jun  2 00:46:32 2021

   => Loading Basis Set <=

    Name: 6-311+G*
    Role: ORBITAL
    Keyword: BASIS
    atoms 1-9   entry C          line   130 file /home/daniele/anaconda3/envs/poltype/share/psi4/basis/6-311pgs.gbs 
    atoms 10-21 entry H          line    47 file /home/daniele/anaconda3/envs/poltype/share/psi4/basis/6-311pgs.gbs 


         ---------------------------------------------------------
                                   SCF
               by Justin Turney, Rob Parrish, Andy Simmonett
                          and Daniel G. A. Smith
                              RKS Reference
                        8 Threads,    667 MiB Core
         ---------------------------------------------------------

  ==> Geometry <==

    Molecular point group: c1
    Full point group: C1

    Geometry (in Angstrom), charge = 0, multiplicity = 1:

       Center              X                  Y                   Z               Mass       
    ------------   -----------------  -----------------  -----------------  -----------------
         C           -1.219881032278    -1.234785896867     0.381136942889    12.000000000000
         C           -2.362584032278    -0.703790896867    -0.516596057111    12.000000000000
         C            0.071835967722    -0.468602896867     0.201612942889    12.000000000000
         C           -3.189453032278     0.400706103133     0.146665942889    12.000000000000
         C            0.331467967722     0.692458103133     0.938387942889    12.000000000000
         C            1.022070967722    -0.886252896867    -0.736467057111    12.000000000000
         C            1.501393967722     1.422106103133     0.736460942889    12.000000000000
         C            2.193717967722    -0.160804896867    -0.940931057111    12.000000000000
         C            2.435922967722     0.998410103133    -0.206287057111    12.000000000000
         H           -1.036589032278    -2.286619896867     0.146226942889     1.007825032230
         H           -1.535412032278    -1.199531896867     1.427784942889     1.007825032230
         H           -1.941003032278    -0.345586896867    -1.459364057111     1.007825032230
         H           -3.028734032278    -1.534659896867    -0.768769057111     1.007825032230
         H           -2.567298032278     1.263431103133     0.396463942889     1.007825032230
         H           -3.985959032278     0.747417103133    -0.514291057111     1.007825032230
         H           -3.649644032278     0.037735103133     1.068647942889     1.007825032230
         H           -0.384756032278     1.020150103133     1.681645942889     1.007825032230
         H            0.841554967722    -1.787782896867    -1.309348057111     1.007825032230
         H            1.684370967722     2.316842103133     1.316558942889     1.007825032230
         H            2.916993967722    -0.501080896867    -1.670139057111     1.007825032230
         H            3.345666967722     1.561910103133    -0.362848057111     1.007825032230

  Running in c1 symmetry.

  Rotational constants: A =      0.11655  B =      0.03371  C =      0.02896 [cm^-1]
  Rotational constants: A =   3494.16152  B =   1010.68999  C =    868.26684 [MHz]
  Nuclear repulsion =  416.405798207701253

  Charge       = 0
  Multiplicity = 1
  Electrons    = 66
  Nalpha       = 33
  Nbeta        = 33

  ==> Algorithm <==

  SCF Algorithm Type is DF.
  DIIS enabled.
  MOM disabled.
  Fractional occupation disabled.
  Guess Type is SAD.
  Energy threshold   = 1.00e-06
  Density threshold  = 1.00e-06
  Integral threshold = 0.00e+00

  ==> Primary Basis <==

  Basis Set: 6-311+G*
    Blend: 6-311+G*
    Number of shells: 126
    Number of basis function: 234
    Number of Cartesian functions: 243
    Spherical Harmonics?: true
    Max angular momentum: 2

  ==> DFT Potential <==

   => Composite Functional: WB97X-D <= 

    wB97X-D Hyb-GGA Exchange-Correlation Functional

    J.-D. Chai and M. Head-Gordon, Phys. Chem. Chem. Phys. 10, 6615 (2008)

    Deriv               =              1
    GGA                 =           TRUE
    Meta                =          FALSE

    Exchange Hybrid     =           TRUE
    MP2 Hybrid          =          FALSE

   => Exchange-Correlation Functionals <=

    1.0000   wB97D range-separated functional

   => Exact (HF) Exchange <=

    0.7780            HF,LR [omega = 0.2000]
    0.2220               HF 

   => Molecular Quadrature <=

    Radial Scheme          =       TREUTLER
    Pruning Scheme         =           FLAT
    Nuclear Scheme         =       TREUTLER

    BS radius alpha        =              1
    Pruning alpha          =              1
    Radial Points          =             75
    Spherical Points       =            302
    Total Points           =         475650
    Total Blocks           =           3497
    Max Points             =            256
    Max Functions          =            223

   => WB97X-D: Empirical Dispersion <=

    Chai and Head-Gordon Dispersion Correction
    Chai, J.-D.; Head-Gordon, M. (2010), J. Chem. Phys., 132: 6615-6620

        s6 =       1.000000

   => Loading Basis Set <=

    Name: (6-311+G* AUX)
    Role: JKFIT
    Keyword: DF_BASIS_SCF
    atoms 1-9   entry C          line   200 file /home/daniele/anaconda3/envs/poltype/share/psi4/basis/heavy-aug-cc-pvtz-jkfit.gbs 
    atoms 10-21 entry H          line   116 file /home/daniele/anaconda3/envs/poltype/share/psi4/basis/heavy-aug-cc-pvtz-jkfit.gbs 

  ==> Pre-Iterations <==

   -------------------------------------------------------
    Irrep   Nso     Nmo     Nalpha   Nbeta   Ndocc  Nsocc
   -------------------------------------------------------
     A        234     234       0       0       0       0
   -------------------------------------------------------
    Total     234     234      33      33      33       0
   -------------------------------------------------------

  ==> Integral Setup <==

  ==> DiskDFJK: Density-Fitted J/K Matrices <==

    J tasked:                  Yes
    K tasked:                  Yes
    wK tasked:                 Yes
    Omega:               2.000E-01
    OpenMP threads:              8
    Integrals threads:           8
    Memory [MiB]:              302
    Algorithm:                Disk
    Integral Cache:           NONE
    Schwarz Cutoff:          1E-12
    Fitting Condition:       1E-10

   => Auxiliary Basis Set <=

  Basis Set: (6-311+G* AUX)
    Blend: HEAVY-AUG-CC-PVTZ-JKFIT
    Number of shells: 390
    Number of basis function: 1296
    Number of Cartesian functions: 1599
    Spherical Harmonics?: true
    Max angular momentum: 4

  Cached 9.1% of DFT collocation blocks in 0.199 [GiB].

  Minimum eigenvalue in the overlap matrix is 2.3982469557E-06.
  Using Symmetric Orthogonalization.

  SCF Guess: Superposition of Atomic Densities via on-the-fly atomic UHF.

  ==> Iterations <==

                           Total Energy        Delta E     RMS |[F,P]|

   @DF-RKS iter SAD:  -349.46725727505674   -3.49467e+02   0.00000e+00 
   @DF-RKS iter   1:  -349.62137023610001   -1.54113e-01   4.17389e-03 DIIS
   @DF-RKS iter   2:  -349.84800334059702   -2.26633e-01   3.25305e-03 DIIS
   @DF-RKS iter   3:  -350.14105051682253   -2.93047e-01   2.65431e-04 DIIS
   @DF-RKS iter   4:  -350.14261990371887   -1.56939e-03   1.57368e-04 DIIS
   @DF-RKS iter   5:  -350.14329473568358   -6.74832e-04   4.41542e-05 DIIS
   @DF-RKS iter   6:  -350.14335132678059   -5.65911e-05   9.94932e-06 DIIS
   @DF-RKS iter   7:  -350.14335414750411   -2.82072e-06   2.65181e-06 DIIS
   @DF-RKS iter   8:  -350.14335437531884   -2.27815e-07   6.00254e-07 DIIS
  Energy and wave function converged.


  ==> Post-Iterations <==

    Orbital Energies [Eh]
    ---------------------

    Doubly Occupied:                                                      

       1A    -10.294404     2A    -10.287238     3A    -10.287155  
       4A    -10.284982     5A    -10.284599     6A    -10.284472  
       7A    -10.282997     8A    -10.279555     9A    -10.268511  
      10A     -0.961642    11A     -0.897940    12A     -0.846373  
      13A     -0.844794    14A     -0.777847    15A     -0.703329  
      16A     -0.697535    17A     -0.667038    18A     -0.604573  
      19A     -0.555305    20A     -0.554017    21A     -0.534153  
      22A     -0.517188    23A     -0.506497    24A     -0.486799  
      25A     -0.483264    26A     -0.457915    27A     -0.439814  
      28A     -0.429319    29A     -0.421676    30A     -0.413814  
      31A     -0.402927    32A     -0.328982    33A     -0.318550  

    Virtual:                                                              

      34A      0.054345    35A      0.056293    36A      0.063379  
      37A      0.073693    38A      0.075285    39A      0.086440  
      40A      0.092668    41A      0.095208    42A      0.108108  
      43A      0.114073    44A      0.118562    45A      0.122359  
      46A      0.124770    47A      0.140506    48A      0.146407  
      49A      0.151771    50A      0.158370    51A      0.167019  
      52A      0.173542    53A      0.180127    54A      0.186242  
      55A      0.195893    56A      0.197519    57A      0.205472  
      58A      0.207879    59A      0.221744    60A      0.223003  
      61A      0.226435    62A      0.232586    63A      0.233616  
      64A      0.243209    65A      0.255242    66A      0.256185  
      67A      0.259421    68A      0.262101    69A      0.270065  
      70A      0.271260    71A      0.278932    72A      0.282065  
      73A      0.286373    74A      0.290177    75A      0.300079  
      76A      0.303913    77A      0.308869    78A      0.319004  
      79A      0.321924    80A      0.331927    81A      0.337775  
      82A      0.345803    83A      0.351915    84A      0.361023  
      85A      0.370985    86A      0.392741    87A      0.404152  
      88A      0.417325    89A      0.421358    90A      0.428915  
      91A      0.457071    92A      0.490610    93A      0.499973  
      94A      0.519234    95A      0.551805    96A      0.557910  
      97A      0.588222    98A      0.594457    99A      0.604148  
     100A      0.617209   101A      0.625411   102A      0.629169  
     103A      0.634383   104A      0.644502   105A      0.656930  
     106A      0.668152   107A      0.692284   108A      0.702664  
     109A      0.719975   110A      0.733700   111A      0.738637  
     112A      0.754503   113A      0.757909   114A      0.762722  
     115A      0.781291   116A      0.783499   117A      0.785461  
     118A      0.793763   119A      0.799381   120A      0.806226  
     121A      0.819443   122A      0.826386   123A      0.829861  
     124A      0.844345   125A      0.850093   126A      0.861031  
     127A      0.901342   128A      0.922752   129A      0.930348  
     130A      0.940519   131A      0.949090   132A      0.963044  
     133A      0.976465   134A      0.985901   135A      1.018307  
     136A      1.060528   137A      1.104638   138A      1.112741  
     139A      1.127026   140A      1.155233   141A      1.188247  
     142A      1.211710   143A      1.225623   144A      1.290663  
     145A      1.319355   146A      1.321548   147A      1.377367  
     148A      1.404267   149A      1.471024   150A      1.529517  
     151A      1.562862   152A      1.593611   153A      1.609426  
     154A      1.623601   155A      1.627013   156A      1.649467  
     157A      1.683231   158A      1.687604   159A      1.722638  
     160A      1.743472   161A      1.744919   162A      1.806386  
     163A      1.833593   164A      1.851221   165A      1.874103  
     166A      1.885438   167A      1.913120   168A      1.932628  
     169A      1.961332   170A      2.004998   171A      2.013229  
     172A      2.024944   173A      2.044615   174A      2.085818  
     175A      2.090270   176A      2.131114   177A      2.175163  
     178A      2.253242   179A      2.294913   180A      2.348154  
     181A      2.360379   182A      2.384967   183A      2.413096  
     184A      2.431036   185A      2.490057   186A      2.512662  
     187A      2.569498   188A      2.593948   189A      2.632234  
     190A      2.646115   191A      2.655598   192A      2.704061  
     193A      2.722393   194A      2.771062   195A      2.788125  
     196A      2.811298   197A      2.886146   198A      2.891219  
     199A      2.920116   200A      2.984597   201A      2.991887  
     202A      3.018349   203A      3.050415   204A      3.134294  
     205A      3.188174   206A      3.239912   207A      3.250588  
     208A      3.277301   209A      3.318165   210A      3.332260  
     211A      3.406987   212A      3.412182   213A      3.422351  
     214A      3.451584   215A      3.456127   216A      3.535157  
     217A      3.653206   218A      3.732693   219A      3.771550  
     220A      3.838233   221A      4.041335   222A      4.118508  
     223A      4.127414   224A      4.283213   225A      4.897354  
     226A     23.440259   227A     23.633763   228A     23.842731  
     229A     23.881040   230A     23.978827   231A     24.012849  
     232A     24.178943   233A     24.181375   234A     24.285038  

    Final Occupation by Irrep:
              A 
    DOCC [    33 ]

  @DF-RKS Final Energy:  -350.14335437531884

   => Energetics <=

    Nuclear Repulsion Energy =            416.4057982077012525
    One-Electron Energy =               -1295.6345661271877816
    Two-Electron Energy =                 565.5013716602940121
    DFT Exchange-Correlation Energy =     -36.4037617168850858
    Empirical Dispersion Energy =          -0.0121963992411914
    VV10 Nonlocal Energy =                  0.0000000000000000
    Total Energy =                       -350.1433543753187223

Computation Completed


Properties will be evaluated at   0.000000,   0.000000,   0.000000 [a0]

Properties computed using the SCF density matrix

  Nuclear Dipole Moment: [e a0]
     X:    -8.7567      Y:    -0.6635      Z:    -0.0445

  Electronic Dipole Moment: [e a0]
     X:     8.6113      Y:     0.6017      Z:     0.0115

  Dipole Moment: [e a0]
     X:    -0.1454      Y:    -0.0618      Z:    -0.0329     Total:     0.1614

  Dipole Moment: [D]
     X:    -0.3696      Y:    -0.1571      Z:    -0.0837     Total:     0.4102


*** tstop() called on daniele-Precision-5750 at Wed Jun  2 00:46:53 2021
Module time:
	user time   =     154.77 seconds =       2.58 minutes
	system time =       4.95 seconds =       0.08 minutes
	total time  =         21 seconds =       0.35 minutes
Total time:
	user time   =     154.77 seconds =       2.58 minutes
	system time =       4.95 seconds =       0.08 minutes
	total time  =         21 seconds =       0.35 minutes


Properties will be evaluated at   0.000000,   0.000000,   0.000000 [a0]
OEProp: No title given, name of density matrix used for the following properties is 'SCF density'


  Wiberg Bond Indices using Orthogonal Lowdin Orbitals:

  Irrep: 1 Size: 21 x 21

                 1                   2                   3                   4                   5

    1     0.00000000000000     1.12540004469906     1.08833491511010     0.10374152271480     0.12350087880477
    2     1.12540004469906     0.00000000000000     0.09914090323968     1.20203668159211     0.03284095522064
    3     1.08833491511010     0.09914090323968     0.00000000000000     0.02481496998632     1.43918235874801
    4     0.10374152271480     1.20203668159211     0.02481496998632     0.00000000000000     0.02552330186812
    5     0.12350087880477     0.03284095522064     1.43918235874801     0.02552330186812     0.00000000000000
    6     0.12553816243746     0.03602145560896     1.43915871640307     0.00545379951060     0.13312231824802
    7     0.01750114278192     0.00365709161002     0.13386190645089     0.00305674011377     1.52216344909311
    8     0.01752925843507     0.00449686464470     0.13375580764687     0.00133419510068     0.14628400920147
    9     0.01001122835151     0.00669379154894     0.13910591867765     0.00114989772697     0.13743447602912
   10     0.84814263345599     0.04198404619089     0.04581521030212     0.00960028307602     0.00920317595066
   11     0.84344181886418     0.03570769008561     0.04400486279284     0.01984745089145     0.01770254586138
   12     0.03695687005492     0.85615659184836     0.01953919788604     0.03753030738601     0.00506507939674
   13     0.04459797562814     0.86936181616525     0.00942953696125     0.04057231044760     0.00157002308912
   14     0.01201193268145     0.03933368251424     0.00638966970205     0.89725633011503     0.00992759359109
   15     0.01246877325974     0.04770681745490     0.00079234133123     0.91345092036159     0.00068952260389
   16     0.01496270499089     0.04105311459951     0.00226239488866     0.90762231683090     0.00124236304252
   17     0.01735171229317     0.00400555366132     0.05601963829702     0.00615844311968     0.81701422028487
   18     0.01843272104719     0.00419464265043     0.05674386077816     0.00019879732541     0.01019064368310
   19     0.00112571416833     0.00023172679869     0.01049243477504     0.00007831486601     0.05997987415903
   20     0.00111292991398     0.00019529584066     0.01053251818706     0.00007745661127     0.00246653472072
   21     0.00034240399552     0.00005796146092     0.00282550298925     0.00003724401563     0.01131525904600

                 6                   7                   8                   9                  10

    1     0.12553816243746     0.01750114278192     0.01752925843507     0.01001122835151     0.84814263345599
    2     0.03602145560896     0.00365709161002     0.00449686464470     0.00669379154894     0.04198404619089
    3     1.43915871640307     0.13386190645089     0.13375580764687     0.13910591867765     0.04581521030212
    4     0.00545379951060     0.00305674011377     0.00133419510068     0.00114989772697     0.00960028307602
    5     0.13312231824802     1.52216344909311     0.14628400920147     0.13743447602912     0.00920317595066
    6     0.00000000000000     0.14726106663851     1.52625575022068     0.13761072249999     0.01918872091301
    7     0.14726106663851     0.00000000000000     0.13761485174203     1.52306189074214     0.00098830556819
    8     1.52625575022068     0.13761485174203     0.00000000000000     1.52069063608884     0.00146699366553
    9     0.13761072249999     1.52306189074214     1.52069063608884     0.00000000000000     0.00109070342641
   10     0.01918872091301     0.00098830556819     0.00146699366553     0.00109070342641     0.00000000000000
   11     0.00933649380717     0.00129176305261     0.00103487466920     0.00125394862578     0.00789002938594
   12     0.00797934298551     0.00046741111981     0.00085868850630     0.00049753824879     0.00078892710115
   13     0.00105567956365     0.00022043232570     0.00019602375796     0.00038240142124     0.00679723725352
   14     0.00049969477854     0.00107665538725     0.00037777404782     0.00024701635125     0.00018820719748
   15     0.00023763648245     0.00009354598340     0.00005957605692     0.00010910371010     0.00021079414973
   16     0.00052954319722     0.00006334396810     0.00010994391151     0.00003313543803     0.00018662363890
   17     0.00992289375942     0.05635316999051     0.00232273355345     0.01077015492536     0.00031375704954
   18     0.81957067465233     0.00237012132258     0.05686296717971     0.01087245325440     0.00159923667557
   19     0.00242774421247     0.83514678656602     0.01140014462859     0.05902400235288     0.00029735692419
   20     0.06002490978805     0.01138898369710     0.83513371850236     0.05898796477970     0.00004198576043
   21     0.01133528026181     0.05904317007308     0.05906223359767     0.83635023918272     0.00002981691732

                11                  12                  13                  14                  15

    1     0.84344181886418     0.03695687005492     0.04459797562814     0.01201193268145     0.01246877325974
    2     0.03570769008561     0.85615659184836     0.86936181616525     0.03933368251424     0.04770681745490
    3     0.04400486279284     0.01953919788604     0.00942953696125     0.00638966970205     0.00079234133123
    4     0.01984745089145     0.03753030738601     0.04057231044760     0.89725633011503     0.91345092036159
    5     0.01770254586138     0.00506507939674     0.00157002308912     0.00992759359109     0.00068952260389
    6     0.00933649380717     0.00797934298551     0.00105567956365     0.00049969477854     0.00023763648245
    7     0.00129176305261     0.00046741111981     0.00022043232570     0.00107665538725     0.00009354598340
    8     0.00103487466920     0.00085868850630     0.00019602375796     0.00037777404782     0.00005957605692
    9     0.00125394862578     0.00049753824879     0.00038240142124     0.00024701635125     0.00010910371010
   10     0.00789002938594     0.00078892710115     0.00679723725352     0.00018820719748     0.00021079414973
   11     0.00000000000000     0.00552639809071     0.00073669019065     0.00108989737206     0.00072857299308
   12     0.00552639809071     0.00000000000000     0.00793909199757     0.00403530032437     0.00299542569722
   13     0.00073669019065     0.00793909199757     0.00000000000000     0.00978769468550     0.00327313507920
   14     0.00108989737206     0.00403530032437     0.00978769468550     0.00000000000000     0.00955491527470
   15     0.00072857299308     0.00299542569722     0.00327313507920     0.00955491527470     0.00000000000000
   16     0.00158087904923     0.00888987424947     0.00414896449239     0.00808304360219     0.00944953049975
   17     0.00115638622295     0.00007862478880     0.00007936791015     0.00106431845288     0.00014268935352
   18     0.00027989193915     0.00022555410797     0.00008352072522     0.00000555435755     0.00003586010929
   19     0.00004813761598     0.00002792167500     0.00000752796950     0.00000892858896     0.00000755058879
   20     0.00026706853614     0.00003296810291     0.00000704213028     0.00000941253490     0.00000685871080
   21     0.00002917780247     0.00001125309204     0.00001525463239     0.00001348663035     0.00000178059700

                16                  17                  18                  19                  20

    1     0.01496270499089     0.01735171229317     0.01843272104719     0.00112571416833     0.00111292991398
    2     0.04105311459951     0.00400555366132     0.00419464265043     0.00023172679869     0.00019529584066
    3     0.00226239488866     0.05601963829702     0.05674386077816     0.01049243477504     0.01053251818706
    4     0.90762231683090     0.00615844311968     0.00019879732541     0.00007831486601     0.00007745661127
    5     0.00124236304252     0.81701422028487     0.01019064368310     0.05997987415903     0.00246653472072
    6     0.00052954319722     0.00992289375942     0.81957067465233     0.00242774421247     0.06002490978805
    7     0.00006334396810     0.05635316999051     0.00237012132258     0.83514678656602     0.01138898369710
    8     0.00010994391151     0.00232273355345     0.05686296717971     0.01140014462859     0.83513371850236
    9     0.00003313543803     0.01077015492536     0.01087245325440     0.05902400235288     0.05898796477970
   10     0.00018662363890     0.00031375704954     0.00159923667557     0.00029735692419     0.00004198576043
   11     0.00158087904923     0.00115638622295     0.00027989193915     0.00004813761598     0.00026706853614
   12     0.00888987424947     0.00007862478880     0.00022555410797     0.00002792167500     0.00003296810291
   13     0.00414896449239     0.00007936791015     0.00008352072522     0.00000752796950     0.00000704213028
   14     0.00808304360219     0.00106431845288     0.00000555435755     0.00000892858896     0.00000941253490
   15     0.00944953049975     0.00014268935352     0.00003586010929     0.00000755058879     0.00000685871080
   16     0.00000000000000     0.00015117464175     0.00005286661026     0.00001270210871     0.00000434185906
   17     0.00015117464175     0.00000000000000     0.00032758133368     0.00521242809499     0.00027303985244
   18     0.00005286661026     0.00032758133368     0.00000000000000     0.00028000459759     0.00525457083998
   19     0.00001270210871     0.00521242809499     0.00028000459759     0.00000000000000     0.00025906897611
   20     0.00000434185906     0.00027303985244     0.00525457083998     0.00025906897611     0.00000000000000
   21     0.00000647969831     0.00023691646153     0.00023286039348     0.00520689244784     0.00521481421432

                21

    1     0.00034240399552
    2     0.00005796146092
    3     0.00282550298925
    4     0.00003724401563
    5     0.01131525904600
    6     0.01133528026181
    7     0.05904317007308
    8     0.05906223359767
    9     0.83635023918272
   10     0.00002981691732
   11     0.00002917780247
   12     0.00001125309204
   13     0.00001525463239
   14     0.00001348663035
   15     0.00000178059700
   16     0.00000647969831
   17     0.00023691646153
   18     0.00023286039348
   19     0.00520689244784
   20     0.00521481421432
   21     0.00000000000000



  Atomic Valences: 

 #  #
 Irrep: 1
      1:  4.4625053
      2:  4.4502767
      3:  4.7622027
      4:  4.1995413
      5:  4.5064186
      6:  4.4925306
      7:  4.4566818
      8:  4.4568470
      9:  4.4553772
     10:  0.9958240
     11:  0.9929546
     12:  0.9956024
     13:  1.0002617
     14:  1.0009611
     15:  1.0020154
     16:  1.0004453
     17:  0.9889548
     18:  0.9878144
     19:  0.9912753
     20:  0.9912915
     21:  0.9913680


    Psi4 stopped on: Wednesday, 02 June 2021 12:46AM
    Psi4 wall time for execution: 0:00:21.02

*** Psi4 exiting successfully. Buy a developer a beer!
