
    -----------------------------------------------------------------------
          Psi4: An Open-Source Ab Initio Electronic Structure Package
                               Psi4 1.3.2 release

                         Git: Rev {HEAD} ecbda83 


    R. M. Parrish, L. A. Burns, D. G. A. Smith, A. C. Simmonett,
    A. E. DePrince III, E. G. Hohenstein, U. Bozkaya, A. Yu. Sokolov,
    R. Di Remigio, R. M. Richard, J. F. Gonthier, A. M. James,
    H. R. McAlexander, A. Kumar, M. Saitow, X. Wang, B. P. Pritchard,
    P. Verma, H. F. Schaefer III, K. Patkowski, R. A. King, E. F. Valeev,
    F. A. Evangelista, J. M. Turney, T. D. Crawford, and C. D. Sherrill,
    J. Chem. Theory Comput. 13(7) pp 3185--3197 (2017).
    (doi: 10.1021/acs.jctc.7b00174)


                         Additional Contributions by
    P. Kraus, H. Kruse, M. H. Lechner, M. C. Schieber, R. A. Shaw,
    A. Alenaizan, R. Galvelis, Z. L. Glick, S. Lehtola, and J. P. Misiewicz

    -----------------------------------------------------------------------


    Psi4 started on: Wednesday, 02 June 2021 12:34AM

    Process ID: 79033
    Host:       daniele-Precision-5750
    PSIDATADIR: /home/daniele/anaconda3/envs/poltype/share/psi4
    Memory:     500.0 MiB
    Threads:    1
    
  ==> Input File <==

--------------------------------------------------------------------------
molecule { 
0 1
 C   -1.516293    0.309727    0.441485
 C   -2.250471   -0.911809   -0.181067
 C   -0.000960    0.325493    0.172288
 C   -3.767682   -0.921808    0.093488
 C    0.921743    0.381770    1.245306
 C    0.502704    0.339189   -1.151728
 C    2.308368    0.419086    1.002002
 C    1.889739    0.375980   -1.393960
 C    2.793499    0.412314   -0.317549
 H   -1.704754    0.334175    1.522812
 H   -1.949212    1.239320    0.048489
 H   -2.076364   -0.933355   -1.264515
 H   -1.797910   -1.835011    0.205487
 H   -4.250237   -0.029358   -0.319488
 H   -4.238637   -1.799141   -0.362747
 H   -3.974579   -0.954461    1.168465
 H    0.567992    0.393453    2.275297
 H   -0.178687    0.324690   -2.001039
 H    3.005894    0.453583    1.836877
 H    2.262934    0.377906   -2.416487
 H    3.865144    0.438738   -0.505132
}
set optking { 
  frozen_dihedral = ("
    2 1 3 5
    2 1 3 6
    4 2 1 3
    1 2 4 14
  ")
}
set {
  geom_maxiter 400
  g_convergence GAU_LOOSE
  dynamic_level 1
}
memory 700MB
set_num_threads(8)
psi4_io.set_default_path("/home/daniele/PSI4_sctatch/Psi4-propbenzene")
for _ in range(1):
  try:
    set opt_coordinates both
    optimize('wb97x-d/6-311G')
    break
  except OptimizationConvergenceError:
    break
  else:
    try:
      set opt_coordinates cartesian
      optimize('wb97x-d/6-311G')
      break
    except OptimizationConvergenceError:
      pass
clean()
--------------------------------------------------------------------------

  Memory set to 667.572 MiB by Python driver.
  Threads set to 8 by Python driver.
gradient() will perform analytic gradient computation.

*** tstart() called on daniele-Precision-5750
*** at Wed Jun  2 00:34:57 2021

   => Loading Basis Set <=

    Name: 6-311G
    Role: ORBITAL
    Keyword: BASIS
    atoms 1-9   entry C          line    92 file /home/daniele/anaconda3/envs/poltype/share/psi4/basis/6-311g.gbs 
    atoms 10-21 entry H          line    21 file /home/daniele/anaconda3/envs/poltype/share/psi4/basis/6-311g.gbs 


         ---------------------------------------------------------
                                   SCF
               by Justin Turney, Rob Parrish, Andy Simmonett
                          and Daniel G. A. Smith
                              RKS Reference
                        8 Threads,    667 MiB Core
         ---------------------------------------------------------

  ==> Geometry <==

    Molecular point group: c1
    Full point group: C1

    Geometry (in Angstrom), charge = 0, multiplicity = 1:

       Center              X                  Y                   Z               Mass       
    ------------   -----------------  -----------------  -----------------  -----------------
         C           -1.516438155644     0.253485380885     0.448873632915    12.000000000000
         C           -2.250616155644    -0.968050619115    -0.173678367085    12.000000000000
         C           -0.001105155644     0.269251380885     0.179676632915    12.000000000000
         C           -3.767827155644    -0.978049619115     0.100876632915    12.000000000000
         C            0.921597844356     0.325528380885     1.252694632915    12.000000000000
         C            0.502558844356     0.282947380885    -1.144339367085    12.000000000000
         C            2.308222844356     0.362844380885     1.009390632915    12.000000000000
         C            1.889593844356     0.319738380885    -1.386571367085    12.000000000000
         C            2.793353844356     0.356072380885    -0.310160367085    12.000000000000
         H           -1.704899155644     0.277933380885     1.530200632915     1.007825032230
         H           -1.949357155644     1.183078380885     0.055877632915     1.007825032230
         H           -2.076509155644    -0.989596619115    -1.257126367085     1.007825032230
         H           -1.798055155644    -1.891252619115     0.212875632915     1.007825032230
         H           -4.250382155644    -0.085599619115    -0.312099367085     1.007825032230
         H           -4.238782155644    -1.855382619115    -0.355358367085     1.007825032230
         H           -3.974724155644    -1.010702619115     1.175853632915     1.007825032230
         H            0.567846844356     0.337211380885     2.282685632915     1.007825032230
         H           -0.178832155644     0.268448380885    -1.993650367085     1.007825032230
         H            3.005748844356     0.397341380885     1.844265632915     1.007825032230
         H            2.262788844356     0.321664380885    -2.409098367085     1.007825032230
         H            3.864998844356     0.382496380885    -0.497743367085     1.007825032230

  Running in c1 symmetry.

  Rotational constants: A =      0.14705  B =      0.02760  C =      0.02431 [cm^-1]
  Rotational constants: A =   4408.38582  B =    827.29679  C =    728.85541 [MHz]
  Nuclear repulsion =  406.256024539650525

  Charge       = 0
  Multiplicity = 1
  Electrons    = 66
  Nalpha       = 33
  Nbeta        = 33

  ==> Algorithm <==

  SCF Algorithm Type is DF.
  DIIS enabled.
  MOM disabled.
  Fractional occupation disabled.
  Guess Type is SAD.
  Energy threshold   = 1.00e-08
  Density threshold  = 1.00e-08
  Integral threshold = 0.00e+00

  ==> Primary Basis <==

  Basis Set: 6-311G
    Blend: 6-311G
    Number of shells: 99
    Number of basis function: 153
    Number of Cartesian functions: 153
    Spherical Harmonics?: true
    Max angular momentum: 1

  ==> DFT Potential <==

   => Composite Functional: WB97X-D <= 

    wB97X-D Hyb-GGA Exchange-Correlation Functional

    J.-D. Chai and M. Head-Gordon, Phys. Chem. Chem. Phys. 10, 6615 (2008)

    Deriv               =              1
    GGA                 =           TRUE
    Meta                =          FALSE

    Exchange Hybrid     =           TRUE
    MP2 Hybrid          =          FALSE

   => Exchange-Correlation Functionals <=

    1.0000   wB97D range-separated functional

   => Exact (HF) Exchange <=

    0.7780            HF,LR [omega = 0.2000]
    0.2220               HF 

   => Molecular Quadrature <=

    Radial Scheme          =       TREUTLER
    Pruning Scheme         =           FLAT
    Nuclear Scheme         =       TREUTLER

    BS radius alpha        =              1
    Pruning alpha          =              1
    Radial Points          =             75
    Spherical Points       =            302
    Total Points           =         470102
    Total Blocks           =           3467
    Max Points             =            256
    Max Functions          =            133

   => WB97X-D: Empirical Dispersion <=

    Chai and Head-Gordon Dispersion Correction
    Chai, J.-D.; Head-Gordon, M. (2010), J. Chem. Phys., 132: 6615-6620

        s6 =       1.000000

   => Loading Basis Set <=

    Name: (6-311G AUX)
    Role: JKFIT
    Keyword: DF_BASIS_SCF
    atoms 1-9   entry C          line   125 file /home/daniele/anaconda3/envs/poltype/share/psi4/basis/cc-pvtz-jkfit.gbs 
    atoms 10-21 entry H          line    51 file /home/daniele/anaconda3/envs/poltype/share/psi4/basis/cc-pvtz-jkfit.gbs 

  ==> Pre-Iterations <==

   -------------------------------------------------------
    Irrep   Nso     Nmo     Nalpha   Nbeta   Ndocc  Nsocc
   -------------------------------------------------------
     A        153     153       0       0       0       0
   -------------------------------------------------------
    Total     153     153      33      33      33       0
   -------------------------------------------------------

  ==> Integral Setup <==

  ==> DiskDFJK: Density-Fitted J/K Matrices <==

    J tasked:                  Yes
    K tasked:                  Yes
    wK tasked:                 Yes
    Omega:               2.000E-01
    OpenMP threads:              8
    Integrals threads:           8
    Memory [MiB]:              113
    Algorithm:                Disk
    Integral Cache:           NONE
    Schwarz Cutoff:          1E-12
    Fitting Condition:       1E-10

   => Auxiliary Basis Set <=

  Basis Set: (6-311G AUX)
    Blend: CC-PVTZ-JKFIT
    Number of shells: 345
    Number of basis function: 1071
    Number of Cartesian functions: 1284
    Spherical Harmonics?: true
    Max angular momentum: 4

  Cached 33.3% of DFT collocation blocks in 0.435 [GiB].

  Minimum eigenvalue in the overlap matrix is 2.7429160249E-04.
  Using Symmetric Orthogonalization.

  SCF Guess: Superposition of Atomic Densities via on-the-fly atomic UHF.

  ==> Iterations <==

                           Total Energy        Delta E     RMS |[F,P]|

   @DF-RKS iter SAD:  -349.21888059768139   -3.49219e+02   0.00000e+00 
   @DF-RKS iter   1:  -349.71974365491326   -5.00863e-01   5.11804e-03 DIIS
   @DF-RKS iter   2:  -349.90850348334516   -1.88760e-01   3.54680e-03 DIIS
   @DF-RKS iter   3:  -350.06126609328851   -1.52763e-01   2.20784e-04 DIIS
   @DF-RKS iter   4:  -350.06196820919689   -7.02116e-04   1.26833e-04 DIIS
   @DF-RKS iter   5:  -350.06217294739326   -2.04738e-04   1.85541e-05 DIIS
   @DF-RKS iter   6:  -350.06217773929166   -4.79190e-06   7.58463e-06 DIIS
   @DF-RKS iter   7:  -350.06217846415245   -7.24861e-07   1.87928e-06 DIIS
   @DF-RKS iter   8:  -350.06217852218634   -5.80339e-08   5.26356e-07 DIIS
   @DF-RKS iter   9:  -350.06217852629106   -4.10472e-09   1.68777e-07 DIIS
   @DF-RKS iter  10:  -350.06217852689832   -6.07258e-10   4.01420e-08 DIIS
   @DF-RKS iter  11:  -350.06217852694658   -4.82601e-11   2.12249e-08 DIIS
   @DF-RKS iter  12:  -350.06217852695897   -1.23919e-11   5.36751e-09 DIIS
  Energy and wave function converged.


  ==> Post-Iterations <==

    Orbital Energies [Eh]
    ---------------------

    Doubly Occupied:                                                      

       1A    -10.305309     2A    -10.293631     3A    -10.293103  
       4A    -10.291855     5A    -10.291522     6A    -10.290901  
       7A    -10.289416     8A    -10.284674     9A    -10.273323  
      10A     -0.958120    11A     -0.895294    12A     -0.847076  
      13A     -0.844706    14A     -0.777610    15A     -0.705562  
      16A     -0.694726    17A     -0.670123    18A     -0.604220  
      19A     -0.560237    20A     -0.547608    21A     -0.531714  
      22A     -0.515814    23A     -0.508284    24A     -0.497198  
      25A     -0.471134    26A     -0.457270    27A     -0.444493  
      28A     -0.430477    29A     -0.419581    30A     -0.412751  
      31A     -0.404176    32A     -0.327164    33A     -0.316976  

    Virtual:                                                              

      34A      0.061681    35A      0.065859    36A      0.121259  
      37A      0.132785    38A      0.144680    39A      0.160323  
      40A      0.167017    41A      0.174272    42A      0.189685  
      43A      0.201114    44A      0.207067    45A      0.215776  
      46A      0.230616    47A      0.238557    48A      0.246905  
      49A      0.282622    50A      0.298340    51A      0.312006  
      52A      0.350979    53A      0.359601    54A      0.367325  
      55A      0.379544    56A      0.388967    57A      0.401466  
      58A      0.416396    59A      0.422306    60A      0.434597  
      61A      0.468481    62A      0.481848    63A      0.490142  
      64A      0.493931    65A      0.506751    66A      0.519291  
      67A      0.537580    68A      0.550697    69A      0.558766  
      70A      0.578658    71A      0.585445    72A      0.601531  
      73A      0.622913    74A      0.626111    75A      0.640232  
      76A      0.662851    77A      0.672643    78A      0.678723  
      79A      0.685657    80A      0.693521    81A      0.696565  
      82A      0.700614    83A      0.705500    84A      0.714965  
      85A      0.723206    86A      0.728063    87A      0.744039  
      88A      0.750758    89A      0.763911    90A      0.804561  
      91A      0.840188    92A      0.850785    93A      0.873012  
      94A      0.878882    95A      0.919440    96A      0.936169  
      97A      0.964162    98A      0.974492    99A      1.000068  
     100A      1.078269   101A      1.101263   102A      1.126128  
     103A      1.156225   104A      1.204208   105A      1.365762  
     106A      2.300360   107A      2.336811   108A      2.344167  
     109A      2.351827   110A      2.356300   111A      2.387068  
     112A      2.397448   113A      2.405949   114A      2.415137  
     115A      2.432974   116A      2.464333   117A      2.610710  
     118A      2.636342   119A      2.670438   120A      2.693498  
     121A      2.789904   122A      2.816269   123A      2.826622  
     124A      2.849922   125A      2.906923   126A      2.930978  
     127A      2.937783   128A      2.952011   129A      2.975609  
     130A      2.983340   131A      2.995765   132A      3.042992  
     133A      3.072404   134A      3.098681   135A      3.165086  
     136A      3.174196   137A      3.195428   138A      3.215401  
     139A      3.278853   140A      3.305937   141A      3.342907  
     142A      3.365038   143A      3.371863   144A      3.536455  
     145A     23.257253   146A     23.471421   147A     23.483760  
     148A     23.527547   149A     23.633655   150A     23.717004  
     151A     23.730605   152A     23.752056   153A     23.989831  

    Final Occupation by Irrep:
              A 
    DOCC [    33 ]

  @DF-RKS Final Energy:  -350.06217852695897

   => Energetics <=

    Nuclear Repulsion Energy =            406.2560245396505252
    One-Electron Energy =               -1275.1302654628441360
    Two-Electron Energy =                 555.1404323214095484
    DFT Exchange-Correlation Energy =     -36.3169173295402743
    Empirical Dispersion Energy =          -0.0114525956346639
    VV10 Nonlocal Energy =                  0.0000000000000000
    Total Energy =                       -350.0621785269589736

Computation Completed


Properties will be evaluated at   0.000000,   0.000000,   0.000000 [a0]

Properties computed using the SCF density matrix

  Nuclear Dipole Moment: [e a0]
     X:    -9.8155      Y:    -2.4978      Z:     0.2594

  Electronic Dipole Moment: [e a0]
     X:     9.6691      Y:     2.4730      Z:    -0.2628

  Dipole Moment: [e a0]
     X:    -0.1464      Y:    -0.0247      Z:    -0.0034     Total:     0.1485

  Dipole Moment: [D]
     X:    -0.3720      Y:    -0.0628      Z:    -0.0087     Total:     0.3774


*** tstop() called on daniele-Precision-5750 at Wed Jun  2 00:35:08 2021
Module time:
	user time   =      81.45 seconds =       1.36 minutes
	system time =       2.49 seconds =       0.04 minutes
	total time  =         11 seconds =       0.18 minutes
Total time:
	user time   =      81.45 seconds =       1.36 minutes
	system time =       2.49 seconds =       0.04 minutes
	total time  =         11 seconds =       0.18 minutes

*** tstart() called on daniele-Precision-5750
*** at Wed Jun  2 00:35:08 2021


         ------------------------------------------------------------
                                   SCF GRAD                          
                          Rob Parrish, Justin Turney,                
                       Andy Simmonett, and Alex Sokolov              
         ------------------------------------------------------------

  ==> Geometry <==

    Molecular point group: c1
    Full point group: C1

    Geometry (in Angstrom), charge = 0, multiplicity = 1:

       Center              X                  Y                   Z               Mass       
    ------------   -----------------  -----------------  -----------------  -----------------
         C           -1.516438155644     0.253485380885     0.448873632915    12.000000000000
         C           -2.250616155644    -0.968050619115    -0.173678367085    12.000000000000
         C           -0.001105155644     0.269251380885     0.179676632915    12.000000000000
         C           -3.767827155644    -0.978049619115     0.100876632915    12.000000000000
         C            0.921597844356     0.325528380885     1.252694632915    12.000000000000
         C            0.502558844356     0.282947380885    -1.144339367085    12.000000000000
         C            2.308222844356     0.362844380885     1.009390632915    12.000000000000
         C            1.889593844356     0.319738380885    -1.386571367085    12.000000000000
         C            2.793353844356     0.356072380885    -0.310160367085    12.000000000000
         H           -1.704899155644     0.277933380885     1.530200632915     1.007825032230
         H           -1.949357155644     1.183078380885     0.055877632915     1.007825032230
         H           -2.076509155644    -0.989596619115    -1.257126367085     1.007825032230
         H           -1.798055155644    -1.891252619115     0.212875632915     1.007825032230
         H           -4.250382155644    -0.085599619115    -0.312099367085     1.007825032230
         H           -4.238782155644    -1.855382619115    -0.355358367085     1.007825032230
         H           -3.974724155644    -1.010702619115     1.175853632915     1.007825032230
         H            0.567846844356     0.337211380885     2.282685632915     1.007825032230
         H           -0.178832155644     0.268448380885    -1.993650367085     1.007825032230
         H            3.005748844356     0.397341380885     1.844265632915     1.007825032230
         H            2.262788844356     0.321664380885    -2.409098367085     1.007825032230
         H            3.864998844356     0.382496380885    -0.497743367085     1.007825032230

  Nuclear repulsion =  406.256024539650525

  ==> Basis Set <==

  Basis Set: 6-311G
    Blend: 6-311G
    Number of shells: 99
    Number of basis function: 153
    Number of Cartesian functions: 153
    Spherical Harmonics?: true
    Max angular momentum: 1

  ==> DFJKGrad: Density-Fitted SCF Gradients <==

    Gradient:                    1
    J tasked:                  Yes
    K tasked:                  Yes
    wK tasked:                 Yes
    Omega:               2.000E-01
    OpenMP threads:              8
    Integrals threads:           8
    Memory [MiB]:              500
    Schwarz Cutoff:          0E+00
    Fitting Condition:       1E-10

   => Auxiliary Basis Set <=

  Basis Set: (6-311G AUX)
    Blend: CC-PVTZ-JKFIT
    Number of shells: 345
    Number of basis function: 1071
    Number of Cartesian functions: 1284
    Spherical Harmonics?: true
    Max angular momentum: 4

  ==> DFT Potential <==

   => Composite Functional: WB97X-D <= 

    wB97X-D Hyb-GGA Exchange-Correlation Functional

    J.-D. Chai and M. Head-Gordon, Phys. Chem. Chem. Phys. 10, 6615 (2008)

    Deriv               =              1
    GGA                 =           TRUE
    Meta                =          FALSE

    Exchange Hybrid     =           TRUE
    MP2 Hybrid          =          FALSE

   => Exchange-Correlation Functionals <=

    1.0000   wB97D range-separated functional

   => Exact (HF) Exchange <=

    0.7780            HF,LR [omega = 0.2000]
    0.2220               HF 

   => Molecular Quadrature <=

    Radial Scheme          =       TREUTLER
    Pruning Scheme         =           FLAT
    Nuclear Scheme         =       TREUTLER

    BS radius alpha        =              1
    Pruning alpha          =              1
    Radial Points          =             75
    Spherical Points       =            302
    Total Points           =         470102
    Total Blocks           =           3467
    Max Points             =            256
    Max Functions          =            133


  -Total Gradient:
     Atom            X                  Y                   Z
    ------   -----------------  -----------------  -----------------
       1       -0.005802964181     0.003122441090     0.004983365995
       2       -0.001484263078    -0.001551806924    -0.001816339710
       3       -0.001087248598    -0.003478512220    -0.002802968970
       4       -0.004123866224    -0.000120704905     0.000724272859
       5       -0.003807135320     0.002041161327     0.010724628382
       6       -0.007440889925     0.000751584300    -0.007898559414
       7        0.006099661710     0.000289888683     0.007263022355
       8        0.005117764792     0.000170924275    -0.008560143109
       9        0.006413739403     0.000182805600    -0.001872961737
      10       -0.002260771101     0.001816121366     0.002335930713
      11        0.000534666561     0.002409879087     0.001249776368
      12        0.000676867883    -0.001649730235    -0.002249285009
      13        0.000989614808    -0.003076479733    -0.000488874148
      14       -0.001041812786     0.001160216951    -0.001054411350
      15       -0.001139182161    -0.001979674460    -0.000892882082
      16       -0.000595364886    -0.000664798457     0.001623466374
      17        0.000712435949     0.000416642747     0.004794268533
      18       -0.001255145126     0.000141561031    -0.004407407762
      19        0.003136429021     0.000046341585     0.003254273520
      20        0.001950942370    -0.000174486802    -0.004128196374
      21        0.004425393623     0.000068816525    -0.000739381578


*** tstop() called on daniele-Precision-5750 at Wed Jun  2 00:35:13 2021
Module time:
	user time   =      36.72 seconds =       0.61 minutes
	system time =       0.45 seconds =       0.01 minutes
	total time  =          5 seconds =       0.08 minutes
Total time:
	user time   =     118.18 seconds =       1.97 minutes
	system time =       2.94 seconds =       0.05 minutes
	total time  =         16 seconds =       0.27 minutes

			-----------------------------------------
			 OPTKING 2.0: for geometry optimizations 
			  - R.A. King,  Bethel University        
			-----------------------------------------
	At level 1: Red. Int., RFO, no backsteps, dynamic trust

	Internal coordinates to be generated automatically.
	Detected frag 1 with atoms:  1 2 3 4 5 6 7 8 9 10 11 12 13 14 15 16 17 18 19 20
	 21
	---Fragment 1 Bond Connectivity---
	 1 : 2 3 10 11
	 2 : 1 4 12 13
	 3 : 1 5 6
	 4 : 2 14 15 16
	 5 : 3 7 17
	 6 : 3 8 18
	 7 : 5 9 19
	 8 : 6 9 20
	 9 : 7 8 21
	 10 : 1
	 11 : 1
	 12 : 2
	 13 : 2
	 14 : 4
	 15 : 4
	 16 : 4
	 17 : 5
	 18 : 6
	 19 : 7
	 20 : 8
	 21 : 9

	Assuming in current code that numbering for constraints corresponds to unified fragment.
	Frozen dihedral atom list: 
	     2     1     3     5
	     2     1     3     6
	     4     2     1     3
	     1     2     4    14
	---Fragment 1 Geometry and Gradient---
	 C          -2.8656528004        0.4790179467        0.8482482311
	 C          -4.2530481477       -1.8293505457       -0.3282045477
	 C          -0.0020884415        0.5088113688        0.3395396274
	 C          -7.1201614122       -1.8482459172        0.1906292087
	 C           1.7415675236        0.6151594859        2.3672497750
	 C           0.9496985778        0.5346930578       -2.1624879984
	 C           4.3619090124        0.6856765060        1.9074718498
	 C           3.5708148542        0.6042179717       -2.6202401372
	 C           5.2786737373        0.6728792807       -0.5861181488
	 H          -3.2217924757        0.5252179710        2.8916601132
	 H          -3.6837511449        2.2356941248        0.1055934227
	 H          -3.9240336012       -1.8700665848       -2.3756245389
	 H          -3.3978318026       -3.5739494842        0.4022766450
	 H          -8.0320582027       -0.1617598366       -0.5897823277
	 H          -8.0101373796       -3.5061650081       -0.6715299902
	 H          -7.5111400784       -1.9099511444        2.2220413298
	 H           1.0730750170        0.6372371563        4.3136506767
	 H          -0.3379437966        0.5072939187       -3.7674531837
	 H           5.6800421177        0.7508663882        3.4851569488
	 H           4.2760511956        0.6078575842       -4.5525361231
	 H           7.3037892910        0.7228134039       -0.9405986446
	            -0.0058029642        0.0031224411        0.0049833660
	            -0.0014842631       -0.0015518069       -0.0018163397
	            -0.0010872486       -0.0034785122       -0.0028029690
	            -0.0041238662       -0.0001207049        0.0007242729
	            -0.0038071353        0.0020411613        0.0107246284
	            -0.0074408899        0.0007515843       -0.0078985594
	             0.0060996617        0.0002898887        0.0072630224
	             0.0051177648        0.0001709243       -0.0085601431
	             0.0064137394        0.0001828056       -0.0018729617
	            -0.0022607711        0.0018161214        0.0023359307
	             0.0005346666        0.0024098791        0.0012497764
	             0.0006768679       -0.0016497302       -0.0022492850
	             0.0009896148       -0.0030764797       -0.0004888741
	            -0.0010418128        0.0011602170       -0.0010544113
	            -0.0011391822       -0.0019796745       -0.0008928821
	            -0.0005953649       -0.0006647985        0.0016234664
	             0.0007124359        0.0004166427        0.0047942685
	            -0.0012551451        0.0001415610       -0.0044074078
	             0.0031364290        0.0000463416        0.0032542735
	             0.0019509424       -0.0001744868       -0.0041281964
	             0.0044253936        0.0000688165       -0.0007393816

	Previous optimization step data not found.  Starting new optimization.

	---Fragment 1 Intrafragment Coordinates---
	 - Coordinate -           - BOHR/RAD -       - ANG/DEG -
	 R(1,2)           =         2.938958	       1.555229
	 R(1,3)           =         2.908552	       1.539139
	 R(1,10)          =         2.074729	       1.097900
	 R(1,11)          =         2.075267	       1.098184
	 R(2,4)           =         2.913741	       1.541885
	 R(2,12)          =         2.074087	       1.097560
	 R(2,13)          =         2.075722	       1.098425
	 R(3,5)           =         2.676426	       1.416303
	 R(3,6)           =         2.677071	       1.416645
	 R(4,14)          =         2.069984	       1.095388
	 R(4,15)          =         2.069800	       1.095291
	 R(4,16)          =         2.069615	       1.095193
	 R(5,7)           =         2.661308	       1.408303
	 R(5,17)          =         2.058117	       1.089109
	 R(6,8)           =         2.661695	       1.408508
	 R(6,18)          =         2.057835	       1.088960
	 R(7,9)           =         2.656805	       1.405921
	 R(7,19)          =         2.056894	       1.088462
	 R(8,9)           =         2.656906	       1.405974
	 R(8,20)          =         2.056973	       1.088503
	 R(9,21)          =         2.056512	       1.088259
	 B(1,2,4)         =         1.980493	     113.473896
	 B(1,2,12)        =         1.913127	     109.614075
	 B(1,2,13)        =         1.901570	     108.951949
	 B(1,3,5)         =         2.105178	     120.617802
	 B(1,3,6)         =         2.110169	     120.903771
	 B(2,1,3)         =         1.985373	     113.753481
	 B(2,1,10)        =         1.907852	     109.311872
	 B(2,1,11)        =         1.912946	     109.603710
	 B(2,4,14)        =         1.940209	     111.165766
	 B(2,4,15)        =         1.932773	     110.739760
	 B(2,4,16)        =         1.939988	     111.153116
	 B(3,1,10)        =         1.918813	     109.939867
	 B(3,1,11)        =         1.893208	     108.472851
	 B(3,5,7)         =         2.107868	     120.771931
	 B(3,5,17)        =         2.100541	     120.352119
	 B(3,6,8)         =         2.107258	     120.736987
	 B(3,6,18)        =         2.101728	     120.420150
	 B(4,2,12)        =         1.908944	     109.374439
	 B(4,2,13)        =         1.914845	     109.712555
	 B(5,3,6)         =         2.066979	     118.429150
	 B(5,7,9)         =         2.096445	     120.117447
	 B(5,7,19)        =         2.093585	     119.953560
	 B(6,8,9)         =         2.096717	     120.133028
	 B(6,8,20)        =         2.093500	     119.948706
	 B(7,5,17)        =         2.074771	     118.875625
	 B(7,9,8)         =         2.090800	     119.794017
	 B(7,9,21)        =         2.096080	     120.096536
	 B(8,6,18)        =         2.074194	     118.842562
	 B(8,9,21)        =         2.096299	     120.109081
	 B(9,7,19)        =         2.093156	     119.928989
	 B(9,8,20)        =         2.092967	     119.918193
	 B(10,1,11)       =         1.839975	     105.422789
	 B(12,2,13)       =         1.839555	     105.398760
	 B(14,4,15)       =         1.881934	     107.826903
	 B(14,4,16)       =         1.887170	     108.126886
	 B(15,4,16)       =         1.879414	     107.682502
	*D(1,2,4,14)      =         1.050993	      60.217458
	 D(1,2,4,15)      =        -3.140509	    -179.937930
	 D(1,2,4,16)      =        -1.052141	     -60.283256
	 D(1,3,5,7)       =        -3.122786	    -178.922455
	 D(1,3,5,17)      =         0.022468	       1.287335
	 D(1,3,6,8)       =         3.123100	     178.940439
	 D(1,3,6,18)      =        -0.014968	      -0.857590
	*D(2,1,3,5)       =        -2.158724	    -123.685801
	*D(2,1,3,6)       =         1.028128	      58.907368
	*D(3,1,2,4)       =         3.140741	     179.951191
	 D(3,1,2,12)      =        -1.002746	     -57.453117
	 D(3,1,2,13)      =         1.001958	      57.407962
	 D(3,5,7,9)       =         0.009536	       0.546349
	 D(3,5,7,19)      =        -3.132428	    -179.474895
	 D(3,6,8,9)       =        -0.010439	      -0.598107
	 D(3,6,8,20)      =         3.132866	     179.499995
	 D(4,2,1,10)      =         0.988741	      56.650698
	 D(4,2,1,11)      =        -1.019848	     -58.433007
	 D(5,3,1,10)      =        -0.012714	      -0.728453
	 D(5,3,1,11)      =         1.990935	     114.072155
	 D(5,3,6,8)       =         0.025797	       1.478067
	 D(5,3,6,18)      =        -3.112270	    -178.319962
	 D(5,7,9,8)       =         0.006409	       0.367199
	 D(5,7,9,21)      =        -3.139021	    -179.852653
	 D(6,3,1,10)      =        -3.109047	    -178.135284
	 D(6,3,1,11)      =        -1.105399	     -63.334676
	 D(6,3,5,7)       =        -0.025352	      -1.452551
	 D(6,3,5,17)      =         3.119902	     178.757239
	 D(6,8,9,7)       =        -0.005958	      -0.341364
	 D(6,8,9,21)      =         3.139472	     179.878516
	 D(7,9,8,20)      =         3.133923	     179.560565
	 D(8,9,7,19)      =        -3.134813	    -179.611563
	 D(9,7,5,17)      =        -3.135665	    -179.660391
	 D(9,8,6,18)      =         3.127683	     179.203061
	 D(10,1,2,12)     =         3.128440	     179.246391
	 D(10,1,2,13)     =        -1.150042	     -65.892531
	 D(11,1,2,12)     =         1.119850	      64.162685
	 D(11,1,2,13)     =         3.124554	     179.023764
	 D(12,2,4,14)     =        -1.091015	     -62.510569
	 D(12,2,4,15)     =         1.000668	      57.334043
	 D(12,2,4,16)     =         3.089036	     176.988718
	 D(13,2,4,14)     =        -3.100767	    -177.660890
	 D(13,2,4,15)     =        -1.009084	     -57.816278
	 D(13,2,4,16)     =         1.079284	      61.838397
	 D(17,5,7,19)     =         0.005557	       0.318366
	 D(18,6,8,20)     =        -0.012197	      -0.698838
	 D(19,7,9,21)     =         0.002942	       0.168585
	 D(20,8,9,21)     =        -0.003832	      -0.219555

	Current energy   :      -350.0621785270

	Generating empirical Hessian (Schlegel '84) for each fragment.
	Taking RFO optimization step.
	Going to follow RFO solution 1.
	Using RFO vector 1.
	Norm of target step-size    0.13682
	Projected energy change by RFO approximation:        -0.0051455795

	Back-transformation to cartesian coordinates...
	Successfully converged to displaced geometry.

	Back-transformation to cartesian coordinates to adjust frozen coordinates...
	Successfully converged to displaced geometry.

	--- Internal Coordinate Step in ANG or DEG, aJ/ANG or AJ/DEG ---
	 ---------------------------------------------------------------------------
	   Coordinate                Previous        Force       Change         New 
	   ----------                --------       ------       ------       ------
	    1 R(1,2)          =      1.555229    -0.090540    -0.020984     1.534246
	    2 R(1,3)          =      1.539139    -0.122087    -0.026949     1.512190
	    3 R(1,10)         =      1.097900    -0.022514    -0.004201     1.093698
	    4 R(1,11)         =      1.098184    -0.011388    -0.002127     1.096057
	    5 R(2,4)          =      1.541885    -0.056686    -0.012618     1.529267
	    6 R(2,12)         =      1.097560    -0.019459    -0.003627     1.093932
	    7 R(2,13)         =      1.098425    -0.023176    -0.004332     1.094093
	    8 R(3,5)          =      1.416303    -0.140001    -0.020845     1.395459
	    9 R(3,6)          =      1.416645    -0.134172    -0.020025     1.396620
	   10 R(4,14)         =      1.095388    -0.014899    -0.002758     1.092630
	   11 R(4,15)         =      1.095291    -0.020111    -0.003721     1.091570
	   12 R(4,16)         =      1.095193    -0.014236    -0.002633     1.092560
	   13 R(5,7)          =      1.408303    -0.108322    -0.015523     1.392780
	   14 R(5,17)         =      1.089109    -0.035451    -0.006429     1.082680
	   15 R(6,8)          =      1.408508    -0.118818    -0.017073     1.391436
	   16 R(6,18)         =      1.088960    -0.034807    -0.006309     1.082651
	   17 R(7,9)          =      1.405921    -0.105755    -0.014848     1.391073
	   18 R(7,19)         =      1.088462    -0.037105    -0.006715     1.081747
	   19 R(8,9)          =      1.405974    -0.098257    -0.013800     1.392174
	   20 R(8,20)         =      1.088503    -0.037492    -0.006786     1.081718
	   21 R(9,21)         =      1.088259    -0.036970    -0.006686     1.081574
	   22 B(1,2,4)        =    113.473896    -0.000248    -1.101260   112.372636
	   23 B(1,2,12)       =    109.614075     0.000051    -0.138449   109.475626
	   24 B(1,2,13)       =    108.951949     0.000018    -0.193423   108.758526
	   25 B(1,3,5)        =    120.617802     0.000065     0.227903   120.845705
	   26 B(1,3,6)        =    120.903771    -0.000095    -0.243398   120.660373
	   27 B(2,1,3)        =    113.753481    -0.000031    -0.340451   113.413029
	   28 B(2,1,10)       =    109.311872     0.000018    -0.095725   109.216147
	   29 B(2,1,11)       =    109.603710    -0.000110    -0.672244   108.931466
	   30 B(2,4,14)       =    111.165766    -0.000022    -0.158266   111.007501
	   31 B(2,4,15)       =    110.739760     0.000002     0.124186   110.863947
	   32 B(2,4,16)       =    111.153116    -0.000024    -0.156758   110.996358
	   33 B(3,1,10)       =    109.939867    -0.000058    -0.679442   109.260425
	   34 B(3,1,11)       =    108.472851     0.000097     0.723151   109.196002
	   35 B(3,5,7)        =    120.771931     0.000053     0.143225   120.915156
	   36 B(3,5,17)       =    120.352119    -0.000203    -0.875912   119.476207
	   37 B(3,6,8)        =    120.736987     0.000045     0.102709   120.839696
	   38 B(3,6,18)       =    120.420150    -0.000162    -0.687324   119.732825
	   39 B(4,2,12)       =    109.374439     0.000059     0.194249   109.568688
	   40 B(4,2,13)       =    109.712555     0.000116     0.370873   110.083428
	   41 B(5,3,6)        =    118.429150     0.000030     0.015480   118.444630
	   42 B(5,7,9)        =    120.117447    -0.000015     0.000990   120.118437
	   43 B(5,7,19)       =    119.953560    -0.000018    -0.116636   119.836924
	   44 B(6,8,9)        =    120.133028     0.000009     0.069755   120.202783
	   45 B(6,8,20)       =    119.948706    -0.000036    -0.177415   119.771292
	   46 B(7,5,17)       =    118.875625     0.000149     0.732639   119.608263
	   47 B(7,9,8)        =    119.794017    -0.000122    -0.323989   119.470028
	   48 B(7,9,21)       =    120.096536     0.000063     0.169313   120.265848
	   49 B(8,6,18)       =    118.842562     0.000117     0.584197   119.426760
	   50 B(8,9,21)       =    120.109081     0.000059     0.154571   120.263652
	   51 B(9,7,19)       =    119.928989     0.000033     0.115541   120.044530
	   52 B(9,8,20)       =    119.918193     0.000027     0.106978   120.025171
	   53 B(10,1,11)      =    105.422789     0.000094     1.175130   106.597919
	   54 B(12,2,13)      =    105.398760     0.000024     1.001722   106.400482
	   55 B(14,4,15)      =    107.826903     0.000011     0.143288   107.970191
	   56 B(14,4,16)      =    108.126886     0.000006    -0.193574   107.933312
	   57 B(15,4,16)      =    107.682502     0.000030     0.253663   107.936164
	   58 *D(1,2,4,14)    =     60.217458     0.000000     0.000000    60.217458
	   59 D(1,2,4,15)     =   -179.937930     0.000000     0.158283  -179.779647
	   60 D(1,2,4,16)     =    -60.283256     0.000005     0.456295   -59.826960
	   61 D(1,3,5,7)      =   -178.922455     0.000003     0.408152  -178.514303
	   62 D(1,3,5,17)     =      1.287335     0.000003     0.421686     1.709021
	   63 D(1,3,6,8)      =    178.940439    -0.000002    -0.386654   178.553785
	   64 D(1,3,6,18)     =     -0.857590    -0.000002    -0.278247    -1.135837
	   65 *D(2,1,3,5)     =   -123.685801     0.000000     0.000000  -123.685801
	   66 *D(2,1,3,6)     =     58.907368    -0.000000    -0.000000    58.907368
	   67 *D(3,1,2,4)     =    179.951191    -0.000000     0.000000   179.951191
	   68 D(3,1,2,12)     =    -57.453117    -0.000014    -0.607525   -58.060642
	   69 D(3,1,2,13)     =     57.407962     0.000002     0.405086    57.813048
	   70 D(3,5,7,9)      =      0.546349    -0.000001    -0.164645     0.381703
	   71 D(3,5,7,19)     =   -179.474895    -0.000002    -0.263422  -179.738317
	   72 D(3,6,8,9)      =     -0.598107     0.000001     0.146243    -0.451864
	   73 D(3,6,8,20)     =    179.499995     0.000002     0.364138   179.864133
	   74 D(4,2,1,10)     =     56.650698     0.000019     1.187236    57.837935
	   75 D(4,2,1,11)     =    -58.433007     0.000005     0.208037   -58.224970
	   76 D(5,3,1,10)     =     -0.728453    -0.000010    -0.868724    -1.597178
	   77 D(5,3,1,11)     =    114.072155     0.000021     0.565933   114.638088
	   78 D(5,3,6,8)      =      1.478067    -0.000002    -0.392281     1.085787
	   79 D(5,3,6,18)     =   -178.319962    -0.000002    -0.283874  -178.603836
	   80 D(5,7,9,8)      =      0.367199    -0.000001    -0.091923     0.275276
	   81 D(5,7,9,21)     =   -179.852653    -0.000001    -0.121329  -179.973982
	   82 D(6,3,1,10)     =   -178.135284    -0.000010    -0.868724  -179.004009
	   83 D(6,3,1,11)     =    -63.334676     0.000021     0.565933   -62.768744
	   84 D(6,3,5,7)      =     -1.452551     0.000002     0.401366    -1.051186
	   85 D(6,3,5,17)     =    178.757239     0.000002     0.414900   179.172139
	   86 D(6,8,9,7)      =     -0.341364     0.000001     0.100972    -0.240392
	   87 D(6,8,9,21)     =    179.878516     0.000001     0.130344   180.008860
	   88 D(7,9,8,20)     =    179.560565    -0.000001    -0.117760   179.442805
	   89 D(8,9,7,19)     =   -179.611563     0.000000     0.007110  -179.604453
	   90 D(9,7,5,17)     =   -179.660391    -0.000001    -0.181522  -179.841913
	   91 D(9,8,6,18)     =    179.203061     0.000000     0.035637   179.238698
	   92 D(10,1,2,12)    =    179.246391     0.000006     0.579712   179.826102
	   93 D(10,1,2,13)    =    -65.892531     0.000021     1.592322   -64.300208
	   94 D(11,1,2,12)    =     64.162685    -0.000009    -0.399488    63.763197
	   95 D(11,1,2,13)    =    179.023764     0.000007     0.613123   179.636886
	   96 D(12,2,4,14)    =    -62.510569     0.000015     0.792742   -61.717827
	   97 D(12,2,4,15)    =     57.334043     0.000015     0.951025    58.285068
	   98 D(12,2,4,16)    =    176.988718     0.000020     1.249037   178.237755
	   99 D(13,2,4,14)    =   -177.660890    -0.000015    -0.738065  -178.398954
	  100 D(13,2,4,15)    =    -57.816278    -0.000015    -0.579782   -58.396059
	  101 D(13,2,4,16)    =     61.838397    -0.000009    -0.281770    61.556628
	  102 D(17,5,7,19)    =      0.318366    -0.000002    -0.280299     0.038067
	  103 D(18,6,8,20)    =     -0.698838     0.000002     0.253533    -0.445305
	  104 D(19,7,9,21)    =      0.168585    -0.000000    -0.022296     0.146289
	  105 D(20,8,9,21)    =     -0.219555    -0.000001    -0.088388    -0.307943
	 ---------------------------------------------------------------------------
	Successfully symmetrized geometry.

  ==> Convergence Check <==

  Measures of convergence in internal coordinates in au.
  Criteria marked as inactive (o), active & met (*), and active & unmet ( ).
  --------------------------------------------------------------------------------------------- ~
   Step     Total Energy     Delta E     MAX Force     RMS Force      MAX Disp      RMS Disp    ~
  --------------------------------------------------------------------------------------------- ~
    Convergence Criteria             o    2.50e-03 *    1.70e-03 *    1.00e-02 *    6.70e-03 *  ~
  --------------------------------------------------------------------------------------------- ~
      1    -350.06217853   -3.50e+02 o    1.70e-02      4.16e-03      5.09e-02      1.34e-02    ~
  ---------------------------------------------------------------------------------------------

	Writing optimization data to binary file.
	Structure for next step:
	Cartesian Geometry (in Angstrom)
	    C    -1.4978057357   0.2417294194   0.4468753330
	    C    -2.2143556318  -0.9689217763  -0.1653258725
	    C    -0.0099788118   0.2590452239   0.1770785176
	    C    -3.7162430576  -0.9633161422   0.1227038921
	    C     0.9069820575   0.3183158116   1.2273044385
	    C     0.4763581335   0.2703364469  -1.1320802946
	    C     2.2767344941   0.3652916711   0.9794997198
	    C     1.8439100547   0.3164277942  -1.3846100203
	    C     2.7499713578   0.3615765229  -0.3285966669
	    H    -1.6687330635   0.2528495135   1.5270770431
	    H    -1.9468506318   1.1591658066   0.0493711345
	    H    -2.0486852027  -0.9824319378  -1.2465559375
	    H    -1.7597306488  -1.8829313697   0.2282999644
	    H    -4.1907318073  -0.0694102586  -0.2891625403
	    H    -4.2002473571  -1.8358368064  -0.3199830514
	    H    -3.9086954243  -0.9812117331   1.1980311890
	    H     0.5476346041   0.3241930256   2.2485930153
	    H    -0.2175071178   0.2480357906  -1.9628546398
	    H     2.9722670120   0.4066653910   1.8069654285
	    H     2.2017074771   0.3222656401  -2.4054236661
	    H     3.8131820685   0.3975689749  -0.5237616962
			--------------------------
			 OPTKING Finished Execution 
			--------------------------

    Structure for next step:
    Molecular point group: c1
    Full point group: C1

    Geometry (in Angstrom), charge = 0, multiplicity = 1:

    C           -1.491969091249     0.243860459630     0.449979445589
    C           -2.208518990162    -0.966790740742    -0.162221762372
    C           -0.004142161510     0.261176264216     0.180182629106
    C           -3.710406421884    -0.961185106659     0.125808003380
    C            0.912818711432     0.320446852223     1.230408554134
    C            0.482194785739     0.272467487332    -1.128976188302
    C            2.282571153397     0.367422711884     0.982603834438
    C            1.849746712250     0.318558834819    -1.381505915004
    C            2.755808018908     0.363707563697    -0.325492557381
    H           -1.662896419687     0.254980553784     1.530181159868
    H           -1.941013989171     1.161296850450     0.052475245522
    H           -2.042848560408    -0.980300902330    -1.243451831655
    H           -1.753894005350    -1.880800337809     0.231404076068
    H           -4.184895173452    -0.067279219509    -0.286058430696
    H           -4.194410723294    -1.833705774336    -0.316878941887
    H           -3.902858789332    -0.979080697656     1.201135304527
    H            0.553471256592     0.326324066202     2.251697134945
    H           -0.211670468297     0.250166830902    -1.959750536757
    H            2.978103673985     0.408796431888     1.810069546397
    H            2.207544136059     0.324396680666    -2.402319564785
    H            3.819018733777     0.399700015790    -0.520657587431

gradient() will perform analytic gradient computation.

*** tstart() called on daniele-Precision-5750
*** at Wed Jun  2 00:35:13 2021

   => Loading Basis Set <=

    Name: 6-311G
    Role: ORBITAL
    Keyword: BASIS
    atoms 1-9   entry C          line    92 file /home/daniele/anaconda3/envs/poltype/share/psi4/basis/6-311g.gbs 
    atoms 10-21 entry H          line    21 file /home/daniele/anaconda3/envs/poltype/share/psi4/basis/6-311g.gbs 


         ---------------------------------------------------------
                                   SCF
               by Justin Turney, Rob Parrish, Andy Simmonett
                          and Daniel G. A. Smith
                              RKS Reference
                        8 Threads,    667 MiB Core
         ---------------------------------------------------------

  ==> Geometry <==

    Molecular point group: c1
    Full point group: C1

    Geometry (in Angstrom), charge = 0, multiplicity = 1:

       Center              X                  Y                   Z               Mass       
    ------------   -----------------  -----------------  -----------------  -----------------
         C           -1.491969091249     0.243860459630     0.449979445589    12.000000000000
         C           -2.208518990162    -0.966790740742    -0.162221762372    12.000000000000
         C           -0.004142161510     0.261176264216     0.180182629106    12.000000000000
         C           -3.710406421884    -0.961185106659     0.125808003380    12.000000000000
         C            0.912818711432     0.320446852223     1.230408554134    12.000000000000
         C            0.482194785739     0.272467487332    -1.128976188302    12.000000000000
         C            2.282571153397     0.367422711884     0.982603834438    12.000000000000
         C            1.849746712250     0.318558834819    -1.381505915004    12.000000000000
         C            2.755808018908     0.363707563697    -0.325492557381    12.000000000000
         H           -1.662896419687     0.254980553784     1.530181159868     1.007825032230
         H           -1.941013989171     1.161296850450     0.052475245522     1.007825032230
         H           -2.042848560408    -0.980300902330    -1.243451831655     1.007825032230
         H           -1.753894005350    -1.880800337809     0.231404076068     1.007825032230
         H           -4.184895173452    -0.067279219509    -0.286058430696     1.007825032230
         H           -4.194410723294    -1.833705774336    -0.316878941887     1.007825032230
         H           -3.902858789332    -0.979080697656     1.201135304527     1.007825032230
         H            0.553471256592     0.326324066202     2.251697134945     1.007825032230
         H           -0.211670468297     0.250166830902    -1.959750536757     1.007825032230
         H            2.978103673985     0.408796431888     1.810069546397     1.007825032230
         H            2.207544136059     0.324396680666    -2.402319564785     1.007825032230
         H            3.819018733777     0.399700015790    -0.520657587431     1.007825032230

  Running in c1 symmetry.

  Rotational constants: A =      0.15083  B =      0.02842  C =      0.02502 [cm^-1]
  Rotational constants: A =   4521.80762  B =    852.07415  C =    750.10032 [MHz]
  Nuclear repulsion =  411.353096463039549

  Charge       = 0
  Multiplicity = 1
  Electrons    = 66
  Nalpha       = 33
  Nbeta        = 33

  ==> Algorithm <==

  SCF Algorithm Type is DF.
  DIIS enabled.
  MOM disabled.
  Fractional occupation disabled.
  Guess Type is READ.
  Energy threshold   = 1.00e-08
  Density threshold  = 1.00e-08
  Integral threshold = 0.00e+00

  ==> Primary Basis <==

  Basis Set: 6-311G
    Blend: 6-311G
    Number of shells: 99
    Number of basis function: 153
    Number of Cartesian functions: 153
    Spherical Harmonics?: true
    Max angular momentum: 1

  ==> DFT Potential <==

   => Composite Functional: WB97X-D <= 

    wB97X-D Hyb-GGA Exchange-Correlation Functional

    J.-D. Chai and M. Head-Gordon, Phys. Chem. Chem. Phys. 10, 6615 (2008)

    Deriv               =              1
    GGA                 =           TRUE
    Meta                =          FALSE

    Exchange Hybrid     =           TRUE
    MP2 Hybrid          =          FALSE

   => Exchange-Correlation Functionals <=

    1.0000   wB97D range-separated functional

   => Exact (HF) Exchange <=

    0.7780            HF,LR [omega = 0.2000]
    0.2220               HF 

   => Molecular Quadrature <=

    Radial Scheme          =       TREUTLER
    Pruning Scheme         =           FLAT
    Nuclear Scheme         =       TREUTLER

    BS radius alpha        =              1
    Pruning alpha          =              1
    Radial Points          =             75
    Spherical Points       =            302
    Total Points           =         470084
    Total Blocks           =           3457
    Max Points             =            256
    Max Functions          =            135

   => WB97X-D: Empirical Dispersion <=

    Chai and Head-Gordon Dispersion Correction
    Chai, J.-D.; Head-Gordon, M. (2010), J. Chem. Phys., 132: 6615-6620

        s6 =       1.000000

   => Loading Basis Set <=

    Name: (6-311G AUX)
    Role: JKFIT
    Keyword: DF_BASIS_SCF
    atoms 1-9   entry C          line   125 file /home/daniele/anaconda3/envs/poltype/share/psi4/basis/cc-pvtz-jkfit.gbs 
    atoms 10-21 entry H          line    51 file /home/daniele/anaconda3/envs/poltype/share/psi4/basis/cc-pvtz-jkfit.gbs 

   => Loading Basis Set <=

    Name: 6-311G
    Role: ORBITAL
    Keyword: BASIS
    atoms 1-9   entry C          line    92 file /home/daniele/anaconda3/envs/poltype/share/psi4/basis/6-311g.gbs 
    atoms 10-21 entry H          line    21 file /home/daniele/anaconda3/envs/poltype/share/psi4/basis/6-311g.gbs 

  Reading orbitals from file 180, no projection.

  ==> Pre-Iterations <==

   -------------------------------------------------------
    Irrep   Nso     Nmo     Nalpha   Nbeta   Ndocc  Nsocc
   -------------------------------------------------------
     A        153     153       0       0       0       0
   -------------------------------------------------------
    Total     153     153      33      33      33       0
   -------------------------------------------------------

  ==> Integral Setup <==

  ==> DiskDFJK: Density-Fitted J/K Matrices <==

    J tasked:                  Yes
    K tasked:                  Yes
    wK tasked:                 Yes
    Omega:               2.000E-01
    OpenMP threads:              8
    Integrals threads:           8
    Memory [MiB]:              114
    Algorithm:                Disk
    Integral Cache:           NONE
    Schwarz Cutoff:          1E-12
    Fitting Condition:       1E-10

   => Auxiliary Basis Set <=

  Basis Set: (6-311G AUX)
    Blend: CC-PVTZ-JKFIT
    Number of shells: 345
    Number of basis function: 1071
    Number of Cartesian functions: 1284
    Spherical Harmonics?: true
    Max angular momentum: 4

  Cached 33.4% of DFT collocation blocks in 0.434 [GiB].

  Minimum eigenvalue in the overlap matrix is 2.4222128475E-04.
  Using Symmetric Orthogonalization.

  SCF Guess: Orbitals guess was supplied from a previous computation.

  ==> Iterations <==

                           Total Energy        Delta E     RMS |[F,P]|

   @DF-RKS iter   0:  -350.13724934726537   -3.50137e+02   6.43207e-04 
   @DF-RKS iter   1:  -350.06423705499395    7.30123e-02   1.06077e-04 DIIS
   @DF-RKS iter   2:  -350.06434059108113   -1.03536e-04   7.69317e-05 DIIS
   @DF-RKS iter   3:  -350.06441338414180   -7.27931e-05   7.22830e-06 DIIS
   @DF-RKS iter   4:  -350.06441425799801   -8.73856e-07   3.63607e-06 DIIS
   @DF-RKS iter   5:  -350.06441445063331   -1.92635e-07   1.28951e-06 DIIS
   @DF-RKS iter   6:  -350.06441448131250   -3.06792e-08   5.32185e-07 DIIS
   @DF-RKS iter   7:  -350.06441448595336   -4.64087e-09   1.14171e-07 DIIS
   @DF-RKS iter   8:  -350.06441448663361   -6.80245e-10   4.09042e-08 DIIS
   @DF-RKS iter   9:  -350.06441448670296   -6.93490e-11   1.98732e-08 DIIS
   @DF-RKS iter  10:  -350.06441448672325   -2.02931e-11   5.49485e-09 DIIS
  Energy and wave function converged.


  ==> Post-Iterations <==

    Orbital Energies [Eh]
    ---------------------

    Doubly Occupied:                                                      

       1A    -10.297035     2A    -10.288380     3A    -10.288024  
       4A    -10.286009     5A    -10.285516     6A    -10.285415  
       7A    -10.284094     8A    -10.280903     9A    -10.270814  
      10A     -0.967057    11A     -0.902562    12A     -0.851533  
      13A     -0.848625    14A     -0.779577    15A     -0.708590  
      16A     -0.696382    17A     -0.671172    18A     -0.608864  
      19A     -0.566029    20A     -0.547124    21A     -0.535454  
      22A     -0.518986    23A     -0.509730    24A     -0.499725  
      25A     -0.472058    26A     -0.458546    27A     -0.447481  
      28A     -0.430872    29A     -0.420139    30A     -0.412804  
      31A     -0.404870    32A     -0.329093    33A     -0.318514  

    Virtual:                                                              

      34A      0.065345    35A      0.070169    36A      0.121844  
      37A      0.134300    38A      0.144513    39A      0.161381  
      40A      0.167309    41A      0.175426    42A      0.192129  
      43A      0.203134    44A      0.209406    45A      0.217857  
      46A      0.237810    47A      0.244100    48A      0.250422  
      49A      0.289070    50A      0.307904    51A      0.317020  
      52A      0.356540    53A      0.365440    54A      0.373264  
      55A      0.385701    56A      0.392960    57A      0.404850  
      58A      0.420936    59A      0.423362    60A      0.439245  
      61A      0.476424    62A      0.482229    63A      0.494756  
      64A      0.500669    65A      0.511416    66A      0.526035  
      67A      0.540489    68A      0.550970    69A      0.560509  
      70A      0.585462    71A      0.590672    72A      0.607803  
      73A      0.629735    74A      0.632983    75A      0.644395  
      76A      0.668583    77A      0.677340    78A      0.680787  
      79A      0.690337    80A      0.695770    81A      0.701697  
      82A      0.702992    83A      0.714093    84A      0.718826  
      85A      0.730217    86A      0.733358    87A      0.746885  
      88A      0.754178    89A      0.769284    90A      0.812976  
      91A      0.843746    92A      0.856366    93A      0.881158  
      94A      0.894299    95A      0.929558    96A      0.947869  
      97A      0.973586    98A      0.982749    99A      1.011424  
     100A      1.082589   101A      1.106208   102A      1.134097  
     103A      1.161750   104A      1.207738   105A      1.373435  
     106A      2.306119   107A      2.337355   108A      2.347632  
     109A      2.353916   110A      2.362682   111A      2.391905  
     112A      2.401450   113A      2.410352   114A      2.419003  
     115A      2.440906   116A      2.474642   117A      2.622620  
     118A      2.643090   119A      2.674249   120A      2.699212  
     121A      2.771466   122A      2.803159   123A      2.825376  
     124A      2.851871   125A      2.908041   126A      2.921209  
     127A      2.935350   128A      2.952781   129A      2.983279  
     130A      2.987858   131A      2.996981   132A      3.049916  
     133A      3.076456   134A      3.108733   135A      3.178498  
     136A      3.187350   137A      3.205387   138A      3.229629  
     139A      3.296351   140A      3.323880   141A      3.362793  
     142A      3.397930   143A      3.406521   144A      3.549842  
     145A     23.257138   146A     23.474662   147A     23.489501  
     148A     23.533569   149A     23.642213   150A     23.734212  
     151A     23.756174   152A     23.770848   153A     24.027122  

    Final Occupation by Irrep:
              A 
    DOCC [    33 ]

  @DF-RKS Final Energy:  -350.06441448672325

   => Energetics <=

    Nuclear Repulsion Energy =            411.3530964630395488
    One-Electron Energy =               -1285.2434528421524647
    Two-Electron Energy =                 560.2360226322051631
    DFT Exchange-Correlation Energy =     -36.3984719093726454
    Empirical Dispersion Energy =          -0.0116088304428041
    VV10 Nonlocal Energy =                  0.0000000000000000
    Total Energy =                       -350.0644144867232512

Computation Completed


Properties will be evaluated at   0.000000,   0.000000,   0.000000 [a0]

Properties computed using the SCF density matrix

  Nuclear Dipole Moment: [e a0]
     X:    -9.6900      Y:    -2.4520      Z:     0.3261

  Electronic Dipole Moment: [e a0]
     X:     9.5482      Y:     2.4299      Z:    -0.3302

  Dipole Moment: [e a0]
     X:    -0.1418      Y:    -0.0221      Z:    -0.0041     Total:     0.1435

  Dipole Moment: [D]
     X:    -0.3603      Y:    -0.0561      Z:    -0.0103     Total:     0.3648


*** tstop() called on daniele-Precision-5750 at Wed Jun  2 00:35:22 2021
Module time:
	user time   =      69.10 seconds =       1.15 minutes
	system time =       2.05 seconds =       0.03 minutes
	total time  =          9 seconds =       0.15 minutes
Total time:
	user time   =     188.50 seconds =       3.14 minutes
	system time =       5.05 seconds =       0.08 minutes
	total time  =         25 seconds =       0.42 minutes

*** tstart() called on daniele-Precision-5750
*** at Wed Jun  2 00:35:22 2021


         ------------------------------------------------------------
                                   SCF GRAD                          
                          Rob Parrish, Justin Turney,                
                       Andy Simmonett, and Alex Sokolov              
         ------------------------------------------------------------

  ==> Geometry <==

    Molecular point group: c1
    Full point group: C1

    Geometry (in Angstrom), charge = 0, multiplicity = 1:

       Center              X                  Y                   Z               Mass       
    ------------   -----------------  -----------------  -----------------  -----------------
         C           -1.491969091249     0.243860459630     0.449979445589    12.000000000000
         C           -2.208518990162    -0.966790740742    -0.162221762372    12.000000000000
         C           -0.004142161510     0.261176264216     0.180182629106    12.000000000000
         C           -3.710406421884    -0.961185106659     0.125808003380    12.000000000000
         C            0.912818711432     0.320446852223     1.230408554134    12.000000000000
         C            0.482194785739     0.272467487332    -1.128976188302    12.000000000000
         C            2.282571153397     0.367422711884     0.982603834438    12.000000000000
         C            1.849746712250     0.318558834819    -1.381505915004    12.000000000000
         C            2.755808018908     0.363707563697    -0.325492557381    12.000000000000
         H           -1.662896419687     0.254980553784     1.530181159868     1.007825032230
         H           -1.941013989171     1.161296850450     0.052475245522     1.007825032230
         H           -2.042848560408    -0.980300902330    -1.243451831655     1.007825032230
         H           -1.753894005350    -1.880800337809     0.231404076068     1.007825032230
         H           -4.184895173452    -0.067279219509    -0.286058430696     1.007825032230
         H           -4.194410723294    -1.833705774336    -0.316878941887     1.007825032230
         H           -3.902858789332    -0.979080697656     1.201135304527     1.007825032230
         H            0.553471256592     0.326324066202     2.251697134945     1.007825032230
         H           -0.211670468297     0.250166830902    -1.959750536757     1.007825032230
         H            2.978103673985     0.408796431888     1.810069546397     1.007825032230
         H            2.207544136059     0.324396680666    -2.402319564785     1.007825032230
         H            3.819018733777     0.399700015790    -0.520657587431     1.007825032230

  Nuclear repulsion =  411.353096463039549

  ==> Basis Set <==

  Basis Set: 6-311G
    Blend: 6-311G
    Number of shells: 99
    Number of basis function: 153
    Number of Cartesian functions: 153
    Spherical Harmonics?: true
    Max angular momentum: 1

  ==> DFJKGrad: Density-Fitted SCF Gradients <==

    Gradient:                    1
    J tasked:                  Yes
    K tasked:                  Yes
    wK tasked:                 Yes
    Omega:               2.000E-01
    OpenMP threads:              8
    Integrals threads:           8
    Memory [MiB]:              500
    Schwarz Cutoff:          0E+00
    Fitting Condition:       1E-10

   => Auxiliary Basis Set <=

  Basis Set: (6-311G AUX)
    Blend: CC-PVTZ-JKFIT
    Number of shells: 345
    Number of basis function: 1071
    Number of Cartesian functions: 1284
    Spherical Harmonics?: true
    Max angular momentum: 4

  ==> DFT Potential <==

   => Composite Functional: WB97X-D <= 

    wB97X-D Hyb-GGA Exchange-Correlation Functional

    J.-D. Chai and M. Head-Gordon, Phys. Chem. Chem. Phys. 10, 6615 (2008)

    Deriv               =              1
    GGA                 =           TRUE
    Meta                =          FALSE

    Exchange Hybrid     =           TRUE
    MP2 Hybrid          =          FALSE

   => Exchange-Correlation Functionals <=

    1.0000   wB97D range-separated functional

   => Exact (HF) Exchange <=

    0.7780            HF,LR [omega = 0.2000]
    0.2220               HF 

   => Molecular Quadrature <=

    Radial Scheme          =       TREUTLER
    Pruning Scheme         =           FLAT
    Nuclear Scheme         =       TREUTLER

    BS radius alpha        =              1
    Pruning alpha          =              1
    Radial Points          =             75
    Spherical Points       =            302
    Total Points           =         470084
    Total Blocks           =           3457
    Max Points             =            256
    Max Functions          =            135


  -Total Gradient:
     Atom            X                  Y                   Z
    ------   -----------------  -----------------  -----------------
       1       -0.001291751515    -0.000159024369     0.001218039524
       2        0.000689938492     0.001024860471    -0.000629332462
       3        0.002654718124    -0.004478666878    -0.002039242966
       4        0.000018757653     0.001308230006     0.000646867650
       5       -0.001343204577     0.001809652883    -0.001276207496
       6       -0.001338873671     0.000692584642     0.002360006677
       7       -0.000924833940     0.000104549427    -0.001101852913
       8        0.000329607936     0.000077907098     0.001751449687
       9       -0.001624082671    -0.000057356886    -0.000126847866
      10        0.000546233734    -0.000154941282     0.000053611582
      11        0.000435400708     0.000104008914    -0.000332862586
      12        0.000273791541     0.000289367915    -0.000260235416
      13        0.000260376574     0.000059765829     0.000261317273
      14        0.000143969103    -0.000150554707    -0.000163641077
      15        0.000642356739    -0.000265412034    -0.000285859284
      16        0.000184668581    -0.000146731185    -0.000032947176
      17        0.000363653009    -0.000005677519    -0.000200857715
      18        0.000214250115    -0.000080320674     0.000090769803
      19       -0.000083932123     0.000013886582    -0.000188005615
      20       -0.000085509475    -0.000010777864     0.000233330978
      21       -0.000012506473    -0.000030527365     0.000041383925


*** tstop() called on daniele-Precision-5750 at Wed Jun  2 00:35:27 2021
Module time:
	user time   =      37.23 seconds =       0.62 minutes
	system time =       0.39 seconds =       0.01 minutes
	total time  =          5 seconds =       0.08 minutes
Total time:
	user time   =     225.74 seconds =       3.76 minutes
	system time =       5.44 seconds =       0.09 minutes
	total time  =         30 seconds =       0.50 minutes

			-----------------------------------------
			 OPTKING 2.0: for geometry optimizations 
			  - R.A. King,  Bethel University        
			-----------------------------------------
	At level 1: Red. Int., RFO, no backsteps, dynamic trust

	Previous internal coordinate definitions found.
	---Fragment 1 Geometry and Gradient---
	 C          -2.8194129701        0.4608294815        0.8503379142
	 C          -4.1734960343       -1.8269697206       -0.3065547025
	 C          -0.0078275508        0.4935516098        0.3404958216
	 C          -7.0116519515       -1.8163766075        0.2377426708
	 C           1.7249773668        0.6055567885        2.3251351897
	 C           0.9112160842        0.5148889291       -2.1334557981
	 C           4.3134343418        0.6943282977        1.8568521369
	 C           3.4955146876        0.6019889527       -2.6106678201
	 C           5.2077224101        0.6873076851       -0.6150917893
	 H          -3.1424188082        0.4818434140        2.8916233145
	 H          -3.6679848452        2.1945329977        0.0991638424
	 H          -3.8604242950       -1.8525002259       -2.3497834120
	 H          -3.3143793232       -3.5541975351        0.4372903281
	 H          -7.9083057416       -0.1271392988       -0.5405720899
	 H          -7.9262875247       -3.4652017082       -0.5988144151
	 H          -7.3753342182       -1.8501943733        2.2698167652
	 H           1.0459090933        0.6166631133        4.2550909025
	 H          -0.3999992139        0.4727467961       -3.7033917887
	 H           5.6278003171        0.7725132973        3.4205357107
	 H           4.1716538270        0.6130208825       -4.5397260433
	 H           7.2168994748        0.7553235622       -0.9839002454
	            -0.0012917515       -0.0001590244        0.0012180395
	             0.0006899385        0.0010248605       -0.0006293325
	             0.0026547181       -0.0044786669       -0.0020392430
	             0.0000187577        0.0013082300        0.0006468677
	            -0.0013432046        0.0018096529       -0.0012762075
	            -0.0013388737        0.0006925846        0.0023600067
	            -0.0009248339        0.0001045494       -0.0011018529
	             0.0003296079        0.0000779071        0.0017514497
	            -0.0016240827       -0.0000573569       -0.0001268479
	             0.0005462337       -0.0001549413        0.0000536116
	             0.0004354007        0.0001040089       -0.0003328626
	             0.0002737915        0.0002893679       -0.0002602354
	             0.0002603766        0.0000597658        0.0002613173
	             0.0001439691       -0.0001505547       -0.0001636411
	             0.0006423567       -0.0002654120       -0.0002858593
	             0.0001846686       -0.0001467312       -0.0000329472
	             0.0003636530       -0.0000056775       -0.0002008577
	             0.0002142501       -0.0000803207        0.0000907698
	            -0.0000839321        0.0000138866       -0.0001880056
	            -0.0000855095       -0.0000107779        0.0002333310
	            -0.0000125065       -0.0000305274        0.0000413839

	---Fragment 1 Intrafragment Coordinates---
	 - Coordinate -           - BOHR/RAD -       - ANG/DEG -
	 R(1,2)           =         2.899305	       1.534246
	 R(1,3)           =         2.857625	       1.512190
	 R(1,10)          =         2.066790	       1.093698
	 R(1,11)          =         2.071247	       1.096057
	 R(2,4)           =         2.889896	       1.529267
	 R(2,12)          =         2.067232	       1.093932
	 R(2,13)          =         2.067535	       1.094093
	 R(3,5)           =         2.637035	       1.395459
	 R(3,6)           =         2.639230	       1.396620
	 R(4,14)          =         2.064772	       1.092630
	 R(4,15)          =         2.062768	       1.091570
	 R(4,16)          =         2.064639	       1.092560
	 R(5,7)           =         2.631972	       1.392780
	 R(5,17)          =         2.045968	       1.082680
	 R(6,8)           =         2.629433	       1.391436
	 R(6,18)          =         2.045913	       1.082651
	 R(7,9)           =         2.628746	       1.391073
	 R(7,19)          =         2.044206	       1.081747
	 R(8,9)           =         2.630828	       1.392174
	 R(8,20)          =         2.044151	       1.081718
	 R(9,21)          =         2.043878	       1.081574
	 B(1,2,4)         =         1.961272	     112.372636
	 B(1,2,12)        =         1.910710	     109.475626
	 B(1,2,13)        =         1.898194	     108.758526
	 B(1,3,5)         =         2.109155	     120.845705
	 B(1,3,6)         =         2.105921	     120.660373
	 B(2,1,3)         =         1.979431	     113.413029
	 B(2,1,10)        =         1.906181	     109.216147
	 B(2,1,11)        =         1.901213	     108.931466
	 B(2,4,14)        =         1.937446	     111.007501
	 B(2,4,15)        =         1.934941	     110.863947
	 B(2,4,16)        =         1.937252	     110.996358
	 B(3,1,10)        =         1.906954	     109.260425
	 B(3,1,11)        =         1.905830	     109.196002
	 B(3,5,7)         =         2.110368	     120.915156
	 B(3,5,17)        =         2.085253	     119.476207
	 B(3,6,8)         =         2.109051	     120.839696
	 B(3,6,18)        =         2.089732	     119.732825
	 B(4,2,12)        =         1.912334	     109.568688
	 B(4,2,13)        =         1.921318	     110.083428
	 B(5,3,6)         =         2.067249	     118.444630
	 B(5,7,9)         =         2.096462	     120.118437
	 B(5,7,19)        =         2.091549	     119.836924
	 B(6,8,9)         =         2.097934	     120.202783
	 B(6,8,20)        =         2.090403	     119.771292
	 B(7,5,17)        =         2.087558	     119.608263
	 B(7,9,8)         =         2.085145	     119.470028
	 B(7,9,21)        =         2.099035	     120.265848
	 B(8,6,18)        =         2.084390	     119.426760
	 B(8,9,21)        =         2.098997	     120.263652
	 B(9,7,19)        =         2.095172	     120.044530
	 B(9,8,20)        =         2.094834	     120.025171
	 B(10,1,11)       =         1.860485	     106.597919
	 B(12,2,13)       =         1.857039	     106.400482
	 B(14,4,15)       =         1.884435	     107.970191
	 B(14,4,16)       =         1.883792	     107.933312
	 B(15,4,16)       =         1.883841	     107.936164
	*D(1,2,4,14)      =         1.050993	      60.217458
	 D(1,2,4,15)      =        -3.137747	    -179.779647
	 D(1,2,4,16)      =        -1.044177	     -59.826960
	 D(1,3,5,7)       =        -3.115662	    -178.514303
	 D(1,3,5,17)      =         0.029828	       1.709021
	 D(1,3,6,8)       =         3.116351	     178.553785
	 D(1,3,6,18)      =        -0.019824	      -1.135837
	*D(2,1,3,5)       =        -2.158724	    -123.685801
	*D(2,1,3,6)       =         1.028128	      58.907368
	*D(3,1,2,4)       =         3.140741	     179.951191
	 D(3,1,2,12)      =        -1.013349	     -58.060642
	 D(3,1,2,13)      =         1.009028	      57.813048
	 D(3,5,7,9)       =         0.006662	       0.381703
	 D(3,5,7,19)      =        -3.137025	    -179.738317
	 D(3,6,8,9)       =        -0.007887	      -0.451864
	 D(3,6,8,20)      =         3.139221	     179.864133
	 D(4,2,1,10)      =         1.009462	      57.837935
	 D(4,2,1,11)      =        -1.016217	     -58.224970
	 D(5,3,1,10)      =        -0.027876	      -1.597178
	 D(5,3,1,11)      =         2.000812	     114.638088
	 D(5,3,6,8)       =         0.018951	       1.085787
	 D(5,3,6,18)      =        -3.117225	    -178.603836
	 D(5,7,9,8)       =         0.004804	       0.275276
	 D(5,7,9,21)      =        -3.141139	    -179.973982
	 D(6,3,1,10)      =        -3.124209	    -179.004009
	 D(6,3,1,11)      =        -1.095521	     -62.768744
	 D(6,3,5,7)       =        -0.018347	      -1.051186
	 D(6,3,5,17)      =         3.127144	     179.172139
	 D(6,8,9,7)       =        -0.004196	      -0.240392
	 D(6,8,9,21)      =        -3.141438	    -179.991140
	 D(7,9,8,20)      =         3.131868	     179.442805
	 D(8,9,7,19)      =        -3.134689	    -179.604453
	 D(9,7,5,17)      =        -3.138834	    -179.841913
	 D(9,8,6,18)      =         3.128305	     179.238698
	 D(10,1,2,12)     =         3.138558	     179.826102
	 D(10,1,2,13)     =        -1.122250	     -64.300208
	 D(11,1,2,12)     =         1.112878	      63.763197
	 D(11,1,2,13)     =         3.135255	     179.636886
	 D(12,2,4,14)     =        -1.077179	     -61.717827
	 D(12,2,4,15)     =         1.017266	      58.285068
	 D(12,2,4,16)     =         3.110836	     178.237755
	 D(13,2,4,14)     =        -3.113649	    -178.398954
	 D(13,2,4,15)     =        -1.019204	     -58.396059
	 D(13,2,4,16)     =         1.074366	      61.556628
	 D(17,5,7,19)     =         0.000664	       0.038067
	 D(18,6,8,20)     =        -0.007772	      -0.445305
	 D(19,7,9,21)     =         0.002553	       0.146289
	 D(20,8,9,21)     =        -0.005375	      -0.307943

	Current energy   :      -350.0644144867

	Energy change for the previous step:
		Projected    :        -0.0051455795
		Actual       :        -0.0022359598

	Performing BFGS update.
	Previous computed or guess Hessian on step 1.
	Steps to be used in Hessian update: 1
	Taking RFO optimization step.
	Going to follow RFO solution 1.
	Using RFO vector 1.
	Norm of target step-size    0.02920
	Projected energy change by RFO approximation:        -0.0001249930

	Back-transformation to cartesian coordinates...
	Successfully converged to displaced geometry.

	Back-transformation to cartesian coordinates to adjust frozen coordinates...
	Successfully converged to displaced geometry.

	--- Internal Coordinate Step in ANG or DEG, aJ/ANG or AJ/DEG ---
	 ---------------------------------------------------------------------------
	   Coordinate                Previous        Force       Change         New 
	   ----------                --------       ------       ------       ------
	    1 R(1,2)          =      1.534246     0.021043     0.004040     1.538286
	    2 R(1,3)          =      1.512190     0.014635     0.002462     1.514652
	    3 R(1,10)         =      1.093698     0.000246    -0.000026     1.093672
	    4 R(1,11)         =      1.096057    -0.000247    -0.000075     1.095981
	    5 R(2,4)          =      1.529267     0.007586     0.001311     1.530578
	    6 R(2,12)         =      1.093932    -0.002425    -0.000463     1.093469
	    7 R(2,13)         =      1.094093    -0.001195    -0.000270     1.093823
	    8 R(3,5)          =      1.395459     0.020790     0.002447     1.397906
	    9 R(3,6)          =      1.396620     0.028173     0.003447     1.400067
	   10 R(4,14)         =      1.092630     0.000972     0.000117     1.092748
	   11 R(4,15)         =      1.091570    -0.000306    -0.000110     1.091459
	   12 R(4,16)         =      1.092560     0.000475     0.000037     1.092596
	   13 R(5,7)          =      1.392780     0.011950     0.001280     1.394060
	   14 R(5,17)         =      1.082680     0.002582     0.000317     1.082996
	   15 R(6,8)          =      1.391436     0.008444     0.000824     1.392260
	   16 R(6,18)         =      1.082651     0.001654     0.000168     1.082818
	   17 R(7,9)          =      1.391073     0.012453     0.001310     1.392383
	   18 R(7,19)         =      1.081747     0.001662     0.000162     1.081909
	   19 R(8,9)          =      1.392174     0.016107     0.001799     1.393974
	   20 R(8,20)         =      1.081718     0.002021     0.000219     1.081937
	   21 R(9,21)         =      1.081574     0.000182    -0.000077     1.081496
	   22 B(1,2,4)        =    112.372636     0.000032     0.107196   112.479832
	   23 B(1,2,12)       =    109.475626     0.000012     0.110435   109.586061
	   24 B(1,2,13)       =    108.758526     0.000000     0.086540   108.845067
	   25 B(1,3,5)        =    120.845705     0.000033     0.088139   120.933844
	   26 B(1,3,6)        =    120.660373     0.000051     0.126598   120.786971
	   27 B(2,1,3)        =    113.413029     0.000159     0.572766   113.985796
	   28 B(2,1,10)       =    109.216147    -0.000061    -0.228984   108.987162
	   29 B(2,1,11)       =    108.931466    -0.000059    -0.237373   108.694093
	   30 B(2,4,14)       =    111.007501    -0.000004    -0.054116   110.953385
	   31 B(2,4,15)       =    110.863947     0.000079     0.401958   111.265904
	   32 B(2,4,16)       =    110.996358     0.000003    -0.026710   110.969648
	   33 B(3,1,10)       =    109.260425    -0.000026     0.049263   109.309688
	   34 B(3,1,11)       =    109.196002    -0.000027     0.080797   109.276798
	   35 B(3,5,7)        =    120.915156     0.000037     0.114839   121.029995
	   36 B(3,5,17)       =    119.476207    -0.000040    -0.162767   119.313440
	   37 B(3,6,8)        =    120.839696     0.000034     0.111812   120.951507
	   38 B(3,6,18)       =    119.732825    -0.000025    -0.099177   119.633648
	   39 B(4,2,12)       =    109.568688    -0.000025    -0.124781   109.443907
	   40 B(4,2,13)       =    110.083428    -0.000019    -0.102149   109.981279
	   41 B(5,3,6)        =    118.444630    -0.000084    -0.214528   118.230102
	   42 B(5,7,9)        =    120.118437     0.000004    -0.005067   120.113370
	   43 B(5,7,19)       =    119.836924    -0.000007    -0.020670   119.816254
	   44 B(6,8,9)        =    120.202783    -0.000002    -0.016013   120.186769
	   45 B(6,8,20)       =    119.771292     0.000002     0.009965   119.781257
	   46 B(7,5,17)       =    119.608263     0.000003     0.047203   119.655466
	   47 B(7,9,8)        =    119.470028     0.000011     0.005801   119.475829
	   48 B(7,9,21)       =    120.265848    -0.000003     0.005745   120.271593
	   49 B(8,6,18)       =    119.426760    -0.000010    -0.012706   119.414053
	   50 B(8,9,21)       =    120.263652    -0.000008    -0.011772   120.251880
	   51 B(9,7,19)       =    120.044530     0.000003     0.025513   120.070042
	   52 B(9,8,20)       =    120.025171    -0.000000     0.005926   120.031097
	   53 B(10,1,11)      =    106.597919     0.000005    -0.294123   106.303796
	   54 B(12,2,13)      =    106.400482    -0.000002    -0.085958   106.314524
	   55 B(14,4,15)      =    107.970191    -0.000036    -0.077335   107.892857
[...]
	 R(1,3)           =         2.862277	       1.514652
	 R(1,10)          =         2.066740	       1.093672
	 R(1,11)          =         2.071105	       1.095981
	 R(2,4)           =         2.892373	       1.530578
	 R(2,12)          =         2.066357	       1.093469
	 R(2,13)          =         2.067026	       1.093823
	 R(3,5)           =         2.641659	       1.397906
	 R(3,6)           =         2.645743	       1.400067
	 R(4,14)          =         2.064994	       1.092748
	 R(4,15)          =         2.062559	       1.091459
	 R(4,16)          =         2.064708	       1.092596
	 R(5,7)           =         2.634392	       1.394060
	 R(5,17)          =         2.046567	       1.082996
	 R(6,8)           =         2.630990	       1.392260
	 R(6,18)          =         2.046230	       1.082818
	 R(7,9)           =         2.631222	       1.392383
	 R(7,19)          =         2.044512	       1.081909
	 R(8,9)           =         2.634228	       1.393974
	 R(8,20)          =         2.044565	       1.081937
	 R(9,21)          =         2.043732	       1.081496
	 B(1,2,4)         =         1.963143	     112.479832
	 B(1,2,12)        =         1.912638	     109.586061
	 B(1,2,13)        =         1.899705	     108.845067
	 B(1,3,5)         =         2.110694	     120.933844
	 B(1,3,6)         =         2.108130	     120.786971
	 B(2,1,3)         =         1.989427	     113.985796
	 B(2,1,10)        =         1.902185	     108.987162
	 B(2,1,11)        =         1.897070	     108.694093
	 B(2,4,14)        =         1.936502	     110.953385
	 B(2,4,15)        =         1.941956	     111.265904
	 B(2,4,16)        =         1.936786	     110.969648
	 B(3,1,10)        =         1.907814	     109.309688
	 B(3,1,11)        =         1.907240	     109.276798
	 B(3,5,7)         =         2.112372	     121.029995
	 B(3,5,17)        =         2.082412	     119.313440
	 B(3,6,8)         =         2.111002	     120.951507
	 B(3,6,18)        =         2.088001	     119.633648
	 B(4,2,12)        =         1.910157	     109.443907
	 B(4,2,13)        =         1.919535	     109.981279
	 B(5,3,6)         =         2.063505	     118.230102
	 B(5,7,9)         =         2.096374	     120.113370
	 B(5,7,19)        =         2.091188	     119.816254
	 B(6,8,9)         =         2.097655	     120.186769
	 B(6,8,20)        =         2.090577	     119.781257
	 B(7,5,17)        =         2.088382	     119.655466
	 B(7,9,8)         =         2.085247	     119.475829
	 B(7,9,21)        =         2.099135	     120.271593
	 B(8,6,18)        =         2.084168	     119.414053
	 B(8,9,21)        =         2.098791	     120.251880
	 B(9,7,19)        =         2.095618	     120.070042
	 B(9,8,20)        =         2.094938	     120.031097
	 B(10,1,11)       =         1.855351	     106.303796
	 B(12,2,13)       =         1.855538	     106.314524
	 B(14,4,15)       =         1.883086	     107.892857
	 B(14,4,16)       =         1.880549	     107.747535
	 B(15,4,16)       =         1.882510	     107.859875
	*D(1,2,4,14)      =         1.050993	      60.217458
	 D(1,2,4,15)      =        -3.135407	    -179.645577
	 D(1,2,4,16)      =        -1.039158	     -59.539380
	 D(1,3,5,7)       =        -3.119652	    -178.742915
	 D(1,3,5,17)      =         0.028619	       1.639741
	 D(1,3,6,8)       =         3.118912	     178.700478
	 D(1,3,6,18)      =        -0.016999	      -0.973948
	*D(2,1,3,5)       =        -2.158724	    -123.685801
	*D(2,1,3,6)       =         1.028128	      58.907368
	*D(3,1,2,4)       =         3.140741	     179.951191
	 D(3,1,2,12)      =        -1.013498	     -58.069160
	 D(3,1,2,13)      =         1.008992	      57.810983
	 D(3,5,7,9)       =         0.009875	       0.565798
	 D(3,5,7,19)      =        -3.135380	    -179.644014
	 D(3,6,8,9)       =        -0.008265	      -0.473575
	 D(3,6,8,20)      =         3.139272	     179.867037
	 D(4,2,1,10)      =         1.004438	      57.550054
	 D(4,2,1,11)      =        -1.010676	     -57.907497
	 D(5,3,1,10)      =        -0.025512	      -1.461728
	 D(5,3,1,11)      =         1.998297	     114.493957
	 D(5,3,6,8)       =         0.021381	       1.225042
	 D(5,3,6,18)      =        -3.114529	    -178.449383
	 D(5,7,9,8)       =         0.003798	       0.217612
	 D(5,7,9,21)      =         3.140099	     179.914420
	 D(6,3,1,10)      =        -3.121845	    -178.868560
	 D(6,3,1,11)      =        -1.098037	     -62.912874
	 D(6,3,5,7)       =        -0.022189	      -1.271352
	 D(6,3,5,17)      =         3.126082	     179.111304
	 D(6,8,9,7)       =        -0.004583	      -0.262581
	 D(6,8,9,21)      =        -3.140885	    -179.959450
	 D(7,9,8,20)      =         3.131050	     179.395952
	 D(8,9,7,19)      =        -3.134123	    -179.572040
	 D(9,7,5,17)      =        -3.138419	    -179.818152
	 D(9,8,6,18)      =         3.127657	     179.201556
	 D(10,1,2,12)     =         3.133384	     179.529703
	 D(10,1,2,13)     =        -1.127311	     -64.590154
	 D(11,1,2,12)     =         1.118270	      64.072152
	 D(11,1,2,13)     =         3.140760	     179.952295
	 D(12,2,4,14)     =        -1.079360	     -61.842756
	 D(12,2,4,15)     =         1.017426	      58.294209
	 D(12,2,4,16)     =         3.113674	     178.400406
	 D(13,2,4,14)     =        -3.111708	    -178.287715
	 D(13,2,4,15)     =        -1.014922	     -58.150749
	 D(13,2,4,16)     =         1.081327	      61.955448
	 D(17,5,7,19)     =        -0.000488	      -0.027964
	 D(18,6,8,20)     =        -0.007991	      -0.457832
	 D(19,7,9,21)     =         0.002178	       0.124768
	 D(20,8,9,21)     =        -0.005252	      -0.300917

	Current energy   :      -350.0644867864

	Energy change for the previous step:
		Projected    :        -0.0001249930
		Actual       :        -0.0000722996

	Performing BFGS update.
	Previous computed or guess Hessian on step 1.
	Steps to be used in Hessian update: 2 1
	Taking RFO optimization step.
	Going to follow RFO solution 1.
	Using RFO vector 1.
	Norm of target step-size    0.00901
	Projected energy change by RFO approximation:        -0.0000023891

	Back-transformation to cartesian coordinates...
	Successfully converged to displaced geometry.

	Back-transformation to cartesian coordinates to adjust frozen coordinates...
	Successfully converged to displaced geometry.

	--- Internal Coordinate Step in ANG or DEG, aJ/ANG or AJ/DEG ---
	 ---------------------------------------------------------------------------
	   Coordinate                Previous        Force       Change         New 
	   ----------                --------       ------       ------       ------
	    1 R(1,2)          =      1.538286    -0.001098    -0.000159     1.538127
	    2 R(1,3)          =      1.514652    -0.006126    -0.001384     1.513268
	    3 R(1,10)         =      1.093672     0.001221     0.000205     1.093877
	    4 R(1,11)         =      1.095981     0.000862     0.000146     1.096128
	    5 R(2,4)          =      1.530578    -0.000754    -0.000170     1.530408
	    6 R(2,12)         =      1.093469     0.000867     0.000118     1.093587
	    7 R(2,13)         =      1.093823     0.000307     0.000020     1.093843
	    8 R(3,5)          =      1.397906     0.001145     0.000184     1.398090
	    9 R(3,6)          =      1.400067     0.002755     0.000482     1.400549
	   10 R(4,14)         =      1.092748     0.001239     0.000222     1.092969
	   11 R(4,15)         =      1.091459    -0.000638    -0.000145     1.091314
	   12 R(4,16)         =      1.092596     0.001141     0.000200     1.092796
	   13 R(5,7)          =      1.394060     0.000656     0.000075     1.394135
	   14 R(5,17)         =      1.082996     0.001132     0.000188     1.083184
	   15 R(6,8)          =      1.392260    -0.000820    -0.000168     1.392092
	   16 R(6,18)         =      1.082818     0.001303     0.000212     1.083030
	   17 R(7,9)          =      1.392383     0.000794     0.000098     1.392481
	   18 R(7,19)         =      1.081909     0.000463     0.000056     1.081965
	   19 R(8,9)          =      1.393974     0.002859     0.000426     1.394399
	   20 R(8,20)         =      1.081937     0.000485     0.000063     1.082000
	   21 R(9,21)         =      1.081496     0.000543     0.000058     1.081554
	   22 B(1,2,4)        =    112.479832    -0.000036    -0.134376   112.345456
	   23 B(1,2,12)       =    109.586061     0.000006    -0.002966   109.583095
	   24 B(1,2,13)       =    108.845067     0.000012     0.040905   108.885971
	   25 B(1,3,5)        =    120.933844     0.000007     0.025054   120.958898
	   26 B(1,3,6)        =    120.786971    -0.000009    -0.020846   120.766125
	   27 B(2,1,3)        =    113.985796    -0.000011    -0.010868   113.974927
	   28 B(2,1,10)       =    108.987162    -0.000001    -0.031405   108.955758
	   29 B(2,1,11)       =    108.694093     0.000001    -0.031231   108.662862
	   30 B(2,4,14)       =    110.953385     0.000005     0.022252   110.975637
	   31 B(2,4,15)       =    111.265904    -0.000004    -0.000578   111.265326
	   32 B(2,4,16)       =    110.969648     0.000007     0.030302   110.999950
	   33 B(3,1,10)       =    109.309688     0.000008     0.043905   109.353593
	   34 B(3,1,11)       =    109.276798     0.000005     0.032606   109.309405
	   35 B(3,5,7)        =    121.029995    -0.000001     0.002992   121.032987
	   36 B(3,5,17)       =    119.313440    -0.000004    -0.030896   119.282544
	   37 B(3,6,8)        =    120.951507    -0.000002     0.002392   120.953899
	   38 B(3,6,18)       =    119.633648    -0.000008    -0.048403   119.585245
	   39 B(4,2,12)       =    109.443907     0.000015     0.055306   109.499212
	   40 B(4,2,13)       =    109.981279     0.000010     0.033014   110.014293
	   41 B(5,3,6)        =    118.230102     0.000002    -0.004204   118.225898
	   42 B(5,7,9)        =    120.113370     0.000000     0.000825   120.114195
	   43 B(5,7,19)       =    119.816254    -0.000004    -0.018940   119.797315
	   44 B(6,8,9)        =    120.186769    -0.000001    -0.002761   120.184009
	   45 B(6,8,20)       =    119.781257     0.000001     0.002200   119.783456
	   46 B(7,5,17)       =    119.655466     0.000005     0.028612   119.684078
	   47 B(7,9,8)        =    119.475829     0.000001     0.003032   119.478861
	   48 B(7,9,21)       =    120.271593     0.000000     0.004025   120.275618
	   49 B(8,6,18)       =    119.414053     0.000010     0.046213   119.460266
	   50 B(8,9,21)       =    120.251880    -0.000002    -0.006882   120.244998
	   51 B(9,7,19)       =    120.070042     0.000003     0.018355   120.088398
	   52 B(9,8,20)       =    120.031097     0.000000     0.000706   120.031803
	   53 B(10,1,11)      =    106.303796    -0.000001    -0.003092   106.300703
	   54 B(12,2,13)      =    106.314524    -0.000006     0.016379   106.330904
	   55 B(14,4,15)      =    107.892857    -0.000001    -0.012148   107.880709
	   56 B(14,4,16)      =    107.747535    -0.000005    -0.030171   107.717364
	   57 B(15,4,16)      =    107.859875    -0.000002    -0.012619   107.847256
	   58 *D(1,2,4,14)    =     60.217458    -0.000000    -0.000000    60.217458
	   59 D(1,2,4,15)     =   -179.645577    -0.000000    -0.000784  -179.646361
	   60 D(1,2,4,16)     =    -59.539380    -0.000000     0.003244   -59.536136
	   61 D(1,3,5,7)      =   -178.742915     0.000001     0.172916  -178.569999
	   62 D(1,3,5,17)     =      1.639741     0.000000     0.018405     1.658146
	   63 D(1,3,6,8)      =    178.700478    -0.000000    -0.090071   178.610407
	   64 D(1,3,6,18)     =     -0.973948    -0.000001    -0.134790    -1.108738
	   65 *D(2,1,3,5)     =   -123.685801     0.000000    -0.000000  -123.685801
	   66 *D(2,1,3,6)     =     58.907368     0.000000     0.000000    58.907368
	   67 *D(3,1,2,4)     =    179.951191    -0.000000    -0.000000   179.951191
	   68 D(3,1,2,12)     =    -58.069160    -0.000000    -0.022475   -58.091635
	   69 D(3,1,2,13)     =     57.810983     0.000001     0.018451    57.829434
	   70 D(3,5,7,9)      =      0.565798    -0.000001    -0.165196     0.400601
	   71 D(3,5,7,19)     =   -179.644014    -0.000000    -0.065870  -179.709884
	   72 D(3,6,8,9)      =     -0.473575     0.000000     0.001724    -0.471851
	   73 D(3,6,8,20)     =    179.867037    -0.000000    -0.027770   179.839268
	   74 D(4,2,1,10)     =     57.550054    -0.000000    -0.025899    57.524155
	   75 D(4,2,1,11)     =    -57.907497    -0.000000     0.011573   -57.895924
	   76 D(5,3,1,10)     =     -1.461728    -0.000001    -0.015479    -1.477207
	   77 D(5,3,1,11)     =    114.493957     0.000001     0.023700   114.517657
	   78 D(5,3,6,8)      =      1.225042    -0.000000    -0.090832     1.134210
	   79 D(5,3,6,18)     =   -178.449383    -0.000001    -0.135552  -178.584935
	   80 D(5,7,9,8)      =      0.217612     0.000000     0.071928     0.289540
	   81 D(5,7,9,21)     =    179.914420     0.000001     0.112810   180.027230
	   82 D(6,3,1,10)     =   -178.868560    -0.000001    -0.015479  -178.884038
	   83 D(6,3,1,11)     =    -62.912874     0.000001     0.023700   -62.889174
	   84 D(6,3,5,7)      =     -1.271352     0.000001     0.172468    -1.098885
	   85 D(6,3,5,17)     =    179.111304     0.000000     0.017956   179.129260
	   86 D(6,8,9,7)      =     -0.262581     0.000000     0.008701    -0.253880
	   87 D(6,8,9,21)     =   -179.959450    -0.000000    -0.032202  -179.991652
	   88 D(7,9,8,20)     =    179.395952     0.000000     0.038273   179.434225
	   89 D(8,9,7,19)     =   -179.572040    -0.000000    -0.027610  -179.599651
	   90 D(9,7,5,17)     =   -179.818152    -0.000000    -0.010297  -179.828450
	   91 D(9,8,6,18)     =    179.201556     0.000000     0.046085   179.247641
	   92 D(10,1,2,12)    =    179.529703    -0.000000    -0.048374   179.481329
	   93 D(10,1,2,13)    =    -64.590154     0.000000    -0.007448   -64.597602
	   94 D(11,1,2,12)    =     64.072152    -0.000000    -0.010902    64.061250
	   95 D(11,1,2,13)    =    179.952295     0.000000     0.030024   179.982319
	   96 D(12,2,4,14)    =    -61.842756     0.000001     0.055359   -61.787397
	   97 D(12,2,4,15)    =     58.294209     0.000001     0.054575    58.348784
	   98 D(12,2,4,16)    =    178.400406     0.000001     0.058603   178.459009
	   99 D(13,2,4,14)    =   -178.287715    -0.000000    -0.015716  -178.303431
	  100 D(13,2,4,15)    =    -58.150749    -0.000001    -0.016500   -58.167249
	  101 D(13,2,4,16)    =     61.955448    -0.000001    -0.012472    61.942976
	  102 D(17,5,7,19)    =     -0.027964     0.000000     0.089029     0.061065
	  103 D(18,6,8,20)    =     -0.457832     0.000000     0.016591    -0.441241
	  104 D(19,7,9,21)    =      0.124768     0.000000     0.013271     0.138039
	  105 D(20,8,9,21)    =     -0.300917    -0.000000    -0.002630    -0.303547
	 ---------------------------------------------------------------------------
	Successfully symmetrized geometry.

  ==> Convergence Check <==

  Measures of convergence in internal coordinates in au.
  Criteria marked as inactive (o), active & met (*), and active & unmet ( ).
  ---------------------------------------------------------------------------------------------
   Step     Total Energy     Delta E     MAX Force     RMS Force      MAX Disp      RMS Disp   
  ---------------------------------------------------------------------------------------------
    Convergence Criteria             o    2.50e-03 *    1.70e-03 *    1.00e-02 *    6.70e-03 *
  ---------------------------------------------------------------------------------------------
      3    -350.06448679   -7.23e-05 o    7.44e-04 *    1.19e-04 *    3.02e-03 *    8.79e-04 *  ~
  ---------------------------------------------------------------------------------------------


  **** Optimization is complete! (in 3 steps) ****

  ==> Optimization Summary <==

  Measures of convergence in internal coordinates in au.
  --------------------------------------------------------------------------------------------------------------- ~
   Step         Total Energy             Delta E       MAX Force       RMS Force        MAX Disp        RMS Disp  ~
  --------------------------------------------------------------------------------------------------------------- ~
      1    -350.062178526959   -350.062178526959      0.01699308      0.00416378      0.05092640      0.01335142  ~
      2    -350.064414486723     -0.002235959764      0.00341953      0.00069109      0.00999666      0.00285115  ~
      3    -350.064486786370     -0.000072299647      0.00074361      0.00011895      0.00301796      0.00087913  ~
  --------------------------------------------------------------------------------------------------------------- ~

	Writing optimization data to binary file.
	Final energy is   -350.0644867863701
	Final (previous) structure:
	Cartesian Geometry (in Angstrom)
	    C    -1.4947158046   0.2349961892   0.4446020397
	    C    -2.2181994226  -0.9772908116  -0.1663448265
	    C    -0.0038256071   0.2606000049   0.1785918560
	    C    -3.7209636335  -0.9693853983   0.1240107750
	    C     0.9130558383   0.3242799243   1.2318791570
	    C     0.4902428836   0.2754348458  -1.1313178276
	    C     2.2848025242   0.3741269855   0.9885069415
	    C     1.8592259467   0.3260495100  -1.3797355994
	    C     2.7627648397   0.3728656307  -0.3192697101
	    H    -1.6697227263   0.2469261637   1.5241151360
	    H    -1.9485807411   1.1508737389   0.0491908212
	    H    -2.0564776065  -0.9939899411  -1.2476595189
	    H    -1.7665042784  -1.8929490101   0.2260712757
	    H    -4.1939092844  -0.0746755510  -0.2881953196
	    H    -4.2131056772  -1.8402616228  -0.3126290286
	    H    -3.9114128482  -0.9811847673   1.1998159222
	    H     0.5493130621   0.3286075981   2.2519545459
	    H    -0.2009390597   0.2525358330  -1.9645276958
	    H     2.9772241890   0.4172466381   1.8187000716
	    H     2.2203737319   0.3345372173  -2.3995826404
	    H     3.8263719602   0.4128650636  -0.5110363950
	Saving final (previous) structure.
			--------------------------
			 OPTKING Finished Execution 
			--------------------------

    Final optimized geometry and variables:
    Molecular point group: c1
    Full point group: C1

    Geometry (in Angstrom), charge = 0, multiplicity = 1:

    C           -1.494715810466     0.234996190096     0.444602041414
    C           -2.218199431273    -0.977290815396    -0.166344827109
    C           -0.003825607099     0.260600005881     0.178591856708
    C           -3.720963648104    -0.969385402087     0.124010775473
    C            0.913055841895     0.324279925594     1.231879161799
    C            0.490242885546     0.275434846854    -1.131317832094
    C            2.284802533202     0.374126987018     0.988506945337
    C            1.859225954046     0.326049511293    -1.379735604835
    C            2.762764850515     0.372865632182    -0.319269711382
    H           -1.669722732874     0.246926164627     1.524115141997
    H           -1.948580748744     1.150873743409     0.049190821375
    H           -2.056477614615    -0.993989945022    -1.247659523853
    H           -1.766504285317    -1.892949017583     0.226071276618
    H           -4.193909300893    -0.074675551296    -0.288195320722
    H           -4.213105693745    -1.840261629998    -0.312629029796
    H           -3.911412863559    -0.981184771116     1.199815926937
    H            0.549313064213     0.328607599416     2.251954554785
    H           -0.200939060513     0.252535834001    -1.964527703517
    H            2.977224200669     0.417246639747     1.818700078755
    H            2.220373740654     0.334537218646    -2.399582649831
    H            3.826371975287     0.412865065213    -0.511036397044

	Removing binary optimization data file.
	Cleaning optimization helper files.

    Psi4 stopped on: Wednesday, 02 June 2021 12:35AM
    Psi4 wall time for execution: 0:00:42.87

*** Psi4 exiting successfully. Buy a developer a beer!
