
    -----------------------------------------------------------------------
          Psi4: An Open-Source Ab Initio Electronic Structure Package
                               Psi4 1.3.2 release

                         Git: Rev {HEAD} ecbda83 


    R. M. Parrish, L. A. Burns, D. G. A. Smith, A. C. Simmonett,
    A. E. DePrince III, E. G. Hohenstein, U. Bozkaya, A. Yu. Sokolov,
    R. Di Remigio, R. M. Richard, J. F. Gonthier, A. M. James,
    H. R. McAlexander, A. Kumar, M. Saitow, X. Wang, B. P. Pritchard,
    P. Verma, H. F. Schaefer III, K. Patkowski, R. A. King, E. F. Valeev,
    F. A. Evangelista, J. M. Turney, T. D. Crawford, and C. D. Sherrill,
    J. Chem. Theory Comput. 13(7) pp 3185--3197 (2017).
    (doi: 10.1021/acs.jctc.7b00174)


                         Additional Contributions by
    P. Kraus, H. Kruse, M. H. Lechner, M. C. Schieber, R. A. Shaw,
    A. Alenaizan, R. Galvelis, Z. L. Glick, S. Lehtola, and J. P. Misiewicz

    -----------------------------------------------------------------------


    Psi4 started on: Wednesday, 02 June 2021 12:23AM

    Process ID: 78240
    Host:       daniele-Precision-5750
    PSIDATADIR: /home/daniele/anaconda3/envs/poltype/share/psi4
    Memory:     500.0 MiB
    Threads:    1
    
  ==> Input File <==

--------------------------------------------------------------------------
molecule { 
0 1
 C   -1.357429   -0.385438    0.999181
 C   -2.491562    0.229468    0.122244
 C    0.046112   -0.095719    0.450419
 C   -3.476337   -0.810323   -0.449796
 C    0.722696    1.099184    0.793136
 C    0.668243   -0.993505   -0.449457
 C    2.000131    1.376722    0.268974
 C    1.945191   -0.714878   -0.974304
 C    2.613186    0.468813   -0.612946
 H   -1.492564   -1.469403    1.109116
 H   -1.434918    0.002357    2.023777
 H   -3.042097    0.967962    0.720480
 H   -2.053886    0.812280   -0.699579
 H   -3.978924   -1.362259    0.351786
 H   -4.248405   -0.321545   -1.053467
 H   -2.959527   -1.532329   -1.091249
 H    0.259609    1.817486    1.468092
 H    0.162758   -1.911449   -0.745666
 H    2.513463    2.295839    0.545718
 H    2.415829   -1.415986   -1.661207
 H    3.600665    0.683200   -1.016969
}
set optking { 
  frozen_dihedral = ("
    4 2 1 3
    2 1 3 5
    2 1 3 6
    1 2 4 14
  ")
}
set {
  geom_maxiter 400
  g_convergence GAU_LOOSE
  dynamic_level 1
}
memory 700MB
set_num_threads(8)
psi4_io.set_default_path("/home/daniele/PSI4_sctatch/Psi4-propbenzene")
for _ in range(1):
  try:
    set opt_coordinates both
    optimize('wb97x-d/6-311G')
    break
  except OptimizationConvergenceError:
    break
  else:
    try:
      set opt_coordinates cartesian
      optimize('wb97x-d/6-311G')
      break
    except OptimizationConvergenceError:
      pass
clean()
--------------------------------------------------------------------------

  Memory set to 667.572 MiB by Python driver.
  Threads set to 8 by Python driver.
gradient() will perform analytic gradient computation.

*** tstart() called on daniele-Precision-5750
*** at Wed Jun  2 00:23:50 2021

   => Loading Basis Set <=

    Name: 6-311G
    Role: ORBITAL
    Keyword: BASIS
    atoms 1-9   entry C          line    92 file /home/daniele/anaconda3/envs/poltype/share/psi4/basis/6-311g.gbs 
    atoms 10-21 entry H          line    21 file /home/daniele/anaconda3/envs/poltype/share/psi4/basis/6-311g.gbs 


         ---------------------------------------------------------
                                   SCF
               by Justin Turney, Rob Parrish, Andy Simmonett
                          and Daniel G. A. Smith
                              RKS Reference
                        8 Threads,    667 MiB Core
         ---------------------------------------------------------

  ==> Geometry <==

    Molecular point group: c1
    Full point group: C1

    Geometry (in Angstrom), charge = 0, multiplicity = 1:

       Center              X                  Y                   Z               Mass       
    ------------   -----------------  -----------------  -----------------  -----------------
         C           -1.338314838916    -0.390823961310     0.984860045703    12.000000000000
         C           -2.472447838916     0.224082038690     0.107923045703    12.000000000000
         C            0.065226161084    -0.101104961310     0.436098045703    12.000000000000
         C           -3.457222838916    -0.815708961310    -0.464116954297    12.000000000000
         C            0.741810161084     1.093798038690     0.778815045703    12.000000000000
         C            0.687357161084    -0.998890961310    -0.463777954297    12.000000000000
         C            2.019245161084     1.371336038690     0.254653045703    12.000000000000
         C            1.964305161084    -0.720263961310    -0.988624954297    12.000000000000
         C            2.632300161084     0.463427038690    -0.627266954297    12.000000000000
         H           -1.473449838916    -1.474788961310     1.094795045703     1.007825032230
         H           -1.415803838916    -0.003028961310     2.009456045703     1.007825032230
         H           -3.022982838916     0.962576038690     0.706159045703     1.007825032230
         H           -2.034771838916     0.806894038690    -0.713899954297     1.007825032230
         H           -3.959809838916    -1.367644961310     0.337465045703     1.007825032230
         H           -4.229290838916    -0.326930961310    -1.067787954297     1.007825032230
         H           -2.940412838916    -1.537714961310    -1.105569954297     1.007825032230
         H            0.278723161084     1.812100038690     1.453771045703     1.007825032230
         H            0.181872161084    -1.916834961310    -0.759986954297     1.007825032230
         H            2.532577161084     2.290453038690     0.531397045703     1.007825032230
         H            2.434943161084    -1.421371961310    -1.675527954297     1.007825032230
         H            3.619779161084     0.677814038690    -1.031289954297     1.007825032230

  Running in c1 symmetry.

  Rotational constants: A =      0.12587  B =      0.03014  C =      0.02643 [cm^-1]
  Rotational constants: A =   3773.56705  B =    903.68923  C =    792.35902 [MHz]
  Nuclear repulsion =  408.994755037790867

  Charge       = 0
  Multiplicity = 1
  Electrons    = 66
  Nalpha       = 33
  Nbeta        = 33

  ==> Algorithm <==

  SCF Algorithm Type is DF.
  DIIS enabled.
  MOM disabled.
  Fractional occupation disabled.
  Guess Type is SAD.
  Energy threshold   = 1.00e-08
  Density threshold  = 1.00e-08
  Integral threshold = 0.00e+00

  ==> Primary Basis <==

  Basis Set: 6-311G
    Blend: 6-311G
    Number of shells: 99
    Number of basis function: 153
    Number of Cartesian functions: 153
    Spherical Harmonics?: true
    Max angular momentum: 1

  ==> DFT Potential <==

   => Composite Functional: WB97X-D <= 

    wB97X-D Hyb-GGA Exchange-Correlation Functional

    J.-D. Chai and M. Head-Gordon, Phys. Chem. Chem. Phys. 10, 6615 (2008)

    Deriv               =              1
    GGA                 =           TRUE
    Meta                =          FALSE

    Exchange Hybrid     =           TRUE
    MP2 Hybrid          =          FALSE

   => Exchange-Correlation Functionals <=

    1.0000   wB97D range-separated functional

   => Exact (HF) Exchange <=

    0.7780            HF,LR [omega = 0.2000]
    0.2220               HF 

   => Molecular Quadrature <=

    Radial Scheme          =       TREUTLER
    Pruning Scheme         =           FLAT
    Nuclear Scheme         =       TREUTLER

    BS radius alpha        =              1
    Pruning alpha          =              1
    Radial Points          =             75
    Spherical Points       =            302
    Total Points           =         470107
    Total Blocks           =           3446
    Max Points             =            256
    Max Functions          =            142

   => WB97X-D: Empirical Dispersion <=

    Chai and Head-Gordon Dispersion Correction
    Chai, J.-D.; Head-Gordon, M. (2010), J. Chem. Phys., 132: 6615-6620

        s6 =       1.000000

   => Loading Basis Set <=

    Name: (6-311G AUX)
    Role: JKFIT
    Keyword: DF_BASIS_SCF
    atoms 1-9   entry C          line   125 file /home/daniele/anaconda3/envs/poltype/share/psi4/basis/cc-pvtz-jkfit.gbs 
    atoms 10-21 entry H          line    51 file /home/daniele/anaconda3/envs/poltype/share/psi4/basis/cc-pvtz-jkfit.gbs 

  ==> Pre-Iterations <==

   -------------------------------------------------------
    Irrep   Nso     Nmo     Nalpha   Nbeta   Ndocc  Nsocc
   -------------------------------------------------------
     A        153     153       0       0       0       0
   -------------------------------------------------------
    Total     153     153      33      33      33       0
   -------------------------------------------------------

  ==> Integral Setup <==

  ==> DiskDFJK: Density-Fitted J/K Matrices <==

    J tasked:                  Yes
    K tasked:                  Yes
    wK tasked:                 Yes
    Omega:               2.000E-01
    OpenMP threads:              8
    Integrals threads:           8
    Memory [MiB]:              114
    Algorithm:                Disk
    Integral Cache:           NONE
    Schwarz Cutoff:          1E-12
    Fitting Condition:       1E-10

   => Auxiliary Basis Set <=

  Basis Set: (6-311G AUX)
    Blend: CC-PVTZ-JKFIT
    Number of shells: 345
    Number of basis function: 1071
    Number of Cartesian functions: 1284
    Spherical Harmonics?: true
    Max angular momentum: 4

  Cached 33.3% of DFT collocation blocks in 0.440 [GiB].

  Minimum eigenvalue in the overlap matrix is 2.7628597877E-04.
  Using Symmetric Orthogonalization.

  SCF Guess: Superposition of Atomic Densities via on-the-fly atomic UHF.

  ==> Iterations <==

                           Total Energy        Delta E     RMS |[F,P]|

   @DF-RKS iter SAD:  -349.21343120370364   -3.49213e+02   0.00000e+00 
   @DF-RKS iter   1:  -349.71245209623311   -4.99021e-01   5.14215e-03 DIIS
   @DF-RKS iter   2:  -349.89849374853634   -1.86042e-01   3.60725e-03 DIIS
   @DF-RKS iter   3:  -350.05691998946776   -1.58426e-01   2.34667e-04 DIIS
   @DF-RKS iter   4:  -350.05765531823562   -7.35329e-04   1.40385e-04 DIIS
   @DF-RKS iter   5:  -350.05790417103668   -2.48853e-04   2.80577e-05 DIIS
   @DF-RKS iter   6:  -350.05791291139354   -8.74036e-06   1.31561e-05 DIIS
   @DF-RKS iter   7:  -350.05791517936620   -2.26797e-06   1.78657e-06 DIIS
   @DF-RKS iter   8:  -350.05791523125509   -5.18889e-08   6.62142e-07 DIIS
   @DF-RKS iter   9:  -350.05791523714282   -5.88773e-09   1.80476e-07 DIIS
   @DF-RKS iter  10:  -350.05791523770012   -5.57293e-10   4.64619e-08 DIIS
   @DF-RKS iter  11:  -350.05791523774019   -4.00746e-11   2.26975e-08 DIIS
   @DF-RKS iter  12:  -350.05791523775042   -1.02318e-11   5.76477e-09 DIIS
  Energy and wave function converged.


  ==> Post-Iterations <==

    Orbital Energies [Eh]
    ---------------------

    Doubly Occupied:                                                      

       1A    -10.304035     2A    -10.293321     3A    -10.293246  
       4A    -10.291137     5A    -10.291121     6A    -10.290733  
       7A    -10.287699     8A    -10.283118     9A    -10.272558  
      10A     -0.958117    11A     -0.894226    12A     -0.845538  
      13A     -0.844808    14A     -0.777772    15A     -0.702269  
      16A     -0.697642    17A     -0.670291    18A     -0.603494  
      19A     -0.555855    20A     -0.549688    21A     -0.530974  
      22A     -0.516247    23A     -0.508169    24A     -0.491414  
      25A     -0.479085    26A     -0.457022    27A     -0.438856  
      28A     -0.429049    29A     -0.422049    30A     -0.410789  
      31A     -0.400960    32A     -0.327138    33A     -0.316386  

    Virtual:                                                              

      34A      0.062009    35A      0.065267    36A      0.120166  
      37A      0.135514    38A      0.143362    39A      0.158334  
      40A      0.172085    41A      0.173424    42A      0.190970  
      43A      0.197196    44A      0.205806    45A      0.211278  
      46A      0.215696    47A      0.228420    48A      0.246292  
      49A      0.287541    50A      0.302914    51A      0.322784  
      52A      0.353853    53A      0.361349    54A      0.367709  
      55A      0.379140    56A      0.384883    57A      0.400755  
      58A      0.410193    59A      0.418785    60A      0.461928  
      61A      0.475990    62A      0.480587    63A      0.490785  
      64A      0.495324    65A      0.499158    66A      0.522198  
      67A      0.538802    68A      0.546854    69A      0.560283  
      70A      0.570357    71A      0.580330    72A      0.604691  
      73A      0.624631    74A      0.633444    75A      0.637370  
      76A      0.658242    77A      0.669229    78A      0.677826  
      79A      0.684015    80A      0.689616    81A      0.698406  
      82A      0.700895    83A      0.708351    84A      0.716537  
      85A      0.725386    86A      0.731070    87A      0.741651  
      88A      0.753445    89A      0.755667    90A      0.774785  
      91A      0.802773    92A      0.849715    93A      0.861075  
      94A      0.874672    95A      0.905757    96A      0.927205  
      97A      0.937783    98A      0.962667    99A      1.004710  
     100A      1.017981   101A      1.127886   102A      1.132844  
     103A      1.188594   104A      1.213798   105A      1.371116  
     106A      2.294615   107A      2.324901   108A      2.349634  
     109A      2.353796   110A      2.363619   111A      2.373877  
     112A      2.387388   113A      2.400356   114A      2.424598  
     115A      2.449189   116A      2.459820   117A      2.601521  
     118A      2.640197   119A      2.671184   120A      2.698458  
     121A      2.790421   122A      2.793974   123A      2.828971  
     124A      2.835018   125A      2.906145   126A      2.916233  
     127A      2.931176   128A      2.949375   129A      2.979176  
     130A      2.990131   131A      3.006764   132A      3.021642  
     133A      3.068666   134A      3.132315   135A      3.155616  
     136A      3.175362   137A      3.200875   138A      3.214860  
     139A      3.267615   140A      3.301757   141A      3.339019  
     142A      3.370825   143A      3.380938   144A      3.532488  
     145A     23.252925   146A     23.472677   147A     23.483834  
     148A     23.512481   149A     23.661656   150A     23.707790  
     151A     23.737116   152A     23.750513   153A     23.991044  

    Final Occupation by Irrep:
              A 
    DOCC [    33 ]

  @DF-RKS Final Energy:  -350.05791523775042

   => Energetics <=

    Nuclear Repulsion Energy =            408.9947550377908669
    One-Electron Energy =               -1280.6397402771167435
    Two-Electron Energy =                 557.9180501084289290
    DFT Exchange-Correlation Energy =     -36.3194672157094161
    Empirical Dispersion Energy =          -0.0115128911439986
    VV10 Nonlocal Energy =                  0.0000000000000000
    Total Energy =                       -350.0579152377504215

Computation Completed


Properties will be evaluated at   0.000000,   0.000000,   0.000000 [a0]

Properties computed using the SCF density matrix

  Nuclear Dipole Moment: [e a0]
     X:    -9.4015      Y:    -1.4048      Z:    -0.2072

  Electronic Dipole Moment: [e a0]
     X:     9.2402      Y:     1.4230      Z:     0.2190

  Dipole Moment: [e a0]
     X:    -0.1614      Y:     0.0182      Z:     0.0118     Total:     0.1628

  Dipole Moment: [D]
     X:    -0.4101      Y:     0.0463      Z:     0.0301     Total:     0.4138


*** tstop() called on daniele-Precision-5750 at Wed Jun  2 00:24:00 2021
Module time:
	user time   =      78.31 seconds =       1.31 minutes
	system time =       2.28 seconds =       0.04 minutes
	total time  =         10 seconds =       0.17 minutes
Total time:
	user time   =      78.31 seconds =       1.31 minutes
	system time =       2.28 seconds =       0.04 minutes
	total time  =         10 seconds =       0.17 minutes

*** tstart() called on daniele-Precision-5750
*** at Wed Jun  2 00:24:00 2021


         ------------------------------------------------------------
                                   SCF GRAD                          
                          Rob Parrish, Justin Turney,                
                       Andy Simmonett, and Alex Sokolov              
         ------------------------------------------------------------

  ==> Geometry <==

    Molecular point group: c1
    Full point group: C1

    Geometry (in Angstrom), charge = 0, multiplicity = 1:

       Center              X                  Y                   Z               Mass       
    ------------   -----------------  -----------------  -----------------  -----------------
         C           -1.338314838916    -0.390823961310     0.984860045703    12.000000000000
         C           -2.472447838916     0.224082038690     0.107923045703    12.000000000000
         C            0.065226161084    -0.101104961310     0.436098045703    12.000000000000
         C           -3.457222838916    -0.815708961310    -0.464116954297    12.000000000000
         C            0.741810161084     1.093798038690     0.778815045703    12.000000000000
         C            0.687357161084    -0.998890961310    -0.463777954297    12.000000000000
         C            2.019245161084     1.371336038690     0.254653045703    12.000000000000
         C            1.964305161084    -0.720263961310    -0.988624954297    12.000000000000
         C            2.632300161084     0.463427038690    -0.627266954297    12.000000000000
         H           -1.473449838916    -1.474788961310     1.094795045703     1.007825032230
         H           -1.415803838916    -0.003028961310     2.009456045703     1.007825032230
         H           -3.022982838916     0.962576038690     0.706159045703     1.007825032230
         H           -2.034771838916     0.806894038690    -0.713899954297     1.007825032230
         H           -3.959809838916    -1.367644961310     0.337465045703     1.007825032230
         H           -4.229290838916    -0.326930961310    -1.067787954297     1.007825032230
         H           -2.940412838916    -1.537714961310    -1.105569954297     1.007825032230
         H            0.278723161084     1.812100038690     1.453771045703     1.007825032230
         H            0.181872161084    -1.916834961310    -0.759986954297     1.007825032230
         H            2.532577161084     2.290453038690     0.531397045703     1.007825032230
         H            2.434943161084    -1.421371961310    -1.675527954297     1.007825032230
         H            3.619779161084     0.677814038690    -1.031289954297     1.007825032230

  Nuclear repulsion =  408.994755037790867

  ==> Basis Set <==

  Basis Set: 6-311G
    Blend: 6-311G
    Number of shells: 99
    Number of basis function: 153
    Number of Cartesian functions: 153
    Spherical Harmonics?: true
    Max angular momentum: 1

  ==> DFJKGrad: Density-Fitted SCF Gradients <==

    Gradient:                    1
    J tasked:                  Yes
    K tasked:                  Yes
    wK tasked:                 Yes
    Omega:               2.000E-01
    OpenMP threads:              8
    Integrals threads:           8
    Memory [MiB]:              500
    Schwarz Cutoff:          0E+00
    Fitting Condition:       1E-10

   => Auxiliary Basis Set <=

  Basis Set: (6-311G AUX)
    Blend: CC-PVTZ-JKFIT
    Number of shells: 345
    Number of basis function: 1071
    Number of Cartesian functions: 1284
    Spherical Harmonics?: true
    Max angular momentum: 4

  ==> DFT Potential <==

   => Composite Functional: WB97X-D <= 

    wB97X-D Hyb-GGA Exchange-Correlation Functional

    J.-D. Chai and M. Head-Gordon, Phys. Chem. Chem. Phys. 10, 6615 (2008)

    Deriv               =              1
    GGA                 =           TRUE
    Meta                =          FALSE

    Exchange Hybrid     =           TRUE
    MP2 Hybrid          =          FALSE

   => Exchange-Correlation Functionals <=

    1.0000   wB97D range-separated functional

   => Exact (HF) Exchange <=

    0.7780            HF,LR [omega = 0.2000]
    0.2220               HF 

   => Molecular Quadrature <=

    Radial Scheme          =       TREUTLER
    Pruning Scheme         =           FLAT
    Nuclear Scheme         =       TREUTLER

    BS radius alpha        =              1
    Pruning alpha          =              1
    Radial Points          =             75
    Spherical Points       =            302
    Total Points           =         470107
    Total Blocks           =           3446
    Max Points             =            256
    Max Functions          =            142


  -Total Gradient:
     Atom            X                  Y                   Z
    ------   -----------------  -----------------  -----------------
       1       -0.007581927140    -0.002612042811     0.000266621682
       2        0.002281340021    -0.001908119697     0.000087900355
       3       -0.000261470534     0.000316695333     0.001105020197
       4       -0.001984659353    -0.003522517752    -0.000927081021
       5       -0.005861158559     0.006977189975     0.006500584979
       6       -0.006109154476    -0.008848075379    -0.002764701609
       7        0.005571111328     0.007517331956     0.002387355355
       8        0.004875633374    -0.006065681465    -0.005627968196
       9        0.006220274580     0.001464574455    -0.002432262530
      10        0.000017941490    -0.002140246728     0.004666249551
      11       -0.001884116320    -0.001051818010     0.003686325910
      12        0.000483564478     0.003541983265     0.001150227542
      13       -0.000394915098     0.004474487964    -0.001759943375
      14       -0.001550200143    -0.000625627393     0.001190042221
      15       -0.001389328321     0.001099106845    -0.001101256972
      16        0.000152140053    -0.001140803941    -0.001731040297
      17       -0.000506224001     0.004196918570     0.001851494424
      18       -0.000706381527    -0.003585328060    -0.002850216525
      19        0.002416137078     0.003740534287     0.000976377803
      20        0.002212641594    -0.002734644932    -0.002892741161
      21        0.004017745024     0.000989514785    -0.001748158142


*** tstop() called on daniele-Precision-5750 at Wed Jun  2 00:24:05 2021
Module time:
	user time   =      36.19 seconds =       0.60 minutes
	system time =       0.46 seconds =       0.01 minutes
	total time  =          5 seconds =       0.08 minutes
Total time:
	user time   =     114.51 seconds =       1.91 minutes
	system time =       2.74 seconds =       0.05 minutes
	total time  =         15 seconds =       0.25 minutes

			-----------------------------------------
			 OPTKING 2.0: for geometry optimizations 
			  - R.A. King,  Bethel University        
			-----------------------------------------
	At level 1: Red. Int., RFO, no backsteps, dynamic trust

	Internal coordinates to be generated automatically.
	Detected frag 1 with atoms:  1 2 3 4 5 6 7 8 9 10 11 12 13 14 15 16 17 18 19 20
	 21
	---Fragment 1 Bond Connectivity---
	 1 : 2 3 10 11
	 2 : 1 4 12 13
	 3 : 1 5 6
	 4 : 2 14 15 16
	 5 : 3 7 17
	 6 : 3 8 18
	 7 : 5 9 19
	 8 : 6 9 20
	 9 : 7 8 21
	 10 : 1
	 11 : 1
	 12 : 2
	 13 : 2
	 14 : 4
	 15 : 4
	 16 : 4
	 17 : 5
	 18 : 6
	 19 : 7
	 20 : 8
	 21 : 9

	Assuming in current code that numbering for constraints corresponds to unified fragment.
	Frozen dihedral atom list: 
	     4     2     1     3
	     2     1     3     5
	     2     1     3     6
	     1     2     4    14
	---Fragment 1 Geometry and Gradient---
	 C          -2.5290485152       -0.7385502501        1.8611157583
	 C          -4.6722492750        0.4234536828        0.2039449990
	 C           0.1232595807       -0.1910606868        0.8241058702
	 C          -6.5332043202       -1.5414665350       -0.8770539338
	 C           1.4018180415        2.0669787297        1.4717471388
	 C           1.2989167848       -1.8876303461       -0.8764133166
	 C           3.8158203346        2.5914495391        0.4812245134
	 C           3.7119987813       -1.3611016249       -1.8682304044
	 C           4.9743263844        0.8757501823       -1.1853627512
	 H          -2.7844166552       -2.7869472297        2.0688627999
	 H          -2.6754815029       -0.0057239073        3.7973215875
	 H          -5.7126096475        1.8190050881        1.3344471974
	 H          -3.8451615033        1.5248087454       -1.3490753946
	 H          -7.4829561044       -2.5844744137        0.6377165133
	 H          -7.9922013905       -0.6178099788       -2.0178267937
	 H          -5.5565749613       -2.9058601359       -2.0892244262
	 H           0.5267104393        3.4243727851        2.7472291255
	 H           0.3436885743       -3.6222931046       -1.4361672025
	 H           4.7858772260        4.3283289463        1.0041948803
	 H           4.6013757055       -2.6860037293       -3.1662889492
	 H           6.8403912491        1.2808828971       -1.9488555696
	            -0.0075819271       -0.0026120428        0.0002666217
	             0.0022813400       -0.0019081197        0.0000879004
	            -0.0002614705        0.0003166953        0.0011050202
	            -0.0019846594       -0.0035225178       -0.0009270810
	            -0.0058611586        0.0069771900        0.0065005850
	            -0.0061091545       -0.0088480754       -0.0027647016
	             0.0055711113        0.0075173320        0.0023873554
	             0.0048756334       -0.0060656815       -0.0056279682
	             0.0062202746        0.0014645745       -0.0024322625
	             0.0000179415       -0.0021402467        0.0046662496
	            -0.0018841163       -0.0010518180        0.0036863259
	             0.0004835645        0.0035419833        0.0011502275
	            -0.0003949151        0.0044744880       -0.0017599434
	            -0.0015502001       -0.0006256274        0.0011900422
	            -0.0013893283        0.0010991068       -0.0011012570
	             0.0001521401       -0.0011408039       -0.0017310403
	            -0.0005062240        0.0041969186        0.0018514944
	            -0.0007063815       -0.0035853281       -0.0028502165
	             0.0024161371        0.0037405343        0.0009763778
	             0.0022126416       -0.0027346449       -0.0028927412
	             0.0040177450        0.0009895148       -0.0017481581

	Previous optimization step data not found.  Starting new optimization.

	---Fragment 1 Intrafragment Coordinates---
	 - Coordinate -           - BOHR/RAD -       - ANG/DEG -
	 R(1,2)           =         2.947843	       1.559931
	 R(1,3)           =         2.899978	       1.534602
	 R(1,10)          =         2.074681	       1.097874
	 R(1,11)          =         2.075420	       1.098265
	 R(2,4)           =         2.914211	       1.542134
	 R(2,12)          =         2.075560	       1.098339
	 R(2,13)          =         2.075796	       1.098464
	 R(3,5)           =         2.674489	       1.415279
	 R(3,6)           =         2.674375	       1.415219
	 R(4,14)          =         2.069885	       1.095336
	 R(4,15)          =         2.069584	       1.095177
	 R(4,16)          =         2.069959	       1.095375
	 R(5,7)           =         2.661506	       1.408408
	 R(5,17)          =         2.057957	       1.089024
	 R(6,8)           =         2.661559	       1.408437
	 R(6,18)          =         2.057873	       1.088979
	 R(7,9)           =         2.657682	       1.406385
	 R(7,19)          =         2.057002	       1.088519
	 R(8,9)           =         2.657684	       1.406386
	 R(8,20)          =         2.057016	       1.088526
	 R(9,21)          =         2.056514	       1.088261
	 B(1,2,4)         =         1.989985	     114.017735
	 B(1,2,12)        =         1.899979	     108.860788
	 B(1,2,13)        =         1.917762	     109.879689
	 B(1,3,5)         =         2.106016	     120.665838
	 B(1,3,6)         =         2.105597	     120.641801
	 B(2,1,3)         =         1.970889	     112.923614
	 B(2,1,10)        =         1.934776	     110.854499
	 B(2,1,11)        =         1.911310	     109.509999
	 B(2,4,14)        =         1.940461	     111.180225
	 B(2,4,15)        =         1.932348	     110.715359
	 B(2,4,16)        =         1.939453	     111.122483
	 B(3,1,10)        =         1.912170	     109.559290
	 B(3,1,11)        =         1.908662	     109.358279
	 B(3,5,7)         =         2.105810	     120.654003
	 B(3,5,17)        =         2.098646	     120.243543
	 B(3,6,8)         =         2.105995	     120.664615
	 B(3,6,18)        =         2.098610	     120.241506
	 B(4,2,12)        =         1.912729	     109.591316
	 B(4,2,13)        =         1.912036	     109.551597
	 B(5,3,6)         =         2.070791	     118.647593
	 B(5,7,9)         =         2.096172	     120.101785
	 B(5,7,19)        =         2.093823	     119.967215
	 B(6,8,9)         =         2.095995	     120.091653
	 B(6,8,20)        =         2.094088	     119.982390
	 B(7,5,17)        =         2.078730	     119.102454
	 B(7,9,8)         =         2.091417	     119.829391
	 B(7,9,21)        =         2.095749	     120.077599
	 B(8,6,18)        =         2.078580	     119.093873
	 B(8,9,21)        =         2.096014	     120.092759
	 B(9,7,19)        =         2.093190	     119.930957
	 B(9,8,20)        =         2.093103	     119.925940
	 B(10,1,11)       =         1.819886	     104.271806
	 B(12,2,13)       =         1.823969	     104.505738
	 B(14,4,15)       =         1.880525	     107.746171
	 B(14,4,16)       =         1.889041	     108.234055
	 B(15,4,16)       =         1.879684	     107.697972
	*D(1,2,4,14)      =         1.050406	      60.183859
	 D(1,2,4,15)      =         3.140201	     179.920239
	 D(1,2,4,16)      =        -1.054909	     -60.441835
	 D(1,3,5,7)       =        -3.120210	    -178.774876
	 D(1,3,5,17)      =         0.021518	       1.232905
	 D(1,3,6,8)       =         3.119192	     178.716532
	 D(1,3,6,18)      =        -0.021919	      -1.255841
	*D(2,1,3,5)       =         1.510462	      86.543122
	*D(2,1,3,6)       =        -1.588084	     -90.990525
	*D(3,1,2,4)       =         2.093727	     119.961729
	 D(3,1,2,12)      =        -2.048055	    -117.344920
	 D(3,1,2,13)      =        -0.060295	      -3.454638
	 D(3,5,7,9)       =         0.009022	       0.516932
	 D(3,5,7,19)      =        -3.133891	    -179.558735
	 D(3,6,8,9)       =        -0.006958	      -0.398644
	 D(3,6,8,20)      =         3.135452	     179.648187
	 D(4,2,1,10)      =        -0.059526	      -3.410577
	 D(4,2,1,11)      =        -2.058102	    -117.920546
	 D(5,3,1,10)      =        -2.607008	    -149.370530
	 D(5,3,1,11)      =        -0.622380	     -35.659739
	 D(5,3,6,8)       =         0.019790	       1.133874
	 D(5,3,6,18)      =        -3.121321	    -178.838499
	 D(5,7,9,8)       =         0.004212	       0.241355
	 D(5,7,9,21)      =        -3.140557	    -179.940658
	 D(6,3,1,10)      =         0.577631	      33.095823
	 D(6,3,1,11)      =         2.562259	     146.806614
	 D(6,3,5,7)       =        -0.020819	      -1.192820
	 D(6,3,5,17)      =         3.120910	     178.814961
	 D(6,8,9,7)       =        -0.005237	      -0.300072
	 D(6,8,9,21)      =         3.139533	     179.881968
	 D(7,9,8,20)      =         3.135539	     179.653123
	 D(8,9,7,19)      =        -3.136060	    -179.683006
	 D(9,7,5,17)      =        -3.132705	    -179.490762
	 D(9,8,6,18)      =         3.134158	     179.574042
	 D(10,1,2,12)     =         2.081877	     119.282775
	 D(10,1,2,13)     =        -2.213548	    -126.826943
	 D(11,1,2,12)     =         0.083301	       4.772805
	 D(11,1,2,13)     =         2.071062	     118.663087
	 D(12,2,4,14)     =        -1.084015	     -62.109479
	 D(12,2,4,15)     =         1.005779	      57.626901
	 D(12,2,4,16)     =         3.093855	     177.264827
	 D(13,2,4,14)     =        -3.075657	    -176.222173
	 D(13,2,4,15)     =        -0.985863	     -56.485792
	 D(13,2,4,16)     =         1.102213	      63.152133
	 D(17,5,7,19)     =         0.007567	       0.433572
	 D(18,6,8,20)     =        -0.006617	      -0.379126
	 D(19,7,9,21)     =         0.002356	       0.134982
	 D(20,8,9,21)     =        -0.002877	      -0.164837

	Current energy   :      -350.0579152378

	Generating empirical Hessian (Schlegel '84) for each fragment.
	Taking RFO optimization step.
	Going to follow RFO solution 1.
	Using RFO vector 1.
	Norm of target step-size    0.17497
	Projected energy change by RFO approximation:        -0.0057608368

	Back-transformation to cartesian coordinates...
	Successfully converged to displaced geometry.

	Back-transformation to cartesian coordinates to adjust frozen coordinates...
	Successfully converged to displaced geometry.

	--- Internal Coordinate Step in ANG or DEG, aJ/ANG or AJ/DEG ---
	 ---------------------------------------------------------------------------
	   Coordinate                Previous        Force       Change         New 
	   ----------                --------       ------       ------       ------
	    1 R(1,2)          =      1.559931    -0.034935    -0.008216     1.551715
	    2 R(1,3)          =      1.534602    -0.111622    -0.024312     1.510291
	    3 R(1,10)         =      1.097874    -0.021246    -0.003966     1.093908
	    4 R(1,11)         =      1.098265    -0.026351    -0.004926     1.093340
	    5 R(2,4)          =      1.542134    -0.056531    -0.012600     1.529534
	    6 R(2,12)         =      1.098339    -0.022715    -0.004247     1.094092
	    7 R(2,13)         =      1.098464    -0.029127    -0.005448     1.093016
	    8 R(3,5)          =      1.415279    -0.130753    -0.019382     1.395897
	    9 R(3,6)          =      1.415219    -0.130305    -0.019316     1.395902
	   10 R(4,14)         =      1.095336    -0.015639    -0.002896     1.092440
	   11 R(4,15)         =      1.095177    -0.017086    -0.003162     1.092015
	   12 R(4,16)         =      1.095375    -0.015237    -0.002822     1.092554
	   13 R(5,7)          =      1.408408    -0.113520    -0.016292     1.392116
	   14 R(5,17)         =      1.089024    -0.034042    -0.006174     1.082849
	   15 R(6,8)          =      1.408437    -0.112138    -0.016104     1.392333
	   16 R(6,18)         =      1.088979    -0.033996    -0.006165     1.082814
	   17 R(7,9)          =      1.406385    -0.101880    -0.014371     1.392014
	   18 R(7,19)         =      1.088519    -0.037445    -0.006780     1.081738
	   19 R(8,9)          =      1.406386    -0.104100    -0.014692     1.391694
	   20 R(8,20)         =      1.088526    -0.037424    -0.006777     1.081749
	   21 R(9,21)         =      1.088261    -0.036972    -0.006689     1.081572
	   22 B(1,2,4)        =    114.017735    -0.000185    -0.996844   113.020890
	   23 B(1,2,12)       =    108.860788     0.000142     0.867450   109.728238
	   24 B(1,2,13)       =    109.879689    -0.000028    -0.663933   109.215756
	   25 B(1,3,5)        =    120.665838     0.000002     0.041512   120.707350
	   26 B(1,3,6)        =    120.641801    -0.000002     0.019305   120.661106
	   27 B(2,1,3)        =    112.923614     0.000133     0.080354   113.003968
	   28 B(2,1,10)       =    110.854499    -0.000150    -1.330403   109.524097
	   29 B(2,1,11)       =    109.509999     0.000001     0.582338   110.092338
	   30 B(2,4,14)       =    111.180225    -0.000032    -0.208542   110.971683
	   31 B(2,4,15)       =    110.715359     0.000059     0.425004   111.140363
	   32 B(2,4,16)       =    111.122483    -0.000089    -0.505726   110.616757
	   33 B(3,1,10)       =    109.559290    -0.000038    -0.614729   108.944561
	   34 B(3,1,11)       =    109.358279    -0.000119    -0.500945   108.857334
	   35 B(3,5,7)        =    120.654003     0.000053     0.136100   120.790102
	   36 B(3,5,17)       =    120.243543    -0.000178    -0.753730   119.489813
	   37 B(3,6,8)        =    120.664615     0.000054     0.150474   120.815089
	   38 B(3,6,18)       =    120.241506    -0.000181    -0.778452   119.463054
	   39 B(4,2,12)       =    109.591316    -0.000046    -0.425535   109.165781
	   40 B(4,2,13)       =    109.551597     0.000062    -0.169328   109.382269
	   41 B(5,3,6)        =    118.647593    -0.000001    -0.060763   118.586831
	   42 B(5,7,9)        =    120.101785     0.000003     0.049831   120.151616
	   43 B(5,7,19)       =    119.967215    -0.000028    -0.152212   119.815003
	   44 B(6,8,9)        =    120.091653     0.000000     0.032210   120.123864
	   45 B(6,8,20)       =    119.982390    -0.000025    -0.128691   119.853699
	   46 B(7,5,17)       =    119.102454     0.000125     0.617484   119.719937
	   47 B(7,9,8)        =    119.829391    -0.000109    -0.297664   119.531726
	   48 B(7,9,21)       =    120.077599     0.000059     0.164029   120.241628
	   49 B(8,6,18)       =    119.093873     0.000127     0.627952   119.721825
	   50 B(8,9,21)       =    120.092759     0.000051     0.133168   120.225927
	   51 B(9,7,19)       =    119.930957     0.000025     0.101857   120.032814
	   52 B(9,8,20)       =    119.925940     0.000025     0.096004   120.021945
	   53 B(10,1,11)      =    104.271806     0.000175     1.911499   106.183306
	   54 B(12,2,13)      =    104.505738     0.000077     1.586577   106.092315
	   55 B(14,4,15)      =    107.746171     0.000025     0.288392   108.034563
	   56 B(14,4,16)      =    108.234055     0.000007    -0.261445   107.972610
	   57 B(15,4,16)      =    107.697972     0.000034     0.280090   107.978061
	   58 *D(1,2,4,14)    =     60.183859    -0.000000     0.000000    60.183859
	   59 D(1,2,4,15)     =    179.920239     0.000011     0.508029   180.428268
	   60 D(1,2,4,16)     =    -60.441835     0.000017     0.806569   -59.635266
	   61 D(1,3,5,7)      =   -178.774876     0.000010     1.490720  -177.284156
	   62 D(1,3,5,17)     =      1.232905     0.000009     1.342886     2.575791
	   63 D(1,3,6,8)      =    178.716532    -0.000009    -1.438630   177.277901
	   64 D(1,3,6,18)     =     -1.255841    -0.000009    -1.400591    -2.656432
	   65 *D(2,1,3,5)     =     86.543122    -0.000000    -0.000000    86.543122
	   66 *D(2,1,3,6)     =    -90.990525     0.000000     0.000000   -90.990525
	   67 *D(3,1,2,4)     =    119.961729    -0.000000     0.000000   119.961729
	   68 D(3,1,2,12)     =   -117.344920    -0.000018    -0.598163  -117.943083
	   69 D(3,1,2,13)     =     -3.454638     0.000017     1.413677    -2.040962
	   70 D(3,5,7,9)      =      0.516932    -0.000005    -0.711639    -0.194707
	   71 D(3,5,7,19)     =   -179.558735    -0.000002    -0.362216  -179.920952
	   72 D(3,6,8,9)      =     -0.398644     0.000004     0.608087     0.209443
	   73 D(3,6,8,20)     =    179.648187     0.000002     0.306074   179.954261
	   74 D(4,2,1,10)     =     -3.410577     0.000015     1.720073    -1.690504
	   75 D(4,2,1,11)     =   -117.920546    -0.000014    -0.166840  -118.087387
	   76 D(5,3,1,10)     =   -149.370530    -0.000030    -2.108183  -151.478713
	   77 D(5,3,1,11)     =    -35.659739    -0.000001    -0.438974   -36.098712
	   78 D(5,3,6,8)      =      1.133874    -0.000009    -1.441069    -0.307194
	   79 D(5,3,6,18)     =   -178.838499    -0.000009    -1.403029  -180.241528
	   80 D(5,7,9,8)      =      0.241355    -0.000001    -0.151434     0.089920
	   81 D(5,7,9,21)     =   -179.940658     0.000002     0.338198  -179.602460
	   82 D(6,3,1,10)     =     33.095823    -0.000030    -2.108183    30.987640
	   83 D(6,3,1,11)     =    146.806614    -0.000001    -0.438974   146.367641
	   84 D(6,3,5,7)      =     -1.192820     0.000010     1.492602     0.299782
	   85 D(6,3,5,17)     =    178.814961     0.000009     1.344768   180.159729
	   86 D(6,8,9,7)      =     -0.300072     0.000001     0.202909    -0.097164
	   87 D(6,8,9,21)     =    179.881968    -0.000002    -0.286702   179.595266
	   88 D(7,9,8,20)     =    179.653123     0.000003     0.505327   180.158450
	   89 D(8,9,7,19)     =   -179.683006    -0.000003    -0.501428  -180.184435
	   90 D(9,7,5,17)     =   -179.490762    -0.000004    -0.563573  -180.054334
	   91 D(9,8,6,18)     =    179.574042     0.000004     0.569565   180.143607
	   92 D(10,1,2,12)    =    119.282775    -0.000003     1.121910   120.404685
	   93 D(10,1,2,13)    =   -126.826943     0.000032     3.133750  -123.693194
	   94 D(11,1,2,12)    =      4.772805    -0.000032    -0.765003     4.007802
	   95 D(11,1,2,13)    =    118.663087     0.000003     1.246836   119.909923
	   96 D(12,2,4,14)    =    -62.109479    -0.000005    -0.116569   -62.226048
	   97 D(12,2,4,15)    =     57.626901     0.000007     0.391460    58.018361
	   98 D(12,2,4,16)    =    177.264827     0.000012     0.690000   177.954827
	   99 D(13,2,4,14)    =   -176.222173    -0.000028    -1.684752  -177.906924
	  100 D(13,2,4,15)    =    -56.485792    -0.000017    -1.176722   -57.662515
	  101 D(13,2,4,16)    =     63.152133    -0.000011    -0.878183    62.273951
	  102 D(17,5,7,19)    =      0.433572    -0.000001    -0.214150     0.219421
	  103 D(18,6,8,20)    =     -0.379126     0.000002     0.267552    -0.111574
	  104 D(19,7,9,21)    =      0.134982    -0.000000    -0.011797     0.123185
	  105 D(20,8,9,21)    =     -0.164837     0.000000     0.015716    -0.149121
	 ---------------------------------------------------------------------------
	Successfully symmetrized geometry.

  ==> Convergence Check <==

  Measures of convergence in internal coordinates in au.
  Criteria marked as inactive (o), active & met (*), and active & unmet ( ).
  --------------------------------------------------------------------------------------------- ~
   Step     Total Energy     Delta E     MAX Force     RMS Force      MAX Disp      RMS Disp    ~
  --------------------------------------------------------------------------------------------- ~
    Convergence Criteria             o    2.50e-03 *    1.70e-03 *    1.00e-02 *    6.70e-03 *  ~
  --------------------------------------------------------------------------------------------- ~
      1    -350.05791524   -3.50e+02 o    1.59e-02      3.97e-03      5.47e-02      1.71e-02    ~
  ---------------------------------------------------------------------------------------------

	Writing optimization data to binary file.
	Structure for next step:
	Cartesian Geometry (in Angstrom)
	    C    -1.3335110184  -0.3790806137   0.9690009799
	    C    -2.4453506257   0.2571544027   0.0933082649
	    C     0.0570462816  -0.1106344269   0.4443442641
	    C    -3.4191207794  -0.7739804061  -0.4794110811
	    C     0.7401391704   1.0539679572   0.7987640504
	    C     0.6655617144  -0.9972823941  -0.4456600734
	    C     1.9988105519   1.3301462685   0.2720205479
	    C     1.9242173621  -0.7249899800  -0.9750305440
	    C     2.5955493550   0.4401801226  -0.6165546193
	    H    -1.4883195188  -1.4603838204   1.0277509776
	    H    -1.4027320167  -0.0051963372   1.9940914946
	    H    -3.0042517597   0.9909851023   0.6816612967
	    H    -1.9834686302   0.8140752015  -0.7259526193
	    H    -3.9238663379  -1.3213148941   0.3200153468
	    H    -4.1828434821  -0.2947548988  -1.0955009431
	    H    -2.8895423482  -1.4989132233  -1.1020610859
	    H     0.2828274398   1.7507274548   1.4901070734
	    H     0.1500606303  -1.9069310396  -0.7272356488
	    H     2.5146354703   2.2367890172   0.5585191539
	    H     2.3816516484  -1.4233650807  -1.6629310183
	    H     3.5761383117   0.6501734062  -1.0217028563
			--------------------------
			 OPTKING Finished Execution 
			--------------------------

    Structure for next step:
    Molecular point group: c1
    Full point group: C1

    Geometry (in Angstrom), charge = 0, multiplicity = 1:

    C           -1.328118412037    -0.376300907387     0.965136650977
    C           -2.439958023700     0.259934111560     0.089443932548
    C            0.062438893438    -0.107854719546     0.440479933047
    C           -3.413728181251    -0.771200701289    -0.483275415717
    C            0.745531784894     1.056747669135     0.794899720752
    C            0.670954328554    -0.994502690221    -0.449524407917
    C            2.004203171385     1.332925981488     0.268156216175
    C            1.929609981283    -0.722210275022    -0.978894880574
    C            2.600941976773     0.442959832110    -0.620418954484
    H           -1.482926913053    -1.457604118341     1.023886648879
    H           -1.397339410644    -0.002416629441     1.990227169637
    H           -2.998859159948     0.993764813957     0.677796966605
    H           -1.978076026428     0.816854912466    -0.729816954897
    H           -3.918473741773    -1.318535191508     0.316151015288
    H           -4.177450886953    -0.291975192178    -1.099365280180
    H           -2.884149747995    -1.496133521423    -1.105925423013
    H            0.288220052488     1.753507169455     1.486242746488
    H            0.155453242484    -1.904151339328    -0.731099984457
    H            2.520028091766     2.239568733787     0.554654823323
    H            2.387044269314    -1.420585378456    -1.666795357636
    H            3.581530937384     0.652953116593    -1.025567193049

gradient() will perform analytic gradient computation.

*** tstart() called on daniele-Precision-5750
*** at Wed Jun  2 00:24:05 2021

   => Loading Basis Set <=

    Name: 6-311G
    Role: ORBITAL
    Keyword: BASIS
    atoms 1-9   entry C          line    92 file /home/daniele/anaconda3/envs/poltype/share/psi4/basis/6-311g.gbs 
    atoms 10-21 entry H          line    21 file /home/daniele/anaconda3/envs/poltype/share/psi4/basis/6-311g.gbs 


         ---------------------------------------------------------
                                   SCF
               by Justin Turney, Rob Parrish, Andy Simmonett
                          and Daniel G. A. Smith
                              RKS Reference
                        8 Threads,    667 MiB Core
         ---------------------------------------------------------

  ==> Geometry <==

    Molecular point group: c1
    Full point group: C1

    Geometry (in Angstrom), charge = 0, multiplicity = 1:

       Center              X                  Y                   Z               Mass       
    ------------   -----------------  -----------------  -----------------  -----------------
         C           -1.328118412037    -0.376300907387     0.965136650977    12.000000000000
         C           -2.439958023700     0.259934111560     0.089443932548    12.000000000000
         C            0.062438893438    -0.107854719546     0.440479933047    12.000000000000
         C           -3.413728181251    -0.771200701289    -0.483275415717    12.000000000000
         C            0.745531784894     1.056747669135     0.794899720752    12.000000000000
         C            0.670954328554    -0.994502690221    -0.449524407917    12.000000000000
         C            2.004203171385     1.332925981488     0.268156216175    12.000000000000
         C            1.929609981283    -0.722210275022    -0.978894880574    12.000000000000
         C            2.600941976773     0.442959832110    -0.620418954484    12.000000000000
         H           -1.482926913053    -1.457604118341     1.023886648879     1.007825032230
         H           -1.397339410644    -0.002416629441     1.990227169637     1.007825032230
         H           -2.998859159948     0.993764813957     0.677796966605     1.007825032230
         H           -1.978076026428     0.816854912466    -0.729816954897     1.007825032230
         H           -3.918473741773    -1.318535191508     0.316151015288     1.007825032230
         H           -4.177450886953    -0.291975192178    -1.099365280180     1.007825032230
         H           -2.884149747995    -1.496133521423    -1.105925423013     1.007825032230
         H            0.288220052488     1.753507169455     1.486242746488     1.007825032230
         H            0.155453242484    -1.904151339328    -0.731099984457     1.007825032230
         H            2.520028091766     2.239568733787     0.554654823323     1.007825032230
         H            2.387044269314    -1.420585378456    -1.666795357636     1.007825032230
         H            3.581530937384     0.652953116593    -1.025567193049     1.007825032230

  Running in c1 symmetry.

  Rotational constants: A =      0.12806  B =      0.03096  C =      0.02715 [cm^-1]
  Rotational constants: A =   3839.18511  B =    928.03797  C =    813.98536 [MHz]
  Nuclear repulsion =  413.611125488673622

  Charge       = 0
  Multiplicity = 1
  Electrons    = 66
  Nalpha       = 33
  Nbeta        = 33

  ==> Algorithm <==

  SCF Algorithm Type is DF.
  DIIS enabled.
  MOM disabled.
  Fractional occupation disabled.
  Guess Type is READ.
  Energy threshold   = 1.00e-08
  Density threshold  = 1.00e-08
  Integral threshold = 0.00e+00

  ==> Primary Basis <==

  Basis Set: 6-311G
    Blend: 6-311G
    Number of shells: 99
    Number of basis function: 153
    Number of Cartesian functions: 153
    Spherical Harmonics?: true
    Max angular momentum: 1

  ==> DFT Potential <==

   => Composite Functional: WB97X-D <= 

    wB97X-D Hyb-GGA Exchange-Correlation Functional

    J.-D. Chai and M. Head-Gordon, Phys. Chem. Chem. Phys. 10, 6615 (2008)

    Deriv               =              1
    GGA                 =           TRUE
    Meta                =          FALSE

    Exchange Hybrid     =           TRUE
    MP2 Hybrid          =          FALSE

   => Exchange-Correlation Functionals <=

    1.0000   wB97D range-separated functional

   => Exact (HF) Exchange <=

    0.7780            HF,LR [omega = 0.2000]
    0.2220               HF 

   => Molecular Quadrature <=

    Radial Scheme          =       TREUTLER
    Pruning Scheme         =           FLAT
    Nuclear Scheme         =       TREUTLER

    BS radius alpha        =              1
    Pruning alpha          =              1
    Radial Points          =             75
    Spherical Points       =            302
    Total Points           =         470069
    Total Blocks           =           3458
    Max Points             =            256
    Max Functions          =            142

   => WB97X-D: Empirical Dispersion <=

    Chai and Head-Gordon Dispersion Correction
    Chai, J.-D.; Head-Gordon, M. (2010), J. Chem. Phys., 132: 6615-6620

        s6 =       1.000000

   => Loading Basis Set <=

    Name: (6-311G AUX)
    Role: JKFIT
    Keyword: DF_BASIS_SCF
    atoms 1-9   entry C          line   125 file /home/daniele/anaconda3/envs/poltype/share/psi4/basis/cc-pvtz-jkfit.gbs 
    atoms 10-21 entry H          line    51 file /home/daniele/anaconda3/envs/poltype/share/psi4/basis/cc-pvtz-jkfit.gbs 

   => Loading Basis Set <=

    Name: 6-311G
    Role: ORBITAL
    Keyword: BASIS
    atoms 1-9   entry C          line    92 file /home/daniele/anaconda3/envs/poltype/share/psi4/basis/6-311g.gbs 
    atoms 10-21 entry H          line    21 file /home/daniele/anaconda3/envs/poltype/share/psi4/basis/6-311g.gbs 

  Reading orbitals from file 180, no projection.

  ==> Pre-Iterations <==

   -------------------------------------------------------
    Irrep   Nso     Nmo     Nalpha   Nbeta   Ndocc  Nsocc
   -------------------------------------------------------
     A        153     153       0       0       0       0
   -------------------------------------------------------
    Total     153     153      33      33      33       0
   -------------------------------------------------------

  ==> Integral Setup <==

  ==> DiskDFJK: Density-Fitted J/K Matrices <==

    J tasked:                  Yes
    K tasked:                  Yes
    wK tasked:                 Yes
    Omega:               2.000E-01
    OpenMP threads:              8
    Integrals threads:           8
    Memory [MiB]:              115
    Algorithm:                Disk
    Integral Cache:           NONE
    Schwarz Cutoff:          1E-12
    Fitting Condition:       1E-10

   => Auxiliary Basis Set <=

  Basis Set: (6-311G AUX)
    Blend: CC-PVTZ-JKFIT
    Number of shells: 345
    Number of basis function: 1071
    Number of Cartesian functions: 1284
    Spherical Harmonics?: true
    Max angular momentum: 4

  Cached 33.3% of DFT collocation blocks in 0.448 [GiB].

  Minimum eigenvalue in the overlap matrix is 2.4480741173E-04.
  Using Symmetric Orthogonalization.

  SCF Guess: Orbitals guess was supplied from a previous computation.

  ==> Iterations <==

                           Total Energy        Delta E     RMS |[F,P]|

   @DF-RKS iter   0:  -350.12951237024362   -3.50130e+02   6.26688e-04 
   @DF-RKS iter   1:  -350.05998646134117    6.95259e-02   9.83327e-05 DIIS
   @DF-RKS iter   2:  -350.06010308105056   -1.16620e-04   6.71112e-05 DIIS
   @DF-RKS iter   3:  -350.06015995053673   -5.68695e-05   1.00768e-05 DIIS
   @DF-RKS iter   4:  -350.06016198909691   -2.03856e-06   5.55144e-06 DIIS
   @DF-RKS iter   5:  -350.06016245474370   -4.65647e-07   1.81245e-06 DIIS
   @DF-RKS iter   6:  -350.06016251739891   -6.26552e-08   5.72349e-07 DIIS
   @DF-RKS iter   7:  -350.06016252268870   -5.28979e-09   1.28407e-07 DIIS
   @DF-RKS iter   8:  -350.06016252318949   -5.00791e-10   3.11516e-08 DIIS
   @DF-RKS iter   9:  -350.06016252320921   -1.97247e-11   1.34887e-08 DIIS
   @DF-RKS iter  10:  -350.06016252321297   -3.75167e-12   2.87145e-09 DIIS
  Energy and wave function converged.


  ==> Post-Iterations <==

    Orbital Energies [Eh]
    ---------------------

    Doubly Occupied:                                                      

       1A    -10.296443     2A    -10.288311     3A    -10.288226  
       4A    -10.285932     5A    -10.285260     6A    -10.285188  
       7A    -10.283235     8A    -10.280105     9A    -10.270301  
      10A     -0.966840    11A     -0.899995    12A     -0.850124  
      13A     -0.848787    14A     -0.779391    15A     -0.705080  
      16A     -0.699392    17A     -0.671661    18A     -0.607532  
      19A     -0.561094    20A     -0.550497    21A     -0.533739  
      22A     -0.519176    23A     -0.509747    24A     -0.492657  
      25A     -0.480492    26A     -0.460235    27A     -0.440549  
      28A     -0.428556    29A     -0.421617    30A     -0.411739  
      31A     -0.402500    32A     -0.329212    33A     -0.318004  

    Virtual:                                                              

      34A      0.065541    35A      0.069176    36A      0.121293  
      37A      0.136877    38A      0.143614    39A      0.159046  
      40A      0.173349    41A      0.174732    42A      0.193448  
      43A      0.200177    44A      0.206070    45A      0.212863  
      46A      0.218641    47A      0.235777    48A      0.250147  
      49A      0.291682    50A      0.309321    51A      0.326305  
      52A      0.360040    53A      0.368806    54A      0.374927  
      55A      0.385943    56A      0.388231    57A      0.401079  
      58A      0.415633    59A      0.419773    60A      0.458856  
      61A      0.477311    62A      0.481621    63A      0.494180  
      64A      0.499906    65A      0.508669    66A      0.529131  
      67A      0.541105    68A      0.549123    69A      0.565834  
      70A      0.572216    71A      0.586990    72A      0.611517  
      73A      0.630175    74A      0.639046    75A      0.640772  
      76A      0.665433    77A      0.674988    78A      0.681814  
      79A      0.685925    80A      0.694303    81A      0.701653  
      82A      0.705470    83A      0.711882    84A      0.722426  
      85A      0.727262    86A      0.736196    87A      0.747314  
      88A      0.755284    89A      0.763459    90A      0.774455  
      91A      0.809250    92A      0.855682    93A      0.866571  
      94A      0.889353    95A      0.915541    96A      0.936336  
      97A      0.947023    98A      0.973315    99A      1.015927  
     100A      1.025681   101A      1.134441   102A      1.139553  
     103A      1.188248   104A      1.215741   105A      1.376650  
     106A      2.298997   107A      2.326615   108A      2.351406  
     109A      2.363008   110A      2.366837   111A      2.379299  
     112A      2.393328   113A      2.401688   114A      2.427154  
     115A      2.458671   116A      2.468480   117A      2.612844  
     118A      2.646992   119A      2.674970   120A      2.704330  
     121A      2.775047   122A      2.776830   123A      2.828040  
     124A      2.837240   125A      2.908697   126A      2.916255  
     127A      2.933337   128A      2.951411   129A      2.977041  
     130A      2.986561   131A      3.013992   132A      3.022926  
     133A      3.074419   134A      3.119271   135A      3.164053  
     136A      3.194058   137A      3.215516   138A      3.232888  
     139A      3.282397   140A      3.319880   141A      3.362259  
     142A      3.403665   143A      3.413008   144A      3.545209  
     145A     23.252034   146A     23.475675   147A     23.489163  
     148A     23.518595   149A     23.671649   150A     23.723797  
     151A     23.755861   152A     23.767965   153A     24.027116  

    Final Occupation by Irrep:
              A 
    DOCC [    33 ]

  @DF-RKS Final Energy:  -350.06016252321297

   => Energetics <=

    Nuclear Repulsion Energy =            413.6111254886736219
    One-Electron Energy =               -1289.7928970791990650
    Two-Electron Energy =                 562.5293951394860414
    DFT Exchange-Correlation Energy =     -36.3960881062295130
    Empirical Dispersion Energy =          -0.0116979659441548
    VV10 Nonlocal Energy =                  0.0000000000000000
    Total Energy =                       -350.0601625232130232

Computation Completed


Properties will be evaluated at   0.000000,   0.000000,   0.000000 [a0]

Properties computed using the SCF density matrix

  Nuclear Dipole Moment: [e a0]
     X:    -9.2856      Y:    -1.3450      Z:    -0.2903

  Electronic Dipole Moment: [e a0]
     X:     9.1320      Y:     1.3646      Z:     0.3010

  Dipole Moment: [e a0]
     X:    -0.1537      Y:     0.0195      Z:     0.0108     Total:     0.1553

  Dipole Moment: [D]
     X:    -0.3906      Y:     0.0496      Z:     0.0274     Total:     0.3947


*** tstop() called on daniele-Precision-5750 at Wed Jun  2 00:24:14 2021
Module time:
	user time   =      68.58 seconds =       1.14 minutes
	system time =       1.95 seconds =       0.03 minutes
	total time  =          9 seconds =       0.15 minutes
Total time:
	user time   =     184.34 seconds =       3.07 minutes
	system time =       4.73 seconds =       0.08 minutes
	total time  =         24 seconds =       0.40 minutes

*** tstart() called on daniele-Precision-5750
*** at Wed Jun  2 00:24:14 2021


         ------------------------------------------------------------
                                   SCF GRAD                          
                          Rob Parrish, Justin Turney,                
                       Andy Simmonett, and Alex Sokolov              
         ------------------------------------------------------------

  ==> Geometry <==

    Molecular point group: c1
    Full point group: C1

    Geometry (in Angstrom), charge = 0, multiplicity = 1:

       Center              X                  Y                   Z               Mass       
    ------------   -----------------  -----------------  -----------------  -----------------
         C           -1.328118412037    -0.376300907387     0.965136650977    12.000000000000
         C           -2.439958023700     0.259934111560     0.089443932548    12.000000000000
         C            0.062438893438    -0.107854719546     0.440479933047    12.000000000000
         C           -3.413728181251    -0.771200701289    -0.483275415717    12.000000000000
         C            0.745531784894     1.056747669135     0.794899720752    12.000000000000
         C            0.670954328554    -0.994502690221    -0.449524407917    12.000000000000
         C            2.004203171385     1.332925981488     0.268156216175    12.000000000000
         C            1.929609981283    -0.722210275022    -0.978894880574    12.000000000000
         C            2.600941976773     0.442959832110    -0.620418954484    12.000000000000
         H           -1.482926913053    -1.457604118341     1.023886648879     1.007825032230
         H           -1.397339410644    -0.002416629441     1.990227169637     1.007825032230
         H           -2.998859159948     0.993764813957     0.677796966605     1.007825032230
         H           -1.978076026428     0.816854912466    -0.729816954897     1.007825032230
         H           -3.918473741773    -1.318535191508     0.316151015288     1.007825032230
         H           -4.177450886953    -0.291975192178    -1.099365280180     1.007825032230
         H           -2.884149747995    -1.496133521423    -1.105925423013     1.007825032230
         H            0.288220052488     1.753507169455     1.486242746488     1.007825032230
         H            0.155453242484    -1.904151339328    -0.731099984457     1.007825032230
         H            2.520028091766     2.239568733787     0.554654823323     1.007825032230
         H            2.387044269314    -1.420585378456    -1.666795357636     1.007825032230
         H            3.581530937384     0.652953116593    -1.025567193049     1.007825032230

  Nuclear repulsion =  413.611125488673622

  ==> Basis Set <==

  Basis Set: 6-311G
    Blend: 6-311G
    Number of shells: 99
    Number of basis function: 153
    Number of Cartesian functions: 153
    Spherical Harmonics?: true
    Max angular momentum: 1

  ==> DFJKGrad: Density-Fitted SCF Gradients <==

    Gradient:                    1
    J tasked:                  Yes
    K tasked:                  Yes
    wK tasked:                 Yes
    Omega:               2.000E-01
    OpenMP threads:              8
    Integrals threads:           8
    Memory [MiB]:              500
    Schwarz Cutoff:          0E+00
    Fitting Condition:       1E-10

   => Auxiliary Basis Set <=

  Basis Set: (6-311G AUX)
    Blend: CC-PVTZ-JKFIT
    Number of shells: 345
    Number of basis function: 1071
    Number of Cartesian functions: 1284
    Spherical Harmonics?: true
    Max angular momentum: 4

  ==> DFT Potential <==

   => Composite Functional: WB97X-D <= 

    wB97X-D Hyb-GGA Exchange-Correlation Functional

    J.-D. Chai and M. Head-Gordon, Phys. Chem. Chem. Phys. 10, 6615 (2008)

    Deriv               =              1
    GGA                 =           TRUE
    Meta                =          FALSE

    Exchange Hybrid     =           TRUE
    MP2 Hybrid          =          FALSE

   => Exchange-Correlation Functionals <=

    1.0000   wB97D range-separated functional

   => Exact (HF) Exchange <=

    0.7780            HF,LR [omega = 0.2000]
    0.2220               HF 

   => Molecular Quadrature <=

    Radial Scheme          =       TREUTLER
    Pruning Scheme         =           FLAT
    Nuclear Scheme         =       TREUTLER

    BS radius alpha        =              1
    Pruning alpha          =              1
    Radial Points          =             75
    Spherical Points       =            302
    Total Points           =         470069
    Total Blocks           =           3458
    Max Points             =            256
    Max Functions          =            142


  -Total Gradient:
     Atom            X                  Y                   Z
    ------   -----------------  -----------------  -----------------
       1       -0.001732226310     0.000130069996    -0.002341443517
       2        0.001492495025    -0.001956580073    -0.000281974686
       3        0.002673410205     0.001195620580    -0.000749413711
       4        0.000199707098    -0.000156445214     0.000806671806
       5       -0.001158424737    -0.001966340264    -0.000093321886
       6       -0.000898024497     0.001034356104     0.001710573843
       7       -0.000359269495    -0.001246230675    -0.000923482416
       8       -0.000425050873     0.001233181502     0.000714809067
       9       -0.001435447819    -0.000232057370     0.000596416721
      10        0.000580016866    -0.000217121792     0.000184191829
      11        0.000606702501     0.000322012226     0.000325379004
      12       -0.000378291805     0.000263116659     0.000269603374
      13        0.000031893043     0.000334905443    -0.000059105210
      14        0.000098018332     0.000275299865     0.000082730963
      15        0.000059841282     0.000556789257    -0.000012643398
      16        0.000138887031     0.000375231935     0.000120539311
      17        0.000313051898     0.000012563642    -0.000294821337
      18        0.000264034359     0.000275352221    -0.000156658664
      19       -0.000091172317    -0.000186338562    -0.000074231308
      20       -0.000066571385     0.000187589487     0.000099152673
      21        0.000046023808    -0.000087859557     0.000142836621


*** tstop() called on daniele-Precision-5750 at Wed Jun  2 00:24:19 2021
Module time:
	user time   =      36.78 seconds =       0.61 minutes
	system time =       0.40 seconds =       0.01 minutes
	total time  =          5 seconds =       0.08 minutes
Total time:
	user time   =     221.13 seconds =       3.69 minutes
	system time =       5.13 seconds =       0.09 minutes
	total time  =         29 seconds =       0.48 minutes

			-----------------------------------------
			 OPTKING 2.0: for geometry optimizations 
			  - R.A. King,  Bethel University        
			-----------------------------------------
	At level 1: Red. Int., RFO, no backsteps, dynamic trust

	Previous internal coordinate definitions found.
	---Fragment 1 Geometry and Gradient---
	 C          -2.5097800609       -0.7111056557        1.8238439440
	 C          -4.6108524224        0.4912042815        0.1690245361
	 C           0.1179924082       -0.2038158813        0.8323864372
	 C          -6.4510113293       -1.4573581132       -0.9132581789
	 C           1.4088508913        1.9969636784        1.5021427694
	 C           1.2679199237       -1.8793377155       -0.8494780177
	 C           3.7873950937        2.5188650505        0.5067418074
	 C           3.6464343936       -1.3647796248       -1.8498432299
	 C           4.9150680043        0.8370727673       -1.1724219070
	 H          -2.8023257297       -2.7544725830        1.9348653499
	 H          -2.6405887904       -0.0045667678        3.7609842781
	 H          -5.6670225011        1.8779433315        1.2808506355
	 H          -3.7380219453        1.5436320688       -1.3791541665
	 H          -7.4048422017       -2.4916703987        0.5974388332
	 H          -7.8942380789       -0.5517531486       -2.0774992914
	 H          -5.4502531285       -2.8272826026       -2.0898961647
	 H           0.5446569631        3.3136483093        2.8085917468
	 H           0.2937640536       -3.5983245328       -1.3815787410
	 H           4.7621629219        4.2321715460        1.0481457102
	 H           4.5108599183       -2.6845173031       -3.1497867331
	 H           6.7681125815        1.2339025631       -1.9380411181
	            -0.0017322263        0.0001300700       -0.0023414435
	             0.0014924950       -0.0019565801       -0.0002819747
	             0.0026734102        0.0011956206       -0.0007494137
	             0.0001997071       -0.0001564452        0.0008066718
	            -0.0011584247       -0.0019663403       -0.0000933219
	            -0.0008980245        0.0010343561        0.0017105738
	            -0.0003592695       -0.0012462307       -0.0009234824
	            -0.0004250509        0.0012331815        0.0007148091
	            -0.0014354478       -0.0002320574        0.0005964167
	             0.0005800169       -0.0002171218        0.0001841918
	             0.0006067025        0.0003220122        0.0003253790
	            -0.0003782918        0.0002631167        0.0002696034
	             0.0000318930        0.0003349054       -0.0000591052
	             0.0000980183        0.0002752999        0.0000827310
	             0.0000598413        0.0005567893       -0.0000126434
	             0.0001388870        0.0003752319        0.0001205393
	             0.0003130519        0.0000125636       -0.0002948213
	             0.0002640344        0.0002753522       -0.0001566587
	            -0.0000911723       -0.0001863386       -0.0000742313
	            -0.0000665714        0.0001875895        0.0000991527
	             0.0000460238       -0.0000878596        0.0001428366

	---Fragment 1 Intrafragment Coordinates---
	 - Coordinate -           - BOHR/RAD -       - ANG/DEG -
	 R(1,2)           =         2.932317	       1.551715
	 R(1,3)           =         2.854036	       1.510291
	 R(1,10)          =         2.067186	       1.093908
	 R(1,11)          =         2.066112	       1.093340
	 R(2,4)           =         2.890401	       1.529534
	 R(2,12)          =         2.067534	       1.094092
	 R(2,13)          =         2.065501	       1.093016
	 R(3,5)           =         2.637863	       1.395897
	 R(3,6)           =         2.637873	       1.395902
	 R(4,14)          =         2.064413	       1.092440
	 R(4,15)          =         2.063609	       1.092015
	 R(4,16)          =         2.064628	       1.092554
	 R(5,7)           =         2.630718	       1.392116
	 R(5,17)          =         2.046289	       1.082849
	 R(6,8)           =         2.631127	       1.392333
	 R(6,18)          =         2.046222	       1.082814
	 R(7,9)           =         2.630525	       1.392014
	 R(7,19)          =         2.044189	       1.081738
	 R(8,9)           =         2.629921	       1.391694
	 R(8,20)          =         2.044209	       1.081749
	 R(9,21)          =         2.043874	       1.081572
	 B(1,2,4)         =         1.972587	     113.020890
	 B(1,2,12)        =         1.915119	     109.728238
	 B(1,2,13)        =         1.906175	     109.215756
	 B(1,3,5)         =         2.106741	     120.707350
	 B(1,3,6)         =         2.105934	     120.661106
	 B(2,1,3)         =         1.972291	     113.003968
	 B(2,1,10)        =         1.911556	     109.524097
	 B(2,1,11)        =         1.921474	     110.092338
	 B(2,4,14)        =         1.936821	     110.971683
	 B(2,4,15)        =         1.939765	     111.140363
	 B(2,4,16)        =         1.930627	     110.616757
	 B(3,1,10)        =         1.901441	     108.944561
	 B(3,1,11)        =         1.899919	     108.857334
	 B(3,5,7)         =         2.108185	     120.790102
	 B(3,5,17)        =         2.085491	     119.489813
	 B(3,6,8)         =         2.108621	     120.815089
	 B(3,6,18)        =         2.085024	     119.463054
	 B(4,2,12)        =         1.905302	     109.165781
	 B(4,2,13)        =         1.909081	     109.382269
	 B(5,3,6)         =         2.069731	     118.586831
	 B(5,7,9)         =         2.097041	     120.151616
	 B(5,7,19)        =         2.091166	     119.815003
	 B(6,8,9)         =         2.096557	     120.123864
	 B(6,8,20)        =         2.091842	     119.853699
	 B(7,5,17)        =         2.089507	     119.719937
	 B(7,9,8)         =         2.086222	     119.531726
	 B(7,9,21)        =         2.098612	     120.241628
	 B(8,6,18)        =         2.089540	     119.721825
	 B(8,9,21)        =         2.098338	     120.225927
	 B(9,7,19)        =         2.094968	     120.032814
	 B(9,8,20)        =         2.094778	     120.021945
	 B(10,1,11)       =         1.853248	     106.183306
	 B(12,2,13)       =         1.851660	     106.092315
	 B(14,4,15)       =         1.885559	     108.034563
	 B(14,4,16)       =         1.884478	     107.972610
	 B(15,4,16)       =         1.884573	     107.978061
	*D(1,2,4,14)      =         1.050406	      60.183859
	 D(1,2,4,15)      =        -3.134118	    -179.571732
	 D(1,2,4,16)      =        -1.040832	     -59.635266
	 D(1,3,5,7)       =        -3.094192	    -177.284156
	 D(1,3,5,17)      =         0.044956	       2.575791
	 D(1,3,6,8)       =         3.094083	     177.277901
	 D(1,3,6,18)      =        -0.046363	      -2.656432
	*D(2,1,3,5)       =         1.510462	      86.543122
	*D(2,1,3,6)       =        -1.588084	     -90.990525
	*D(3,1,2,4)       =         2.093727	     119.961729
	 D(3,1,2,12)      =        -2.058495	    -117.943083
	 D(3,1,2,13)      =        -0.035621	      -2.040962
	 D(3,5,7,9)       =        -0.003398	      -0.194707
	 D(3,5,7,19)      =        -3.140213	    -179.920952
	 D(3,6,8,9)       =         0.003655	       0.209443
	 D(3,6,8,20)      =         3.140794	     179.954261
	 D(4,2,1,10)      =        -0.029505	      -1.690504
	 D(4,2,1,11)      =        -2.061014	    -118.087387
	 D(5,3,1,10)      =        -2.643802	    -151.478713
	 D(5,3,1,11)      =        -0.630041	     -36.098712
	 D(5,3,6,8)       =        -0.005362	      -0.307194
	 D(5,3,6,18)      =         3.137377	     179.758472
	 D(5,7,9,8)       =         0.001569	       0.089920
	 D(5,7,9,21)      =        -3.134654	    -179.602460
	 D(6,3,1,10)      =         0.540836	      30.987640
	 D(6,3,1,11)      =         2.554597	     146.367641
	 D(6,3,5,7)       =         0.005232	       0.299782
	 D(6,3,5,17)      =        -3.138805	    -179.840271
	 D(6,8,9,7)       =        -0.001696	      -0.097164
	 D(6,8,9,21)      =         3.134529	     179.595266
	 D(7,9,8,20)      =        -3.138827	    -179.841550
	 D(8,9,7,19)      =         3.138374	     179.815565
	 D(9,7,5,17)      =         3.140644	     179.945666
	 D(9,8,6,18)      =        -3.139086	    -179.856393
	 D(10,1,2,12)     =         2.101458	     120.404685
	 D(10,1,2,13)     =        -2.158853	    -123.693194
	 D(11,1,2,12)     =         0.069949	       4.007802
	 D(11,1,2,13)     =         2.092823	     119.909923
	 D(12,2,4,14)     =        -1.086049	     -62.226048
	 D(12,2,4,15)     =         1.012611	      58.018361
	 D(12,2,4,16)     =         3.105898	     177.954827
	 D(13,2,4,14)     =        -3.105062	    -177.906924
	 D(13,2,4,15)     =        -1.006401	     -57.662515
	 D(13,2,4,16)     =         1.086885	      62.273951
	 D(17,5,7,19)     =         0.003830	       0.219421
	 D(18,6,8,20)     =        -0.001947	      -0.111574
	 D(19,7,9,21)     =         0.002150	       0.123185
	 D(20,8,9,21)     =        -0.002603	      -0.149121

	Current energy   :      -350.0601625232

	Energy change for the previous step:
		Projected    :        -0.0057608368
		Actual       :        -0.0022472855

	Performing BFGS update.
	Previous computed or guess Hessian on step 1.
	Steps to be used in Hessian update: 1
	Taking RFO optimization step.
	Going to follow RFO solution 1.
	Using RFO vector 1.
	Norm of target step-size    0.03537
	Projected energy change by RFO approximation:        -0.0001924806

	Back-transformation to cartesian coordinates...
	Successfully converged to displaced geometry.

	Back-transformation to cartesian coordinates to adjust frozen coordinates...
	Successfully converged to displaced geometry.

	--- Internal Coordinate Step in ANG or DEG, aJ/ANG or AJ/DEG ---
	 ---------------------------------------------------------------------------
	   Coordinate                Previous        Force       Change         New 
	   ----------                --------       ------       ------       ------
	    1 R(1,2)          =      1.551715     0.015314     0.003243     1.554959
	    2 R(1,3)          =      1.510291     0.010997     0.001918     1.512209
	    3 R(1,10)         =      1.093908    -0.001209    -0.000258     1.093650
	    4 R(1,11)         =      1.093340    -0.003063    -0.000591     1.092749
	    5 R(2,4)          =      1.529534     0.011121     0.002143     1.531677
	    6 R(2,12)         =      1.094092    -0.004123    -0.000766     1.093326
	    7 R(2,13)         =      1.093016    -0.001890    -0.000395     1.092621
	    8 R(3,5)          =      1.395897     0.023417     0.002979     1.398876
	    9 R(3,6)          =      1.395902     0.023005     0.002926     1.398829
	   10 R(4,14)         =      1.092440     0.000991     0.000134     1.092574
	   11 R(4,15)         =      1.092015    -0.001656    -0.000323     1.091692
	   12 R(4,16)         =      1.092554     0.001905     0.000292     1.092846
	   13 R(5,7)          =      1.392116     0.009283     0.001031     1.393147
	   14 R(5,17)         =      1.082849     0.002587     0.000358     1.083208
	   15 R(6,8)          =      1.392333     0.010313     0.001175     1.393508
	   16 R(6,18)         =      1.082814     0.002599     0.000360     1.083175
	   17 R(7,9)          =      1.392014     0.014888     0.001750     1.393764
	   18 R(7,19)         =      1.081738     0.001813     0.000220     1.081959
	   19 R(8,9)          =      1.391694     0.014282     0.001670     1.393364
	   20 R(8,20)         =      1.081749     0.001735     0.000207     1.081956
	   21 R(9,21)         =      1.081572     0.000230    -0.000044     1.081528
	   22 B(1,2,4)        =    113.020890    -0.000026    -0.120245   112.900645
	   23 B(1,2,12)       =    109.728238     0.000006     0.088979   109.817217
	   24 B(1,2,13)       =    109.215756     0.000004    -0.094778   109.120978
	   25 B(1,3,5)        =    120.707350     0.000023     0.058847   120.766197
	   26 B(1,3,6)        =    120.661106     0.000045     0.118597   120.779703
	   27 B(2,1,3)        =    113.003968     0.000008     0.040004   113.043972
	   28 B(2,1,10)       =    109.524097    -0.000038    -0.392728   109.131369
	   29 B(2,1,11)       =    110.092338    -0.000026    -0.068300   110.024038
	   30 B(2,4,14)       =    110.971683     0.000010     0.022621   110.994304
	   31 B(2,4,15)       =    111.140363     0.000047     0.242450   111.382813
	   32 B(2,4,16)       =    110.616757     0.000021     0.069223   110.685980
	   33 B(3,1,10)       =    108.944561     0.000029     0.090421   109.034983
	   34 B(3,1,11)       =    108.857334     0.000026     0.350234   109.207569
	   35 B(3,5,7)        =    120.790102     0.000031     0.102882   120.892985
	   36 B(3,5,17)       =    119.489813    -0.000037    -0.153148   119.336665
	   37 B(3,6,8)        =    120.815089     0.000025     0.085646   120.900735
	   38 B(3,6,18)       =    119.463054    -0.000031    -0.129388   119.333666
	   39 B(4,2,12)       =    109.165781     0.000013     0.157219   109.323000
	   40 B(4,2,13)       =    109.382269     0.000005    -0.112114   109.270155
	   41 B(5,3,6)        =    118.586831    -0.000068    -0.177286   118.409544
	   42 B(5,7,9)        =    120.151616    -0.000002    -0.019326   120.132289
	   43 B(5,7,19)       =    119.815003    -0.000000     0.002574   119.817577
	   44 B(6,8,9)        =    120.123864     0.000001    -0.005760   120.118103
	   45 B(6,8,20)       =    119.853699    -0.000005    -0.016755   119.836945
	   46 B(7,5,17)       =    119.719937     0.000006     0.050109   119.770047
	   47 B(7,9,8)        =    119.531726     0.000012     0.014265   119.545991
	   48 B(7,9,21)       =    120.241628    -0.000006    -0.005758   120.235870
	   49 B(8,6,18)       =    119.721825     0.000005     0.043234   119.765059
	   50 B(8,9,21)       =    120.225927    -0.000006    -0.008293   120.217634
	   51 B(9,7,19)       =    120.032814     0.000003     0.017171   120.049985
	   52 B(9,8,20)       =    120.021945     0.000004     0.022795   120.044740
	   53 B(10,1,11)      =    106.183306     0.000002    -0.021073   106.162233
	   54 B(12,2,13)      =    106.092315    -0.000001     0.093055   106.185369
	   55 B(14,4,15)      =    108.034563    -0.000029    -0.090405   107.944158
[...]
	 R(1,3)           =         2.857660	       1.512209
	 R(1,10)          =         2.066698	       1.093650
	 R(1,11)          =         2.064996	       1.092749
	 R(2,4)           =         2.894450	       1.531677
	 R(2,12)          =         2.066086	       1.093326
	 R(2,13)          =         2.064755	       1.092621
	 R(3,5)           =         2.643493	       1.398876
	 R(3,6)           =         2.643403	       1.398829
	 R(4,14)          =         2.064666	       1.092574
	 R(4,15)          =         2.062999	       1.091692
	 R(4,16)          =         2.065179	       1.092846
	 R(5,7)           =         2.632666	       1.393147
	 R(5,17)          =         2.046966	       1.083208
	 R(6,8)           =         2.633349	       1.393508
	 R(6,18)          =         2.046904	       1.083175
	 R(7,9)           =         2.633833	       1.393764
	 R(7,19)          =         2.044606	       1.081959
	 R(8,9)           =         2.633076	       1.393364
	 R(8,20)          =         2.044601	       1.081956
	 R(9,21)          =         2.043791	       1.081528
	 B(1,2,4)         =         1.970488	     112.900645
	 B(1,2,12)        =         1.916672	     109.817217
	 B(1,2,13)        =         1.904520	     109.120978
	 B(1,3,5)         =         2.107768	     120.766197
	 B(1,3,6)         =         2.108003	     120.779703
	 B(2,1,3)         =         1.972990	     113.043972
	 B(2,1,10)        =         1.904702	     109.131369
	 B(2,1,11)        =         1.920282	     110.024038
	 B(2,4,14)        =         1.937216	     110.994304
	 B(2,4,15)        =         1.943997	     111.382813
	 B(2,4,16)        =         1.931835	     110.685980
	 B(3,1,10)        =         1.903019	     109.034983
	 B(3,1,11)        =         1.906032	     109.207569
	 B(3,5,7)         =         2.109981	     120.892985
	 B(3,5,17)        =         2.082818	     119.336665
	 B(3,6,8)         =         2.110116	     120.900735
	 B(3,6,18)        =         2.082765	     119.333666
	 B(4,2,12)        =         1.908046	     109.323000
	 B(4,2,13)        =         1.907124	     109.270155
	 B(5,3,6)         =         2.066636	     118.409544
	 B(5,7,9)         =         2.096704	     120.132289
	 B(5,7,19)        =         2.091211	     119.817577
	 B(6,8,9)         =         2.096456	     120.118103
	 B(6,8,20)        =         2.091549	     119.836945
	 B(7,5,17)        =         2.090382	     119.770047
	 B(7,9,8)         =         2.086471	     119.545991
	 B(7,9,21)        =         2.098512	     120.235870
	 B(8,6,18)        =         2.090295	     119.765059
	 B(8,9,21)        =         2.098194	     120.217634
	 B(9,7,19)        =         2.095267	     120.049985
	 B(9,8,20)        =         2.095176	     120.044740
	 B(10,1,11)       =         1.852880	     106.162233
	 B(12,2,13)       =         1.853284	     106.185369
	 B(14,4,15)       =         1.883981	     107.944158
	 B(14,4,16)       =         1.881499	     107.801925
	 B(15,4,16)       =         1.882968	     107.886137
	*D(1,2,4,14)      =         1.050406	      60.183859
	 D(1,2,4,15)      =        -3.133008	    -179.508153
	 D(1,2,4,16)      =        -1.038146	     -59.481400
	 D(1,3,5,7)       =        -3.097036	    -177.447089
	 D(1,3,5,17)      =         0.048064	       2.753893
	 D(1,3,6,8)       =         3.096470	     177.414659
	 D(1,3,6,18)      =        -0.049799	      -2.853299
	*D(2,1,3,5)       =         1.510462	      86.543122
	*D(2,1,3,6)       =        -1.588084	     -90.990525
	*D(3,1,2,4)       =         2.093727	     119.961729
	 D(3,1,2,12)      =        -2.055285	    -117.759133
	 D(3,1,2,13)      =        -0.030528	      -1.749127
	 D(3,5,7,9)       =         0.000342	       0.019592
	 D(3,5,7,19)      =        -3.138802	    -179.840095
	 D(3,6,8,9)       =         0.000780	       0.044673
	 D(3,6,8,20)      =         3.139448	     179.877105
	 D(4,2,1,10)      =        -0.027094	      -1.552392
	 D(4,2,1,11)      =        -2.053502	    -117.656994
	 D(5,3,1,10)      =        -2.650953	    -151.888431
	 D(5,3,1,11)      =        -0.633433	     -36.293009
	 D(5,3,6,8)       =        -0.003071	      -0.175965
	 D(5,3,6,18)      =         3.133845	     179.556077
	 D(5,7,9,8)       =        -0.002681	      -0.153612
	 D(5,7,9,21)      =        -3.139774	    -179.895806
	 D(6,3,1,10)      =         0.533685	      30.577922
	 D(6,3,1,11)      =         2.551206	     146.173344
	 D(6,3,5,7)       =         0.002511	       0.143873
	 D(6,3,5,17)      =        -3.135574	    -179.655145
	 D(6,8,9,7)       =         0.002126	       0.121832
	 D(6,8,9,21)      =         3.139220	     179.864073
	 D(7,9,8,20)      =        -3.136536	    -179.710250
	 D(8,9,7,19)      =         3.136457	     179.705747
	 D(9,7,5,17)      =         3.138412	     179.817746
	 D(9,8,6,18)      =        -3.136116	    -179.686223
	 D(10,1,2,12)     =         2.107079	     120.726746
	 D(10,1,2,13)     =        -2.151350	    -123.263248
	 D(11,1,2,12)     =         0.080672	       4.622144
	 D(11,1,2,13)     =         2.105428	     120.632150
	 D(12,2,4,14)     =        -1.088596	     -62.371940
	 D(12,2,4,15)     =         1.011175	      57.936047
	 D(12,2,4,16)     =         3.106037	     177.962800
	 D(13,2,4,14)     =        -3.109993	    -178.189479
	 D(13,2,4,15)     =        -1.010223	     -57.881492
	 D(13,2,4,16)     =         1.084639	      62.145262
	 D(17,5,7,19)     =        -0.000732	      -0.041941
	 D(18,6,8,20)     =         0.002552	       0.146209
	 D(19,7,9,21)     =        -0.000636	      -0.036446
	 D(20,8,9,21)     =         0.000558	       0.031991

	Current energy   :      -350.0602192163

	Energy change for the previous step:
		Projected    :        -0.0001924806
		Actual       :        -0.0000566930

	Performing BFGS update.
	Previous computed or guess Hessian on step 1.
	Steps to be used in Hessian update: 2 1
	Taking RFO optimization step.
	Going to follow RFO solution 1.
	Using RFO vector 1.
	Norm of target step-size    0.00841
	Projected energy change by RFO approximation:         0.0000051360

	Back-transformation to cartesian coordinates...
	Successfully converged to displaced geometry.

	Back-transformation to cartesian coordinates to adjust frozen coordinates...
	Successfully converged to displaced geometry.

	--- Internal Coordinate Step in ANG or DEG, aJ/ANG or AJ/DEG ---
	 ---------------------------------------------------------------------------
	   Coordinate                Previous        Force       Change         New 
	   ----------                --------       ------       ------       ------
	    1 R(1,2)          =      1.554959     0.003955     0.001110     1.556069
	    2 R(1,3)          =      1.512209    -0.004445    -0.001057     1.511152
	    3 R(1,10)         =      1.093650     0.000282     0.000025     1.093674
	    4 R(1,11)         =      1.092749    -0.000814    -0.000214     1.092535
	    5 R(2,4)          =      1.531677    -0.000576    -0.000094     1.531583
	    6 R(2,12)         =      1.093326    -0.001231    -0.000302     1.093024
	    7 R(2,13)         =      1.092621     0.000106    -0.000024     1.092598
	    8 R(3,5)          =      1.398876     0.001498     0.000286     1.399162
	    9 R(3,6)          =      1.398829     0.000579     0.000139     1.398967
	   10 R(4,14)         =      1.092574     0.001034     0.000196     1.092771
	   11 R(4,15)         =      1.091692    -0.000080    -0.000046     1.091645
	   12 R(4,16)         =      1.092846     0.000601     0.000119     1.092965
	   13 R(5,7)          =      1.393147    -0.001109    -0.000196     1.392950
	   14 R(5,17)         =      1.083208     0.000785     0.000139     1.083347
	   15 R(6,8)          =      1.393508    -0.000673    -0.000125     1.393383
	   16 R(6,18)         =      1.083175     0.000805     0.000143     1.083318
	   17 R(7,9)          =      1.393764     0.000816     0.000138     1.393902
	   18 R(7,19)         =      1.081959     0.000278     0.000032     1.081990
	   19 R(8,9)          =      1.393364     0.000408     0.000069     1.393433
	   20 R(8,20)         =      1.081956     0.000282     0.000032     1.081988
	   21 R(9,21)         =      1.081528     0.000388     0.000040     1.081568
	   22 B(1,2,4)        =    112.900645    -0.000017    -0.084374   112.816272
	   23 B(1,2,12)       =    109.817217     0.000000    -0.023064   109.794153
	   24 B(1,2,13)       =    109.120978     0.000005     0.010227   109.131205
	   25 B(1,3,5)        =    120.766197     0.000000     0.003344   120.769541
	   26 B(1,3,6)        =    120.779703     0.000002     0.012918   120.792621
	   27 B(2,1,3)        =    113.043972    -0.000008    -0.035912   113.008061
	   28 B(2,1,10)       =    109.131369     0.000001    -0.015519   109.115851
	   29 B(2,1,11)       =    110.024038    -0.000003    -0.057043   109.966995
	   30 B(2,4,14)       =    110.994304     0.000005     0.025640   111.019944
	   31 B(2,4,15)       =    111.382813     0.000002     0.023809   111.406622
	   32 B(2,4,16)       =    110.685980    -0.000005    -0.029529   110.656451
	   33 B(3,1,10)       =    109.034983     0.000005     0.036644   109.071627
	   34 B(3,1,11)       =    109.207569     0.000006     0.035735   109.243304
	   35 B(3,5,7)        =    120.892985     0.000001     0.011348   120.904332
	   36 B(3,5,17)       =    119.336665    -0.000007    -0.046904   119.289761
	   37 B(3,6,8)        =    120.900735    -0.000000     0.004133   120.904868
	   38 B(3,6,18)       =    119.333666    -0.000005    -0.033297   119.300368
	   39 B(4,2,12)       =    109.323000     0.000009     0.047128   109.370128
	   40 B(4,2,13)       =    109.270155     0.000004     0.003832   109.273987
	   41 B(5,3,6)        =    118.409544    -0.000003    -0.016248   118.393296
	   42 B(5,7,9)        =    120.132289    -0.000001    -0.002905   120.129385
	   43 B(5,7,19)       =    119.817577    -0.000000    -0.001077   119.816500
	   44 B(6,8,9)        =    120.118103     0.000002     0.006058   120.124161
	   45 B(6,8,20)       =    119.836945    -0.000003    -0.013471   119.823473
	   46 B(7,5,17)       =    119.770047     0.000006     0.035834   119.805880
	   47 B(7,9,8)        =    119.545991    -0.000000    -0.002496   119.543496
	   48 B(7,9,21)       =    120.235870     0.000000     0.001493   120.237362
	   49 B(8,6,18)       =    119.765059     0.000005     0.029580   119.794639
	   50 B(8,9,21)       =    120.217634     0.000000     0.001278   120.218912
	   51 B(9,7,19)       =    120.049985     0.000001     0.003780   120.053764
	   52 B(9,8,20)       =    120.044740     0.000001     0.007245   120.051985
	   53 B(10,1,11)      =    106.162233     0.000001     0.041689   106.203922
	   54 B(12,2,13)      =    106.185369    -0.000001     0.054743   106.240113
	   55 B(14,4,15)      =    107.944158    -0.000003    -0.010229   107.933929
	   56 B(14,4,16)      =    107.801925     0.000001    -0.008518   107.793406
	   57 B(15,4,16)      =    107.886137     0.000001    -0.002454   107.883683
	   58 *D(1,2,4,14)    =     60.183859     0.000000    -0.000000    60.183859
	   59 D(1,2,4,15)     =   -179.508153    -0.000000     0.020471  -179.487682
	   60 D(1,2,4,16)     =    -59.481400    -0.000000     0.013340   -59.468061
	   61 D(1,3,5,7)      =   -177.447089     0.000000     0.084740  -177.362349
	   62 D(1,3,5,17)     =      2.753893    -0.000000    -0.057371     2.696522
	   63 D(1,3,6,8)      =    177.414659    -0.000000    -0.080292   177.334366
	   64 D(1,3,6,18)     =     -2.853299     0.000000     0.059258    -2.794041
	   65 *D(2,1,3,5)     =     86.543122    -0.000000     0.000000    86.543122
	   66 *D(2,1,3,6)     =    -90.990525    -0.000000    -0.000000   -90.990525
	   67 *D(3,1,2,4)     =    119.961729     0.000000    -0.000000   119.961729
	   68 D(3,1,2,12)     =   -117.759133    -0.000000    -0.014482  -117.773616
	   69 D(3,1,2,13)     =     -1.749127     0.000001     0.044206    -1.704922
	   70 D(3,5,7,9)      =      0.019592    -0.000001    -0.111717    -0.092124
	   71 D(3,5,7,19)     =   -179.840095    -0.000000    -0.036441  -179.876536
	   72 D(3,6,8,9)      =      0.044673     0.000001     0.102362     0.147035
	   73 D(3,6,8,20)     =    179.877105     0.000000     0.045464   179.922570
	   74 D(4,2,1,10)     =     -1.552392    -0.000000    -0.011723    -1.564115
	   75 D(4,2,1,11)     =   -117.656994    -0.000000    -0.020816  -117.677810
	   76 D(5,3,1,10)     =   -151.888431    -0.000000    -0.017660  -151.906091
	   77 D(5,3,1,11)     =    -36.293009     0.000001     0.072021   -36.220988
	   78 D(5,3,6,8)      =     -0.175965    -0.000000    -0.080746    -0.256711
	   79 D(5,3,6,18)     =    179.556077     0.000000     0.058805   179.614881
	   80 D(5,7,9,8)      =     -0.153612     0.000001     0.130388    -0.023224
	   81 D(5,7,9,21)     =   -179.895806     0.000000     0.046418  -179.849388
	   82 D(6,3,1,10)     =     30.577922    -0.000000    -0.017660    30.560262
	   83 D(6,3,1,11)     =    146.173344     0.000001     0.072021   146.245365
	   84 D(6,3,5,7)      =      0.143873     0.000000     0.085433     0.229307
	   85 D(6,3,5,17)     =   -179.655145    -0.000000    -0.056678  -179.711822
	   86 D(6,8,9,7)      =      0.121832    -0.000001    -0.125737    -0.003905
	   87 D(6,8,9,21)     =    179.864073    -0.000000    -0.041782   179.822291
	   88 D(7,9,8,20)     =   -179.710250    -0.000000    -0.068674  -179.778924
	   89 D(8,9,7,19)     =    179.705747     0.000000     0.054926   179.760673
	   90 D(9,7,5,17)     =    179.817746     0.000000     0.030957   179.848703
	   91 D(9,8,6,18)     =   -179.686223    -0.000000    -0.037705  -179.723928
	   92 D(10,1,2,12)    =    120.726746    -0.000000    -0.026205   120.700541
	   93 D(10,1,2,13)    =   -123.263248     0.000000     0.032483  -123.230765
	   94 D(11,1,2,12)    =      4.622144    -0.000000    -0.035298     4.586846
	   95 D(11,1,2,13)    =    120.632150     0.000000     0.023390   120.655540
	   96 D(12,2,4,14)    =    -62.371940     0.000001     0.053307   -62.318633
	   97 D(12,2,4,15)    =     57.936047     0.000001     0.073778    58.009826
	   98 D(12,2,4,16)    =    177.962800     0.000001     0.066647   178.029447
	   99 D(13,2,4,14)    =   -178.189479    -0.000000    -0.040762  -178.230241
	  100 D(13,2,4,15)    =    -57.881492    -0.000000    -0.020291   -57.901783
	  101 D(13,2,4,16)    =     62.145262    -0.000001    -0.027422    62.117839
	  102 D(17,5,7,19)    =     -0.041941     0.000001     0.106232     0.064291
	  103 D(18,6,8,20)    =      0.146209    -0.000001    -0.094603     0.051606
	  104 D(19,7,9,21)    =     -0.036446    -0.000000    -0.029044    -0.065490
	  105 D(20,8,9,21)    =      0.031991     0.000000     0.015281     0.047272
	 ---------------------------------------------------------------------------
	Successfully symmetrized geometry.

  ==> Convergence Check <==

  Measures of convergence in internal coordinates in au.
  Criteria marked as inactive (o), active & met (*), and active & unmet ( ).
  ---------------------------------------------------------------------------------------------
   Step     Total Energy     Delta E     MAX Force     RMS Force      MAX Disp      RMS Disp   
  ---------------------------------------------------------------------------------------------
    Convergence Criteria             o    2.50e-03 *    1.70e-03 *    1.00e-02 *    6.70e-03 *
  ---------------------------------------------------------------------------------------------
      3    -350.06021922   -5.67e-05 o    5.39e-04 *    9.01e-05 *    2.28e-03 *    8.21e-04 *  ~
  ---------------------------------------------------------------------------------------------


  **** Optimization is complete! (in 3 steps) ****

  ==> Optimization Summary <==

  Measures of convergence in internal coordinates in au.
  --------------------------------------------------------------------------------------------------------------- ~
   Step         Total Energy             Delta E       MAX Force       RMS Force        MAX Disp        RMS Disp  ~
  --------------------------------------------------------------------------------------------------------------- ~
      1    -350.057915237750   -350.057915237750      0.01587056      0.00397258      0.05469425      0.01708857  ~
      2    -350.060162523213     -0.002247285463      0.00284231      0.00059595      0.01260523      0.00345222  ~
      3    -350.060219216256     -0.000056693043      0.00053947      0.00009009      0.00227570      0.00082061  ~
  --------------------------------------------------------------------------------------------------------------- ~

	Writing optimization data to binary file.
	Final energy is   -350.0602192162564
	Final (previous) structure:
	Cartesian Geometry (in Angstrom)
	    C    -1.3305042244  -0.3779759333   0.9655861982
	    C    -2.4460163997   0.2592212786   0.0895105342
	    C     0.0615271766  -0.1080064375   0.4400956321
	    C    -3.4190202511  -0.7761817967  -0.4825376205
	    C     0.7466342346   1.0587856822   0.7951718458
	    C     0.6739308391  -0.9938040729  -0.4526788423
	    C     2.0074346815   1.3355334158   0.2711001806
	    C     1.9346240055  -0.7208888870  -0.9799691511
	    C     2.6052090859   0.4463323407  -0.6202842352
	    H    -1.4888618808  -1.4588666290   1.0172361592
	    H    -1.4049216254  -0.0102646797   1.9919145855
	    H    -3.0036034128   0.9942393241   0.6762014636
	    H    -1.9840046094   0.8122366022  -0.7317938397
	    H    -3.9217517644  -1.3248001810   0.3174609425
	    H    -4.1856597325  -0.3036347947  -1.0995906379
	    H    -2.8887770452  -1.5023909995  -1.1036447105
	    H     0.2887947331   1.7525038171   1.4897778449
	    H     0.1599461220  -1.9053570962  -0.7322471635
	    H     2.5228828879   2.2419945593   0.5596764093
	    H     2.3931601276  -1.4190734049  -1.6676557217
	    H     3.5846544539   0.6586879289  -1.0268478878
	Saving final (previous) structure.
			--------------------------
			 OPTKING Finished Execution 
			--------------------------

    Final optimized geometry and variables:
    Molecular point group: c1
    Full point group: C1

    Geometry (in Angstrom), charge = 0, multiplicity = 1:

    C           -1.330504229653    -0.377975934833     0.965586201975
    C           -2.446016409322     0.259221279643     0.089510534525
    C            0.061527176805    -0.108006437929     0.440095633821
    C           -3.419020264507    -0.776181799781    -0.482537622413
    C            0.746634237491     1.058785686331     0.795171848969
    C            0.673930841702    -0.993804076779    -0.452678844063
    C            2.007434689394     1.335533421037     0.271100181675
    C            1.934624013119    -0.720888889833    -0.979969154919
    C            2.605209096171     0.446332342465    -0.620284237642
    H           -1.488861886619    -1.458866634696     1.017236163160
    H           -1.404921630950    -0.010264679751     1.991914593282
    H           -3.003603424565     0.994239328006     0.676201466300
    H           -1.984004617210     0.812236605385    -0.731793842561
    H           -3.921751779802    -1.324800186193     0.317460943709
    H           -4.185659748921    -0.303634795905    -1.099590642234
    H           -2.888777056582    -1.502391005417    -1.103644714870
    H            0.288794734216     1.752503824015     1.489777850752
    H            0.159946122596    -1.905357103677    -0.732247166364
    H            2.522882897844     2.241994568077     0.559676411480
    H            2.393160137009    -1.419073410452    -1.667655728212
    H            3.584654468037     0.658687931470    -1.026847891834

	Removing binary optimization data file.
	Cleaning optimization helper files.

    Psi4 stopped on: Wednesday, 02 June 2021 12:24AM
    Psi4 wall time for execution: 0:00:41.35

*** Psi4 exiting successfully. Buy a developer a beer!
