
    -----------------------------------------------------------------------
          Psi4: An Open-Source Ab Initio Electronic Structure Package
                               Psi4 1.3.2 release

                         Git: Rev {HEAD} ecbda83 


    R. M. Parrish, L. A. Burns, D. G. A. Smith, A. C. Simmonett,
    A. E. DePrince III, E. G. Hohenstein, U. Bozkaya, A. Yu. Sokolov,
    R. Di Remigio, R. M. Richard, J. F. Gonthier, A. M. James,
    H. R. McAlexander, A. Kumar, M. Saitow, X. Wang, B. P. Pritchard,
    P. Verma, H. F. Schaefer III, K. Patkowski, R. A. King, E. F. Valeev,
    F. A. Evangelista, J. M. Turney, T. D. Crawford, and C. D. Sherrill,
    J. Chem. Theory Comput. 13(7) pp 3185--3197 (2017).
    (doi: 10.1021/acs.jctc.7b00174)


                         Additional Contributions by
    P. Kraus, H. Kruse, M. H. Lechner, M. C. Schieber, R. A. Shaw,
    A. Alenaizan, R. Galvelis, Z. L. Glick, S. Lehtola, and J. P. Misiewicz

    -----------------------------------------------------------------------


    Psi4 started on: Wednesday, 02 June 2021 12:56AM

    Process ID: 80664
    Host:       daniele-Precision-5750
    PSIDATADIR: /home/daniele/anaconda3/envs/poltype/share/psi4
    Memory:     500.0 MiB
    Threads:    1
    
  ==> Input File <==

--------------------------------------------------------------------------
molecule { 
0 1
 C   -1.427483   -0.117078    0.617297
 C   -2.330645   -0.677242   -0.485059
 C    0.040069    0.069508    0.268874
 C   -3.783278   -0.817849   -0.023436
 C    0.890175    0.652729    1.217098
 C    0.577976   -0.267360   -0.976047
 C    2.235318    0.873119    0.941903
 C    1.926945   -0.048283   -1.256314
 C    2.761082    0.520702   -0.300029
 H   -1.498076   -0.774774    1.491181
 H   -1.830311    0.849387    0.939431
 H   -2.288109   -0.022487   -1.360392
 H   -1.957020   -1.654839   -0.803549
 H   -4.195789    0.150197    0.270273
 H   -4.412635   -1.222964   -0.817570
 H   -3.856926   -1.486778    0.837118
 H    0.488600    0.934193    2.183194
 H   -0.048672   -0.706787   -1.738468
 H    2.871451    1.322719    1.692583
 H    2.322307   -0.320532   -2.225746
 H    3.806195    0.691239   -0.519103
}
memory 700MB
set_num_threads(8)
psi4_io.set_default_path("/home/daniele/PSI4_sctatch/Psi4-propbenzene")
set freeze_core True
E, wfn = energy('wb97x-d/6-311+G*',return_wfn=True)
oeprop(wfn,"WIBERG_LOWDIN_INDICES")
clean()
--------------------------------------------------------------------------

  Memory set to 667.572 MiB by Python driver.
  Threads set to 8 by Python driver.

*** tstart() called on daniele-Precision-5750
*** at Wed Jun  2 00:56:49 2021

   => Loading Basis Set <=

    Name: 6-311+G*
    Role: ORBITAL
    Keyword: BASIS
    atoms 1-9   entry C          line   130 file /home/daniele/anaconda3/envs/poltype/share/psi4/basis/6-311pgs.gbs 
    atoms 10-21 entry H          line    47 file /home/daniele/anaconda3/envs/poltype/share/psi4/basis/6-311pgs.gbs 


         ---------------------------------------------------------
                                   SCF
               by Justin Turney, Rob Parrish, Andy Simmonett
                          and Daniel G. A. Smith
                              RKS Reference
                        8 Threads,    667 MiB Core
         ---------------------------------------------------------

  ==> Geometry <==

    Molecular point group: c1
    Full point group: C1

    Geometry (in Angstrom), charge = 0, multiplicity = 1:

       Center              X                  Y                   Z               Mass       
    ------------   -----------------  -----------------  -----------------  -----------------
         C           -1.427482880100    -0.117077889830     0.617297028746    12.000000000000
         C           -2.330644880100    -0.677241889830    -0.485058971254    12.000000000000
         C            0.040069119900     0.069508110170     0.268874028746    12.000000000000
         C           -3.783277880100    -0.817848889830    -0.023435971254    12.000000000000
         C            0.890175119900     0.652729110170     1.217098028746    12.000000000000
         C            0.577976119900    -0.267359889830    -0.976046971254    12.000000000000
         C            2.235318119900     0.873119110170     0.941903028746    12.000000000000
         C            1.926945119900    -0.048282889830    -1.256313971254    12.000000000000
         C            2.761082119900     0.520702110170    -0.300028971254    12.000000000000
         H           -1.498075880100    -0.774773889830     1.491181028746     1.007825032230
         H           -1.830310880100     0.849387110170     0.939431028746     1.007825032230
         H           -2.288108880100    -0.022486889830    -1.360391971254     1.007825032230
         H           -1.957019880100    -1.654838889830    -0.803548971254     1.007825032230
         H           -4.195788880100     0.150197110170     0.270273028746     1.007825032230
         H           -4.412634880100    -1.222963889830    -0.817569971254     1.007825032230
         H           -3.856925880100    -1.486777889830     0.837118028746     1.007825032230
         H            0.488600119900     0.934193110170     2.183194028746     1.007825032230
         H           -0.048671880100    -0.706786889830    -1.738467971254     1.007825032230
         H            2.871451119900     1.322719110170     1.692583028746     1.007825032230
         H            2.322307119900    -0.320531889830    -2.225745971254     1.007825032230
         H            3.806195119900     0.691239110170    -0.519102971254     1.007825032230

  Running in c1 symmetry.

  Rotational constants: A =      0.15654  B =      0.02816  C =      0.02419 [cm^-1]
  Rotational constants: A =   4692.95847  B =    844.16130  C =    725.18246 [MHz]
  Nuclear repulsion =  410.369739384760805

  Charge       = 0
  Multiplicity = 1
  Electrons    = 66
  Nalpha       = 33
  Nbeta        = 33

  ==> Algorithm <==

  SCF Algorithm Type is DF.
  DIIS enabled.
  MOM disabled.
  Fractional occupation disabled.
  Guess Type is SAD.
  Energy threshold   = 1.00e-06
  Density threshold  = 1.00e-06
  Integral threshold = 0.00e+00

  ==> Primary Basis <==

  Basis Set: 6-311+G*
    Blend: 6-311+G*
    Number of shells: 126
    Number of basis function: 234
    Number of Cartesian functions: 243
    Spherical Harmonics?: true
    Max angular momentum: 2

  ==> DFT Potential <==

   => Composite Functional: WB97X-D <= 

    wB97X-D Hyb-GGA Exchange-Correlation Functional

    J.-D. Chai and M. Head-Gordon, Phys. Chem. Chem. Phys. 10, 6615 (2008)

    Deriv               =              1
    GGA                 =           TRUE
    Meta                =          FALSE

    Exchange Hybrid     =           TRUE
    MP2 Hybrid          =          FALSE

   => Exchange-Correlation Functionals <=

    1.0000   wB97D range-separated functional

   => Exact (HF) Exchange <=

    0.7780            HF,LR [omega = 0.2000]
    0.2220               HF 

   => Molecular Quadrature <=

    Radial Scheme          =       TREUTLER
    Pruning Scheme         =           FLAT
    Nuclear Scheme         =       TREUTLER

    BS radius alpha        =              1
    Pruning alpha          =              1
    Radial Points          =             75
    Spherical Points       =            302
    Total Points           =         475650
    Total Blocks           =           3518
    Max Points             =            256
    Max Functions          =            222

   => WB97X-D: Empirical Dispersion <=

    Chai and Head-Gordon Dispersion Correction
    Chai, J.-D.; Head-Gordon, M. (2010), J. Chem. Phys., 132: 6615-6620

        s6 =       1.000000

   => Loading Basis Set <=

    Name: (6-311+G* AUX)
    Role: JKFIT
    Keyword: DF_BASIS_SCF
    atoms 1-9   entry C          line   200 file /home/daniele/anaconda3/envs/poltype/share/psi4/basis/heavy-aug-cc-pvtz-jkfit.gbs 
    atoms 10-21 entry H          line   116 file /home/daniele/anaconda3/envs/poltype/share/psi4/basis/heavy-aug-cc-pvtz-jkfit.gbs 

  ==> Pre-Iterations <==

   -------------------------------------------------------
    Irrep   Nso     Nmo     Nalpha   Nbeta   Ndocc  Nsocc
   -------------------------------------------------------
     A        234     234       0       0       0       0
   -------------------------------------------------------
    Total     234     234      33      33      33       0
   -------------------------------------------------------

  ==> Integral Setup <==

  ==> DiskDFJK: Density-Fitted J/K Matrices <==

    J tasked:                  Yes
    K tasked:                  Yes
    wK tasked:                 Yes
    Omega:               2.000E-01
    OpenMP threads:              8
    Integrals threads:           8
    Memory [MiB]:              297
    Algorithm:                Disk
    Integral Cache:           NONE
    Schwarz Cutoff:          1E-12
    Fitting Condition:       1E-10

   => Auxiliary Basis Set <=

  Basis Set: (6-311+G* AUX)
    Blend: HEAVY-AUG-CC-PVTZ-JKFIT
    Number of shells: 390
    Number of basis function: 1296
    Number of Cartesian functions: 1599
    Spherical Harmonics?: true
    Max angular momentum: 4

  Cached 10.0% of DFT collocation blocks in 0.219 [GiB].

  Minimum eigenvalue in the overlap matrix is 1.5244658420E-06.
  Using Symmetric Orthogonalization.

  SCF Guess: Superposition of Atomic Densities via on-the-fly atomic UHF.

  ==> Iterations <==

                           Total Energy        Delta E     RMS |[F,P]|

   @DF-RKS iter SAD:  -349.48987557842730   -3.49490e+02   0.00000e+00 
   @DF-RKS iter   1:  -349.62572135513761   -1.35846e-01   4.15345e-03 DIIS
   @DF-RKS iter   2:  -349.86971211670811   -2.43991e-01   3.13600e-03 DIIS
   @DF-RKS iter   3:  -350.14224780662852   -2.72536e-01   2.01910e-04 DIIS
   @DF-RKS iter   4:  -350.14342233228848   -1.17453e-03   1.04188e-04 DIIS
   @DF-RKS iter   5:  -350.14370237283833   -2.80041e-04   4.25634e-05 DIIS
   @DF-RKS iter   6:  -350.14375268936442   -5.03165e-05   8.32992e-06 DIIS
   @DF-RKS iter   7:  -350.14375475362249   -2.06426e-06   2.80490e-06 DIIS
   @DF-RKS iter   8:  -350.14375502008011   -2.66458e-07   5.71871e-07 DIIS
  Energy and wave function converged.


  ==> Post-Iterations <==

    Orbital Energies [Eh]
    ---------------------

    Doubly Occupied:                                                      

       1A    -10.295682     2A    -10.286036     3A    -10.285656  
       4A    -10.284863     5A    -10.283450     6A    -10.283092  
       7A    -10.283066     8A    -10.281180     9A    -10.271489  
      10A     -0.960924    11A     -0.900033    12A     -0.849173  
      13A     -0.844030    14A     -0.776978    15A     -0.712152  
      16A     -0.690380    17A     -0.665252    18A     -0.606613  
      19A     -0.560121    20A     -0.546373    21A     -0.540589  
      22A     -0.518728    23A     -0.505592    24A     -0.487961  
      25A     -0.483759    26A     -0.450464    27A     -0.445278  
      28A     -0.435253    29A     -0.418141    30A     -0.413754  
      31A     -0.407386    32A     -0.327974    33A     -0.317694  

    Virtual:                                                              

      34A      0.055836    35A      0.061305    36A      0.063933  
      37A      0.072044    38A      0.075366    39A      0.090198  
      40A      0.092965    41A      0.095685    42A      0.103648  
      43A      0.115763    44A      0.118245    45A      0.122469  
      46A      0.130464    47A      0.132132    48A      0.148504  
      49A      0.150441    50A      0.155585    51A      0.164519  
      52A      0.177156    53A      0.183479    54A      0.189547  
      55A      0.194768    56A      0.203405    57A      0.212054  
      58A      0.212976    59A      0.218090    60A      0.221381  
      61A      0.224279    62A      0.235377    63A      0.239973  
      64A      0.257258    65A      0.258323    66A      0.259930  
      67A      0.262519    68A      0.267002    69A      0.267899  
      70A      0.274385    71A      0.281908    72A      0.287728  
      73A      0.290636    74A      0.295656    75A      0.301078  
      76A      0.308395    77A      0.313434    78A      0.319476  
      79A      0.321962    80A      0.333596    81A      0.335965  
      82A      0.340995    83A      0.347630    84A      0.357143  
      85A      0.368395    86A      0.385881    87A      0.393611  
      88A      0.406688    89A      0.431677    90A      0.441258  
      91A      0.463184    92A      0.483398    93A      0.511154  
      94A      0.525836    95A      0.549412    96A      0.575103  
      97A      0.601076    98A      0.604867    99A      0.614206  
     100A      0.617202   101A      0.632040   102A      0.634981  
     103A      0.637693   104A      0.646241   105A      0.661215  
     106A      0.686063   107A      0.694681   108A      0.700953  
     109A      0.708324   110A      0.720226   111A      0.728975  
     112A      0.732910   113A      0.743510   114A      0.753146  
     115A      0.760055   116A      0.769942   117A      0.772452  
     118A      0.781749   119A      0.785041   120A      0.795817  
     121A      0.821299   122A      0.830788   123A      0.842748  
     124A      0.847501   125A      0.872088   126A      0.889179  
     127A      0.914693   128A      0.923495   129A      0.933738  
     130A      0.948677   131A      0.963440   132A      0.987084  
     133A      0.991114   134A      1.019320   135A      1.026130  
     136A      1.088776   137A      1.100497   138A      1.119491  
     139A      1.124396   140A      1.131076   141A      1.172782  
     142A      1.203296   143A      1.276664   144A      1.292434  
     145A      1.314316   146A      1.321832   147A      1.367549  
     148A      1.403092   149A      1.469703   150A      1.494444  
     151A      1.567926   152A      1.577334   153A      1.610195  
     154A      1.628034   155A      1.638453   156A      1.645487  
     157A      1.663913   158A      1.669030   159A      1.685984  
     160A      1.763506   161A      1.783943   162A      1.807157  
     163A      1.821440   164A      1.859306   165A      1.865444  
     166A      1.900144   167A      1.904847   168A      1.930828  
     169A      1.947606   170A      1.958142   171A      2.023643  
     172A      2.027883   173A      2.049169   174A      2.094718  
     175A      2.099288   176A      2.153782   177A      2.167140  
     178A      2.199768   179A      2.276613   180A      2.372875  
     181A      2.383196   182A      2.417996   183A      2.424550  
     184A      2.449977   185A      2.494262   186A      2.515588  
     187A      2.588864   188A      2.592404   189A      2.619230  
     190A      2.631456   191A      2.651065   192A      2.666333  
     193A      2.729472   194A      2.764921   195A      2.770563  
     196A      2.825811   197A      2.881117   198A      2.884974  
     199A      2.903748   200A      2.989984   201A      3.001484  
     202A      3.010823   203A      3.109552   204A      3.177948  
     205A      3.181855   206A      3.218426   207A      3.248926  
     208A      3.287753   209A      3.292965   210A      3.336156  
     211A      3.346606   212A      3.414176   213A      3.418536  
     214A      3.429167   215A      3.442649   216A      3.549591  
     217A      3.659635   218A      3.737999   219A      3.766642  
     220A      3.833793   221A      3.998089   222A      4.088606  
     223A      4.135340   224A      4.392969   225A      4.899750  
     226A     23.431674   227A     23.658576   228A     23.814123  
     229A     23.889063   230A     23.982284   231A     24.008724  
     232A     24.173483   233A     24.187000   234A     24.287851  

    Final Occupation by Irrep:
              A 
    DOCC [    33 ]

  @DF-RKS Final Energy:  -350.14375502008011

   => Energetics <=

    Nuclear Repulsion Energy =            410.3697393847608055
    One-Electron Energy =               -1283.5347321871313397
    Two-Electron Energy =                 559.4398063311500664
    DFT Exchange-Correlation Energy =     -36.4069231076619815
    Empirical Dispersion Energy =          -0.0116454411976101
    VV10 Nonlocal Energy =                  0.0000000000000000
    Total Energy =                       -350.1437550200801070

Computation Completed


Properties will be evaluated at   0.000000,   0.000000,   0.000000 [a0]

Properties computed using the SCF density matrix

  Nuclear Dipole Moment: [e a0]
     X:    -9.9362      Y:    -2.1013      Z:    -0.0479

  Electronic Dipole Moment: [e a0]
     X:     9.7427      Y:     2.0771      Z:     0.0666

  Dipole Moment: [e a0]
     X:    -0.1935      Y:    -0.0241      Z:     0.0188     Total:     0.1959

  Dipole Moment: [D]
     X:    -0.4919      Y:    -0.0613      Z:     0.0477     Total:     0.4980


*** tstop() called on daniele-Precision-5750 at Wed Jun  2 00:57:10 2021
Module time:
	user time   =     152.58 seconds =       2.54 minutes
	system time =       4.83 seconds =       0.08 minutes
	total time  =         21 seconds =       0.35 minutes
Total time:
	user time   =     152.58 seconds =       2.54 minutes
	system time =       4.83 seconds =       0.08 minutes
	total time  =         21 seconds =       0.35 minutes


Properties will be evaluated at   0.000000,   0.000000,   0.000000 [a0]
OEProp: No title given, name of density matrix used for the following properties is 'SCF density'


  Wiberg Bond Indices using Orthogonal Lowdin Orbitals:

  Irrep: 1 Size: 21 x 21

                 1                   2                   3                   4                   5

    1     0.00000000000000     1.13924570016277     1.08023856041992     0.11451188457157     0.12899133641327
    2     1.13924570016277     0.00000000000000     0.09480369298409     1.20128477452668     0.01671781227036
    3     1.08023856041992     0.09480369298409     0.00000000000000     0.01786342613535     1.43419589133477
    4     0.11451188457157     1.20128477452668     0.01786342613535     0.00000000000000     0.00271556128279
    5     0.12899133641327     0.01671781227036     1.43419589133477     0.00271556128279     0.00000000000000
    6     0.11078774081046     0.05720593439329     1.45159549141414     0.00636075271187     0.13352588462871
    7     0.01841526510828     0.00312172157494     0.13391548564881     0.00061919556192     1.53937967486640
    8     0.01649731517489     0.00589752081253     0.13348026375626     0.00069692984240     0.14929217563457
    9     0.00879157177290     0.00193424862949     0.14062881229185     0.00037906846749     0.13819562038727
   10     0.84079807529759     0.03647135240054     0.04206081235835     0.01302133185165     0.01640598046874
   11     0.84102847310642     0.03634552852310     0.04198906454824     0.01293035079986     0.01735278922118
   12     0.03807653935459     0.85900704844967     0.01089453160100     0.03828393184632     0.00100429704023
   13     0.03816932809193     0.85902003365700     0.01069070793639     0.03827152217967     0.00091342665527
   14     0.01461108136783     0.04245027560733     0.00124747569465     0.90830902904426     0.00018630111499
   15     0.01187520639448     0.04771677991975     0.00138801800233     0.91463794932361     0.00036894460378
   16     0.01483681154487     0.04235975947704     0.00124256954381     0.90822123637765     0.00019737671974
   17     0.01967983530503     0.00147510450627     0.05682550235118     0.00016751804904     0.82147320749298
   18     0.01467132812167     0.01772086201403     0.05487535143294     0.00159123225290     0.01016961650889
   19     0.00108275754032     0.00033249515787     0.01064240472916     0.00008364927836     0.06036211625915
   20     0.00109127748995     0.00029143454925     0.01046386202481     0.00008070974511     0.00248041875983
   21     0.00034175676228     0.00012508815814     0.00274761191004     0.00003266318809     0.01127500079247

                 6                   7                   8                   9                  10

    1     0.11078774081046     0.01841526510828     0.01649731517489     0.00879157177290     0.84079807529759
    2     0.05720593439329     0.00312172157494     0.00589752081253     0.00193424862949     0.03647135240054
    3     1.45159549141414     0.13391548564881     0.13348026375626     0.14062881229185     0.04206081235835
    4     0.00636075271187     0.00061919556192     0.00069692984240     0.00037906846749     0.01302133185165
    5     0.13352588462871     1.53937967486640     0.14929217563457     0.13819562038727     0.01640598046874
    6     0.00000000000000     0.14460222910197     1.50898296811489     0.13759583559455     0.01380137992541
    7     0.14460222910197     0.00000000000000     0.13829875803922     1.50986297427478     0.00123124536550
    8     1.50898296811489     0.13829875803922     0.00000000000000     1.53490907883556     0.00089802058265
    9     0.13759583559455     1.50986297427478     1.53490907883556     0.00000000000000     0.00362865040225
   10     0.01380137992541     0.00123124536550     0.00089802058265     0.00362865040225     0.00000000000000
   11     0.01332539236267     0.00137194786507     0.00090850627122     0.00333910354847     0.00592231929309
   12     0.01102230023129     0.00034866423370     0.00089701506765     0.00032110551118     0.00833370584430
   13     0.01131526254492     0.00030961320496     0.00089439815696     0.00031673191846     0.00444930106404
   14     0.00073397781529     0.00005846558307     0.00011519863042     0.00007063403930     0.00054528333054
   15     0.00026329235351     0.00008563488952     0.00003841145058     0.00002204367399     0.00036708719610
   16     0.00072002436331     0.00006333754041     0.00012290185290     0.00006918286365     0.00123394971726
   17     0.01047500269695     0.05723146834739     0.00245608533720     0.01098331357178     0.00070633687184
   18     0.81514954112178     0.00228288528836     0.05610351939556     0.01048741243435     0.00005021334336
   19     0.00250221638774     0.83489401051698     0.01134607887449     0.05886975696691     0.00005758650497
   20     0.05964921900398     0.01150516981016     0.83502901831653     0.05922442770871     0.00016740634719
   21     0.01120167187590     0.05906451752377     0.05942309114217     0.83617185147264     0.00004471858744

                11                  12                  13                  14                  15

    1     0.84102847310642     0.03807653935459     0.03816932809193     0.01461108136783     0.01187520639448
    2     0.03634552852310     0.85900704844967     0.85902003365700     0.04245027560733     0.04771677991975
    3     0.04198906454824     0.01089453160100     0.01069070793639     0.00124747569465     0.00138801800233
    4     0.01293035079986     0.03828393184632     0.03827152217967     0.90830902904426     0.91463794932361
    5     0.01735278922118     0.00100429704023     0.00091342665527     0.00018630111499     0.00036894460378
    6     0.01332539236267     0.01102230023129     0.01131526254492     0.00073397781529     0.00026329235351
    7     0.00137194786507     0.00034866423370     0.00030961320496     0.00005846558307     0.00008563488952
    8     0.00090850627122     0.00089701506765     0.00089439815696     0.00011519863042     0.00003841145058
    9     0.00333910354847     0.00032110551118     0.00031673191846     0.00007063403930     0.00002204367399
   10     0.00592231929309     0.00833370584430     0.00444930106404     0.00054528333054     0.00036708719610
   11     0.00000000000000     0.00437528908064     0.00840819712240     0.00119431078682     0.00036063575780
   12     0.00437528908064     0.00000000000000     0.00664526164345     0.00376386354450     0.00308088098468
   13     0.00840819712240     0.00664526164345     0.00000000000000     0.00972545583914     0.00318429611832
   14     0.00119431078682     0.00376386354450     0.00972545583914     0.00000000000000     0.00947594797892
   15     0.00036063575780     0.00308088098468     0.00318429611832     0.00947594797892     0.00000000000000
   16     0.00055370921190     0.00975115887619     0.00370431389871     0.00797788817373     0.00948450123903
   17     0.00095270392529     0.00009914935993     0.00012349055656     0.00002051461941     0.00005981583193
   18     0.00007140945399     0.00172472173477     0.00202249874598     0.00017939186384     0.00006833149143
   19     0.00004555723572     0.00003608208291     0.00003567881646     0.00000595243062     0.00002108230878
   20     0.00017627374394     0.00003381675289     0.00003751583471     0.00000662779113     0.00001031675506
   21     0.00004365761418     0.00002884422373     0.00003213618962     0.00000498881258     0.00000192515634

                16                  17                  18                  19                  20

    1     0.01483681154487     0.01967983530503     0.01467132812167     0.00108275754032     0.00109127748995
    2     0.04235975947704     0.00147510450627     0.01772086201403     0.00033249515787     0.00029143454925
    3     0.00124256954381     0.05682550235118     0.05487535143294     0.01064240472916     0.01046386202481
    4     0.90822123637765     0.00016751804904     0.00159123225290     0.00008364927836     0.00008070974511
    5     0.00019737671974     0.82147320749298     0.01016961650889     0.06036211625915     0.00248041875983
    6     0.00072002436331     0.01047500269695     0.81514954112178     0.00250221638774     0.05964921900398
    7     0.00006333754041     0.05723146834739     0.00228288528836     0.83489401051698     0.01150516981016
    8     0.00012290185290     0.00245608533720     0.05610351939556     0.01134607887449     0.83502901831653
    9     0.00006918286365     0.01098331357178     0.01048741243435     0.05886975696691     0.05922442770871
   10     0.00123394971726     0.00070633687184     0.00005021334336     0.00005758650497     0.00016740634719
   11     0.00055370921190     0.00095270392529     0.00007140945399     0.00004555723572     0.00017627374394
   12     0.00975115887619     0.00009914935993     0.00172472173477     0.00003608208291     0.00003381675289
   13     0.00370431389871     0.00012349055656     0.00202249874598     0.00003567881646     0.00003751583471
   14     0.00797788817373     0.00002051461941     0.00017939186384     0.00000595243062     0.00000662779113
   15     0.00948450123903     0.00005981583193     0.00006833149143     0.00002108230878     0.00001031675506
   16     0.00000000000000     0.00002208256587     0.00014598265592     0.00000647599052     0.00000639952076
   17     0.00002208256587     0.00000000000000     0.00033413701328     0.00532956339795     0.00027722888048
   18     0.00014598265592     0.00033413701328     0.00000000000000     0.00028789568504     0.00542924165655
   19     0.00000647599052     0.00532956339795     0.00028789568504     0.00000000000000     0.00026255364002
   20     0.00000639952076     0.00027722888048     0.00542924165655     0.00026255364002     0.00000000000000
   21     0.00000440042625     0.00023536280980     0.00023000834480     0.00516662967941     0.00522130383577

                21

    1     0.00034175676228
    2     0.00012508815814
    3     0.00274761191004
    4     0.00003266318809
    5     0.01127500079247
    6     0.01120167187590
    7     0.05906451752377
    8     0.05942309114217
    9     0.83617185147264
   10     0.00004471858744
   11     0.00004365761418
   12     0.00002884422373
   13     0.00003213618962
   14     0.00000498881258
   15     0.00000192515634
   16     0.00000440042625
   17     0.00023536280980
   18     0.00023000834480
   19     0.00516662967941
   20     0.00522130383577
   21     0.00000000000000



  Atomic Valences: 

 #  #
 Irrep: 1
      1:  4.4537418
      2:  4.4635272
      3:  4.7317895
      4:  4.1800627
      5:  4.4852034
      6:  4.5008161
      7:  4.4566623
      8:  4.4562873
      9:  4.4558014
     10:  0.9901948
     11:  0.9906952
     12:  0.9977282
     13:  0.9982692
     14:  1.0006827
     15:  1.0025111
     16:  1.0007241
     17:  0.9889274
     18:  0.9935956
     19:  0.9913705
     20:  0.9914442
     21:  0.9913972


    Psi4 stopped on: Wednesday, 02 June 2021 12:57AM
    Psi4 wall time for execution: 0:00:20.72

*** Psi4 exiting successfully. Buy a developer a beer!
