
    -----------------------------------------------------------------------
          Psi4: An Open-Source Ab Initio Electronic Structure Package
                               Psi4 1.3.2 release

                         Git: Rev {HEAD} ecbda83 


    R. M. Parrish, L. A. Burns, D. G. A. Smith, A. C. Simmonett,
    A. E. DePrince III, E. G. Hohenstein, U. Bozkaya, A. Yu. Sokolov,
    R. Di Remigio, R. M. Richard, J. F. Gonthier, A. M. James,
    H. R. McAlexander, A. Kumar, M. Saitow, X. Wang, B. P. Pritchard,
    P. Verma, H. F. Schaefer III, K. Patkowski, R. A. King, E. F. Valeev,
    F. A. Evangelista, J. M. Turney, T. D. Crawford, and C. D. Sherrill,
    J. Chem. Theory Comput. 13(7) pp 3185--3197 (2017).
    (doi: 10.1021/acs.jctc.7b00174)


                         Additional Contributions by
    P. Kraus, H. Kruse, M. H. Lechner, M. C. Schieber, R. A. Shaw,
    A. Alenaizan, R. Galvelis, Z. L. Glick, S. Lehtola, and J. P. Misiewicz

    -----------------------------------------------------------------------


    Psi4 started on: Wednesday, 02 June 2021 12:53AM

    Process ID: 80371
    Host:       daniele-Precision-5750
    PSIDATADIR: /home/daniele/anaconda3/envs/poltype/share/psi4
    Memory:     500.0 MiB
    Threads:    1
    
  ==> Input File <==

--------------------------------------------------------------------------
molecule { 
0 1
 C   -1.287271   -0.233917    1.377386
 C   -2.578597    0.059943    0.564058
 C   -0.002905   -0.079384    0.596061
 C   -2.495583   -0.254449   -0.932155
 C    0.627909    1.166088    0.501225
 C    0.569435   -1.165359   -0.074143
 C    1.788782    1.326870   -0.251917
 C    1.731101   -1.010849   -0.827237
 C    2.344070    0.237272   -0.920322
 H   -1.335747   -1.262721    1.747175
 H   -1.266415    0.408589    2.260283
 H   -3.409255   -0.486285    1.018000
 H   -2.818913    1.122926    0.669724
 H   -2.279843   -1.310614   -1.111907
 H   -3.443165   -0.020762   -1.421309
 H   -1.710529    0.327875   -1.415106
 H    0.200955    2.015820    1.020364
 H    0.099054   -2.138527   -0.004180
 H    2.260656    2.298545   -0.313630
 H    2.158143   -1.863606   -1.338106
 H    3.246701    0.358497   -1.503706
}
memory 700MB
set_num_threads(8)
psi4_io.set_default_path("/home/daniele/PSI4_sctatch/Psi4-propbenzene")
set freeze_core True
E, wfn = energy('wb97x-d/6-311+G*',return_wfn=True)
oeprop(wfn,"WIBERG_LOWDIN_INDICES")
clean()
--------------------------------------------------------------------------

  Memory set to 667.572 MiB by Python driver.
  Threads set to 8 by Python driver.

*** tstart() called on daniele-Precision-5750
*** at Wed Jun  2 00:53:24 2021

   => Loading Basis Set <=

    Name: 6-311+G*
    Role: ORBITAL
    Keyword: BASIS
    atoms 1-9   entry C          line   130 file /home/daniele/anaconda3/envs/poltype/share/psi4/basis/6-311pgs.gbs 
    atoms 10-21 entry H          line    47 file /home/daniele/anaconda3/envs/poltype/share/psi4/basis/6-311pgs.gbs 


         ---------------------------------------------------------
                                   SCF
               by Justin Turney, Rob Parrish, Andy Simmonett
                          and Daniel G. A. Smith
                              RKS Reference
                        8 Threads,    667 MiB Core
         ---------------------------------------------------------

  ==> Geometry <==

    Molecular point group: c1
    Full point group: C1

    Geometry (in Angstrom), charge = 0, multiplicity = 1:

       Center              X                  Y                   Z               Mass       
    ------------   -----------------  -----------------  -----------------  -----------------
         C           -1.287270992349    -0.233917093046     1.377385971081    12.000000000000
         C           -2.578596992349     0.059942906954     0.564057971081    12.000000000000
         C           -0.002904992349    -0.079384093046     0.596060971081    12.000000000000
         C           -2.495582992349    -0.254449093046    -0.932155028919    12.000000000000
         C            0.627909007651     1.166087906954     0.501224971081    12.000000000000
         C            0.569435007651    -1.165359093046    -0.074143028919    12.000000000000
         C            1.788782007651     1.326869906954    -0.251917028919    12.000000000000
         C            1.731101007651    -1.010849093046    -0.827237028919    12.000000000000
         C            2.344070007651     0.237271906954    -0.920322028919    12.000000000000
         H           -1.335746992349    -1.262721093046     1.747174971081     1.007825032230
         H           -1.266414992349     0.408588906954     2.260282971081     1.007825032230
         H           -3.409254992349    -0.486285093046     1.017999971081     1.007825032230
         H           -2.818912992349     1.122925906954     0.669723971081     1.007825032230
         H           -2.279842992349    -1.310614093046    -1.111907028919     1.007825032230
         H           -3.443164992349    -0.020762093046    -1.421309028919     1.007825032230
         H           -1.710528992349     0.327874906954    -1.415106028919     1.007825032230
         H            0.200955007651     2.015819906954     1.020363971081     1.007825032230
         H            0.099054007651    -2.138527093046    -0.004180028919     1.007825032230
         H            2.260656007651     2.298544906954    -0.313630028919     1.007825032230
         H            2.158143007651    -1.863606093046    -1.338106028919     1.007825032230
         H            3.246701007651     0.358496906954    -1.503706028919     1.007825032230

  Running in c1 symmetry.

  Rotational constants: A =      0.10586  B =      0.03657  C =      0.03348 [cm^-1]
  Rotational constants: A =   3173.58692  B =   1096.21580  C =   1003.75833 [MHz]
  Nuclear repulsion =  421.628867734473886

  Charge       = 0
  Multiplicity = 1
  Electrons    = 66
  Nalpha       = 33
  Nbeta        = 33

  ==> Algorithm <==

  SCF Algorithm Type is DF.
  DIIS enabled.
  MOM disabled.
  Fractional occupation disabled.
  Guess Type is SAD.
  Energy threshold   = 1.00e-06
  Density threshold  = 1.00e-06
  Integral threshold = 0.00e+00

  ==> Primary Basis <==

  Basis Set: 6-311+G*
    Blend: 6-311+G*
    Number of shells: 126
    Number of basis function: 234
    Number of Cartesian functions: 243
    Spherical Harmonics?: true
    Max angular momentum: 2

  ==> DFT Potential <==

   => Composite Functional: WB97X-D <= 

    wB97X-D Hyb-GGA Exchange-Correlation Functional

    J.-D. Chai and M. Head-Gordon, Phys. Chem. Chem. Phys. 10, 6615 (2008)

    Deriv               =              1
    GGA                 =           TRUE
    Meta                =          FALSE

    Exchange Hybrid     =           TRUE
    MP2 Hybrid          =          FALSE

   => Exchange-Correlation Functionals <=

    1.0000   wB97D range-separated functional

   => Exact (HF) Exchange <=

    0.7780            HF,LR [omega = 0.2000]
    0.2220               HF 

   => Molecular Quadrature <=

    Radial Scheme          =       TREUTLER
    Pruning Scheme         =           FLAT
    Nuclear Scheme         =       TREUTLER

    BS radius alpha        =              1
    Pruning alpha          =              1
    Radial Points          =             75
    Spherical Points       =            302
    Total Points           =         475650
    Total Blocks           =           3520
    Max Points             =            256
    Max Functions          =            221

   => WB97X-D: Empirical Dispersion <=

    Chai and Head-Gordon Dispersion Correction
    Chai, J.-D.; Head-Gordon, M. (2010), J. Chem. Phys., 132: 6615-6620

        s6 =       1.000000

   => Loading Basis Set <=

    Name: (6-311+G* AUX)
    Role: JKFIT
    Keyword: DF_BASIS_SCF
    atoms 1-9   entry C          line   200 file /home/daniele/anaconda3/envs/poltype/share/psi4/basis/heavy-aug-cc-pvtz-jkfit.gbs 
    atoms 10-21 entry H          line   116 file /home/daniele/anaconda3/envs/poltype/share/psi4/basis/heavy-aug-cc-pvtz-jkfit.gbs 

  ==> Pre-Iterations <==

   -------------------------------------------------------
    Irrep   Nso     Nmo     Nalpha   Nbeta   Ndocc  Nsocc
   -------------------------------------------------------
     A        234     234       0       0       0       0
   -------------------------------------------------------
    Total     234     234      33      33      33       0
   -------------------------------------------------------

  ==> Integral Setup <==

  ==> DiskDFJK: Density-Fitted J/K Matrices <==

    J tasked:                  Yes
    K tasked:                  Yes
    wK tasked:                 Yes
    Omega:               2.000E-01
    OpenMP threads:              8
    Integrals threads:           8
    Memory [MiB]:              304
    Algorithm:                Disk
    Integral Cache:           NONE
    Schwarz Cutoff:          1E-12
    Fitting Condition:       1E-10

   => Auxiliary Basis Set <=

  Basis Set: (6-311+G* AUX)
    Blend: HEAVY-AUG-CC-PVTZ-JKFIT
    Number of shells: 390
    Number of basis function: 1296
    Number of Cartesian functions: 1599
    Spherical Harmonics?: true
    Max angular momentum: 4

  Cached 9.1% of DFT collocation blocks in 0.203 [GiB].

  Minimum eigenvalue in the overlap matrix is 2.5214629607E-06.
  Using Symmetric Orthogonalization.

  SCF Guess: Superposition of Atomic Densities via on-the-fly atomic UHF.

  ==> Iterations <==

                           Total Energy        Delta E     RMS |[F,P]|

   @DF-RKS iter SAD:  -349.48268023667436   -3.49483e+02   0.00000e+00 
   @DF-RKS iter   1:  -349.62105394945291   -1.38374e-01   4.17481e-03 DIIS
   @DF-RKS iter   2:  -349.83769264871631   -2.16639e-01   3.30583e-03 DIIS
   @DF-RKS iter   3:  -350.13942733857317   -3.01735e-01   3.01173e-04 DIIS
   @DF-RKS iter   4:  -350.14137673551778   -1.94940e-03   1.73465e-04 DIIS
   @DF-RKS iter   5:  -350.14220406850382   -8.27333e-04   4.52671e-05 DIIS
   @DF-RKS iter   6:  -350.14226427033827   -6.02018e-05   1.02845e-05 DIIS
   @DF-RKS iter   7:  -350.14226728913428   -3.01880e-06   2.66812e-06 DIIS
   @DF-RKS iter   8:  -350.14226751917477   -2.30040e-07   6.60163e-07 DIIS
  Energy and wave function converged.


  ==> Post-Iterations <==

    Orbital Energies [Eh]
    ---------------------

    Doubly Occupied:                                                      

       1A    -10.293758     2A    -10.287361     3A    -10.287285  
       4A    -10.285297     5A    -10.284438     6A    -10.284405  
       7A    -10.282937     8A    -10.279886     9A    -10.263826  
      10A     -0.961771    11A     -0.896338    12A     -0.845823  
      13A     -0.842454    14A     -0.778984    15A     -0.704019  
      16A     -0.699465    17A     -0.661155    18A     -0.601361  
      19A     -0.560368    20A     -0.548385    21A     -0.531306  
      22A     -0.522491    23A     -0.506448    24A     -0.494861  
      25A     -0.470539    26A     -0.453704    27A     -0.444594  
      28A     -0.425516    29A     -0.422290    30A     -0.407140  
      31A     -0.403675    32A     -0.329142    33A     -0.318685  

    Virtual:                                                              

      34A      0.053084    35A      0.056115    36A      0.061740  
      37A      0.075069    38A      0.076328    39A      0.084096  
      40A      0.094050    41A      0.096633    42A      0.103354  
      43A      0.117810    44A      0.121297    45A      0.122762  
      46A      0.126849    47A      0.136977    48A      0.150624  
      49A      0.154424    50A      0.159364    51A      0.162802  
      52A      0.172868    53A      0.183742    54A      0.188085  
      55A      0.192142    56A      0.204203    57A      0.206552  
      58A      0.209313    59A      0.215304    60A      0.222333  
      61A      0.223641    62A      0.228638    63A      0.237714  
      64A      0.245466    65A      0.249015    66A      0.252658  
      67A      0.261753    68A      0.266148    69A      0.271255  
      70A      0.271525    71A      0.277386    72A      0.284022  
      73A      0.285888    74A      0.293519    75A      0.295392  
      76A      0.305554    77A      0.312824    78A      0.321970  
      79A      0.322694    80A      0.333086    81A      0.342259  
      82A      0.347829    83A      0.354787    84A      0.378725  
      85A      0.384696    86A      0.386057    87A      0.404046  
      88A      0.414710    89A      0.426474    90A      0.430458  
      91A      0.436386    92A      0.501048    93A      0.517614  
      94A      0.529060    95A      0.551738    96A      0.575197  
      97A      0.583479    98A      0.592409    99A      0.599211  
     100A      0.620411   101A      0.624236   102A      0.637410  
     103A      0.643695   104A      0.646052   105A      0.660547  
     106A      0.669692   107A      0.682503   108A      0.684403  
     109A      0.713574   110A      0.724669   111A      0.738061  
     112A      0.742806   113A      0.759052   114A      0.768362  
     115A      0.783259   116A      0.788121   117A      0.791836  
     118A      0.800565   119A      0.801487   120A      0.811089  
     121A      0.824857   122A      0.829977   123A      0.842596  
     124A      0.849515   125A      0.858974   126A      0.869743  
     127A      0.913156   128A      0.927367   129A      0.929287  
     130A      0.942713   131A      0.951560   132A      0.959781  
     133A      0.970640   134A      0.990815   135A      1.028365  
     136A      1.076416   137A      1.101151   138A      1.115025  
     139A      1.148771   140A      1.173369   141A      1.201298  
     142A      1.215352   143A      1.230996   144A      1.290459  
     145A      1.319876   146A      1.329121   147A      1.382363  
     148A      1.393164   149A      1.410678   150A      1.490876  
     151A      1.559337   152A      1.608145   153A      1.621825  
     154A      1.624854   155A      1.637053   156A      1.655801  
     157A      1.688273   158A      1.699751   159A      1.730306  
     160A      1.756590   161A      1.771517   162A      1.820734  
     163A      1.835004   164A      1.859252   165A      1.881424  
     166A      1.889545   167A      1.928911   168A      1.932938  
     169A      1.949003   170A      1.980168   171A      2.022121  
     172A      2.027308   173A      2.027874   174A      2.076621  
     175A      2.085797   176A      2.093277   177A      2.171615  
     178A      2.284765   179A      2.313059   180A      2.349293  
     181A      2.360686   182A      2.385090   183A      2.412534  
     184A      2.433044   185A      2.499954   186A      2.515753  
     187A      2.575452   188A      2.610420   189A      2.632297  
     190A      2.653113   191A      2.676737   192A      2.692898  
     193A      2.749158   194A      2.779160   195A      2.790138  
     196A      2.809047   197A      2.888702   198A      2.892217  
     199A      2.933660   200A      2.985118   201A      3.000726  
     202A      3.020206   203A      3.078431   204A      3.110169  
     205A      3.192024   206A      3.225888   207A      3.252059  
     208A      3.298950   209A      3.314487   210A      3.375316  
     211A      3.401888   212A      3.415110   213A      3.417554  
     214A      3.455733   215A      3.465574   216A      3.542886  
     217A      3.661848   218A      3.737073   219A      3.779619  
     220A      3.847493   221A      3.978029   222A      4.128358  
     223A      4.130844   224A      4.301622   225A      4.897130  
     226A     23.453099   227A     23.661572   228A     23.819209  
     229A     23.874093   230A     23.980005   231A     24.013720  
     232A     24.178068   233A     24.182384   234A     24.285230  

    Final Occupation by Irrep:
              A 
    DOCC [    33 ]

  @DF-RKS Final Energy:  -350.14226751917477

   => Energetics <=

    Nuclear Repulsion Energy =            421.6288677344738858
    One-Electron Energy =               -1306.1276166240456860
    Two-Electron Energy =                 570.7741771871582159
    DFT Exchange-Correlation Energy =     -36.4049930308223537
    Empirical Dispersion Energy =          -0.0127027859389500
    VV10 Nonlocal Energy =                  0.0000000000000000
    Total Energy =                       -350.1422675191748226

Computation Completed


Properties will be evaluated at   0.000000,   0.000000,   0.000000 [a0]

Properties computed using the SCF density matrix

  Nuclear Dipole Moment: [e a0]
     X:    -7.7795      Y:    -0.5159      Z:    -0.3679

  Electronic Dipole Moment: [e a0]
     X:     7.6369      Y:     0.5212      Z:     0.3979

  Dipole Moment: [e a0]
     X:    -0.1426      Y:     0.0054      Z:     0.0301     Total:     0.1458

  Dipole Moment: [D]
     X:    -0.3624      Y:     0.0136      Z:     0.0765     Total:     0.3706


*** tstop() called on daniele-Precision-5750 at Wed Jun  2 00:53:45 2021
Module time:
	user time   =     159.32 seconds =       2.66 minutes
	system time =       5.07 seconds =       0.08 minutes
	total time  =         21 seconds =       0.35 minutes
Total time:
	user time   =     159.32 seconds =       2.66 minutes
	system time =       5.07 seconds =       0.08 minutes
	total time  =         21 seconds =       0.35 minutes


Properties will be evaluated at   0.000000,   0.000000,   0.000000 [a0]
OEProp: No title given, name of density matrix used for the following properties is 'SCF density'


  Wiberg Bond Indices using Orthogonal Lowdin Orbitals:

  Irrep: 1 Size: 21 x 21

                 1                   2                   3                   4                   5

    1     0.00000000000000     1.12708492783018     1.08713511491059     0.09144356912326     0.12479524972018
    2     1.12708492783018     0.00000000000000     0.08880206841245     1.19529319903119     0.03204951687041
    3     1.08713511491059     0.08880206841245     0.00000000000000     0.05093189225493     1.43878140006149
    4     0.09144356912326     1.19529319903119     0.05093189225493     0.00000000000000     0.01932620930041
    5     0.12479524972018     0.03204951687041     1.43878140006149     0.01932620930041     0.00000000000000
    6     0.12604052159489     0.02952438432166     1.43678627393777     0.03586737156150     0.13355497677870
    7     0.01772567242279     0.00332701133272     0.13417736454654     0.00466045767762     1.52489476178921
    8     0.01761700490742     0.00350292718725     0.13394973903342     0.00754654261179     0.14725761150065
    9     0.01001174254434     0.00659975991003     0.13957991578592     0.00337513873345     0.13814445524955
   10     0.84572924472431     0.03732916129087     0.04674732764635     0.00788644492039     0.00913525690722
   11     0.85095747959701     0.04151291914225     0.04423987794893     0.00901716139836     0.01748494552895
   12     0.04370422380023     0.87330341483214     0.00872251086097     0.03886660224456     0.00108158207771
   13     0.04010805483996     0.86589637716292     0.00827273518590     0.04017090939196     0.00318130325761
   14     0.01133795855558     0.03912737179405     0.00770473088860     0.89815283628693     0.00085988512598
   15     0.01288428987805     0.04934177238280     0.00192432240146     0.91005087214544     0.00024410242967
   16     0.01028414743290     0.03753667874470     0.01270354751976     0.88902594298974     0.00605673423898
   17     0.01805217002731     0.00435931363912     0.05662635155169     0.00122706358766     0.81862701026283
   18     0.01811422434661     0.00349554513672     0.05635628513701     0.00534240861531     0.00985868259359
   19     0.00111258135916     0.00021841578541     0.01046844184298     0.00011225142470     0.06003068560316
   20     0.00112445991211     0.00022088671168     0.01052629526130     0.00015318716936     0.00243683841292
   21     0.00034111070845     0.00005448049889     0.00285671028783     0.00004139330768     0.01134001863466

                 6                   7                   8                   9                  10

    1     0.12604052159489     0.01772567242279     0.01761700490742     0.01001174254434     0.84572924472431
    2     0.02952438432166     0.00332701133272     0.00350292718725     0.00659975991003     0.03732916129087
    3     1.43678627393777     0.13417736454654     0.13394973903342     0.13957991578592     0.04674732764635
    4     0.03586737156150     0.00466045767762     0.00754654261179     0.00337513873345     0.00788644492039
    5     0.13355497677870     1.52489476178921     0.14725761150065     0.13814445524955     0.00913525690722
    6     0.00000000000000     0.14660764055234     1.52302395347195     0.13796372389792     0.02004102419917
    7     0.14660764055234     0.00000000000000     0.13786383388238     1.52050590353918     0.00099188041358
    8     1.52302395347195     0.13786383388238     0.00000000000000     1.52111237256610     0.00150131833446
    9     0.13796372389792     1.52050590353918     1.52111237256610     0.00000000000000     0.00113500680088
   10     0.02004102419917     0.00099188041358     0.00150131833446     0.00113500680088     0.00000000000000
   11     0.00959060588226     0.00129367207688     0.00097872094403     0.00133688799996     0.00770345187031
   12     0.00129668926800     0.00023582738276     0.00026943331224     0.00029490448314     0.00719530445949
   13     0.00147094492616     0.00017468822509     0.00023861252883     0.00011947958919     0.00546350573870
   14     0.00875245573827     0.00037087713889     0.00126280831549     0.00017272634741     0.00017001434941
   15     0.00073838839811     0.00021329660337     0.00031181149343     0.00008833838229     0.00007216519134
   16     0.00701461265341     0.00140083067346     0.00196411788207     0.00111092437040     0.00009287041361
   17     0.01005562300679     0.05663944440987     0.00233010960629     0.01081512931569     0.00032973219012
   18     0.81607954652803     0.00226068681114     0.05617797932565     0.01070780660068     0.00158856602088
   19     0.00242447365000     0.83516323684872     0.01137036880250     0.05897019933000     0.00029694950911
   20     0.06007020769149     0.01136798854419     0.83487620881607     0.05895648874095     0.00004112424495
   21     0.01132127301541     0.05902236668479     0.05900846047390     0.83633852816607     0.00003228149483

                11                  12                  13                  14                  15

    1     0.85095747959701     0.04370422380023     0.04010805483996     0.01133795855558     0.01288428987805
    2     0.04151291914225     0.87330341483214     0.86589637716292     0.03912737179405     0.04934177238280
    3     0.04423987794893     0.00872251086097     0.00827273518590     0.00770473088860     0.00192432240146
    4     0.00901716139836     0.03886660224456     0.04017090939196     0.89815283628693     0.91005087214544
    5     0.01748494552895     0.00108158207771     0.00318130325761     0.00085988512598     0.00024410242967
    6     0.00959060588226     0.00129668926800     0.00147094492616     0.00875245573827     0.00073838839811
    7     0.00129367207688     0.00023582738276     0.00017468822509     0.00037087713889     0.00021329660337
    8     0.00097872094403     0.00026943331224     0.00023861252883     0.00126280831549     0.00031181149343
    9     0.00133688799996     0.00029490448314     0.00011947958919     0.00017272634741     0.00008833838229
   10     0.00770345187031     0.00719530445949     0.00546350573870     0.00017001434941     0.00007216519134
   11     0.00000000000000     0.00070364249643     0.00746581816204     0.00010385140354     0.00009835350257
   12     0.00070364249643     0.00000000000000     0.00765784892244     0.00364355705323     0.00325950752797
   13     0.00746581816204     0.00765784892244     0.00000000000000     0.00919826565529     0.00352769105161
   14     0.00010385140354     0.00364355705323     0.00919826565529     0.00000000000000     0.00953529151800
   15     0.00009835350257     0.00325950752797     0.00352769105161     0.00953529151800     0.00000000000000
   16     0.00005698518695     0.00942283584752     0.00438636454101     0.00745601041794     0.00984849198589
   17     0.00120706773579     0.00002920616368     0.00014230431045     0.00000583854505     0.00002362678949
   18     0.00029510379178     0.00017911998390     0.00006444670213     0.00064046015180     0.00012321325278
   19     0.00004202370939     0.00001131764507     0.00002107510097     0.00001376371461     0.00000532930703
   20     0.00026469579201     0.00000998676128     0.00000748604095     0.00000539620128     0.00001528626214
   21     0.00002639759642     0.00000523359704     0.00001810233816     0.00001322651730     0.00000174242778

                16                  17                  18                  19                  20

    1     0.01028414743290     0.01805217002731     0.01811422434661     0.00111258135916     0.00112445991211
    2     0.03753667874470     0.00435931363912     0.00349554513672     0.00021841578541     0.00022088671168
    3     0.01270354751976     0.05662635155169     0.05635628513701     0.01046844184298     0.01052629526130
    4     0.88902594298974     0.00122706358766     0.00534240861531     0.00011225142470     0.00015318716936
    5     0.00605673423898     0.81862701026283     0.00985868259359     0.06003068560316     0.00243683841292
    6     0.00701461265341     0.01005562300679     0.81607954652803     0.00242447365000     0.06007020769149
    7     0.00140083067346     0.05663944440987     0.00226068681114     0.83516323684872     0.01136798854419
    8     0.00196411788207     0.00233010960629     0.05617797932565     0.01137036880250     0.83487620881607
    9     0.00111092437040     0.01081512931569     0.01070780660068     0.05897019933000     0.05895648874095
   10     0.00009287041361     0.00032973219012     0.00158856602088     0.00029694950911     0.00004112424495
   11     0.00005698518695     0.00120706773579     0.00029510379178     0.00004202370939     0.00026469579201
   12     0.00942283584752     0.00002920616368     0.00017911998390     0.00001131764507     0.00000998676128
   13     0.00438636454101     0.00014230431045     0.00006444670213     0.00002107510097     0.00000748604095
   14     0.00745601041794     0.00000583854505     0.00064046015180     0.00001376371461     0.00000539620128
   15     0.00984849198589     0.00002362678949     0.00012321325278     0.00000532930703     0.00001528626214
   16     0.00000000000000     0.00036050395237     0.00048883543835     0.00001354817062     0.00001768067534
   17     0.00036050395237     0.00000000000000     0.00033340642192     0.00522946382645     0.00027368716089
   18     0.00048883543835     0.00033340642192     0.00000000000000     0.00027162362332     0.00522476583888
   19     0.00001354817062     0.00522946382645     0.00027162362332     0.00000000000000     0.00025822875550
   20     0.00001768067534     0.00027368716089     0.00522476583888     0.00025822875550     0.00000000000000
   21     0.00000269857519     0.00023555022521     0.00023562936625     0.00520082113011     0.00521086446159

                21

    1     0.00034111070845
    2     0.00005448049889
    3     0.00285671028783
    4     0.00004139330768
    5     0.01134001863466
    6     0.01132127301541
    7     0.05902236668479
    8     0.05900846047390
    9     0.83633852816607
   10     0.00003228149483
   11     0.00002639759642
   12     0.00000523359704
   13     0.00001810233816
   14     0.00001322651730
   15     0.00000174242778
   16     0.00000269857519
   17     0.00023555022521
   18     0.00023562936625
   19     0.00520082113011
   20     0.00521086446159
   21     0.00000000000000



  Atomic Valences: 

 #  #
 Irrep: 1
      1:  4.4556037
      2:  4.4385801
      3:  4.7772929
      4:  4.2084915
      5:  4.4991412
      6:  4.5182247
      7:  4.4588974
      8:  4.4621639
      9:  4.4573394
     10:  0.9934826
     11:  0.9943797
     12:  0.9998927
     13:  0.9975860
     14:  0.9985273
     15:  1.0023079
     16:  0.9992444
     17:  0.9869026
     18:  0.9878383
     19:  0.9912348
     20:  0.9910618
     21:  0.9913069


    Psi4 stopped on: Wednesday, 02 June 2021 12:53AM
    Psi4 wall time for execution: 0:00:21.58

*** Psi4 exiting successfully. Buy a developer a beer!
