
    -----------------------------------------------------------------------
          Psi4: An Open-Source Ab Initio Electronic Structure Package
                               Psi4 1.3.2 release

                         Git: Rev {HEAD} ecbda83 


    R. M. Parrish, L. A. Burns, D. G. A. Smith, A. C. Simmonett,
    A. E. DePrince III, E. G. Hohenstein, U. Bozkaya, A. Yu. Sokolov,
    R. Di Remigio, R. M. Richard, J. F. Gonthier, A. M. James,
    H. R. McAlexander, A. Kumar, M. Saitow, X. Wang, B. P. Pritchard,
    P. Verma, H. F. Schaefer III, K. Patkowski, R. A. King, E. F. Valeev,
    F. A. Evangelista, J. M. Turney, T. D. Crawford, and C. D. Sherrill,
    J. Chem. Theory Comput. 13(7) pp 3185--3197 (2017).
    (doi: 10.1021/acs.jctc.7b00174)


                         Additional Contributions by
    P. Kraus, H. Kruse, M. H. Lechner, M. C. Schieber, R. A. Shaw,
    A. Alenaizan, R. Galvelis, Z. L. Glick, S. Lehtola, and J. P. Misiewicz

    -----------------------------------------------------------------------


    Psi4 started on: Wednesday, 02 June 2021 12:57AM

    Process ID: 80706
    Host:       daniele-Precision-5750
    PSIDATADIR: /home/daniele/anaconda3/envs/poltype/share/psi4
    Memory:     500.0 MiB
    Threads:    1
    
  ==> Input File <==

--------------------------------------------------------------------------
molecule { 
0 1
 C   -1.464350    0.060611    0.535768
 C   -2.288938   -0.859853   -0.373003
 C    0.018644    0.163416    0.224283
 C   -3.766420   -0.890552    0.027262
 C    0.913175    0.491238    1.250067
 C    0.532059   -0.004923   -1.065642
 C    2.274509    0.640071    1.001373
 C    1.895102    0.141032   -1.319080
 C    2.772028    0.464765   -0.287991
 H   -1.581270   -0.274030    1.571178
 H   -1.900251    1.066249    0.495566
 H   -2.216823   -0.522277   -1.409926
 H   -1.867839   -1.868827   -0.342314
 H   -4.207623    0.106893   -0.036309
 H   -4.339369   -1.552592   -0.624277
 H   -3.887531   -1.244150    1.053865
 H    0.535991    0.626080    2.256484
 H   -0.127133   -0.256658   -1.884083
 H    2.945490    0.889815    1.812393
 H    2.269912    0.001665   -2.324294
 H    3.829274    0.577363   -0.485380
}
memory 700MB
set_num_threads(8)
psi4_io.set_default_path("/home/daniele/PSI4_sctatch/Psi4-propbenzene")
set freeze_core True
E, wfn = energy('wb97x-d/6-311+G*',return_wfn=True)
oeprop(wfn,"WIBERG_LOWDIN_INDICES")
clean()
--------------------------------------------------------------------------

  Memory set to 667.572 MiB by Python driver.
  Threads set to 8 by Python driver.

*** tstart() called on daniele-Precision-5750
*** at Wed Jun  2 00:57:41 2021

   => Loading Basis Set <=

    Name: 6-311+G*
    Role: ORBITAL
    Keyword: BASIS
    atoms 1-9   entry C          line   130 file /home/daniele/anaconda3/envs/poltype/share/psi4/basis/6-311pgs.gbs 
    atoms 10-21 entry H          line    47 file /home/daniele/anaconda3/envs/poltype/share/psi4/basis/6-311pgs.gbs 


         ---------------------------------------------------------
                                   SCF
               by Justin Turney, Rob Parrish, Andy Simmonett
                          and Daniel G. A. Smith
                              RKS Reference
                        8 Threads,    667 MiB Core
         ---------------------------------------------------------

  ==> Geometry <==

    Molecular point group: c1
    Full point group: C1

    Geometry (in Angstrom), charge = 0, multiplicity = 1:

       Center              X                  Y                   Z               Mass       
    ------------   -----------------  -----------------  -----------------  -----------------
         C           -1.464350033633     0.060610866762     0.535768035650    12.000000000000
         C           -2.288938033633    -0.859853133238    -0.373002964350    12.000000000000
         C            0.018643966367     0.163415866762     0.224283035650    12.000000000000
         C           -3.766420033633    -0.890552133238     0.027262035650    12.000000000000
         C            0.913174966367     0.491237866762     1.250067035650    12.000000000000
         C            0.532058966367    -0.004923133238    -1.065641964350    12.000000000000
         C            2.274508966367     0.640070866762     1.001373035650    12.000000000000
         C            1.895101966367     0.141031866762    -1.319079964350    12.000000000000
         C            2.772027966367     0.464764866762    -0.287990964350    12.000000000000
         H           -1.581270033633    -0.274030133238     1.571178035650     1.007825032230
         H           -1.900251033633     1.066248866762     0.495566035650     1.007825032230
         H           -2.216823033633    -0.522277133238    -1.409925964350     1.007825032230
         H           -1.867839033633    -1.868827133238    -0.342313964350     1.007825032230
         H           -4.207623033633     0.106892866762    -0.036308964350     1.007825032230
         H           -4.339369033633    -1.552592133238    -0.624276964350     1.007825032230
         H           -3.887531033633    -1.244150133238     1.053865035650     1.007825032230
         H            0.535990966367     0.626079866762     2.256484035650     1.007825032230
         H           -0.127133033633    -0.256658133238    -1.884082964350     1.007825032230
         H            2.945489966367     0.889814866762     1.812393035650     1.007825032230
         H            2.269911966367     0.001664866762    -2.324293964350     1.007825032230
         H            3.829273966367     0.577362866762    -0.485379964350     1.007825032230

  Running in c1 symmetry.

  Rotational constants: A =      0.15560  B =      0.02808  C =      0.02428 [cm^-1]
  Rotational constants: A =   4664.63352  B =    841.82143  C =    728.03867 [MHz]
  Nuclear repulsion =  410.200930467226328

  Charge       = 0
  Multiplicity = 1
  Electrons    = 66
  Nalpha       = 33
  Nbeta        = 33

  ==> Algorithm <==

  SCF Algorithm Type is DF.
  DIIS enabled.
  MOM disabled.
  Fractional occupation disabled.
  Guess Type is SAD.
  Energy threshold   = 1.00e-06
  Density threshold  = 1.00e-06
  Integral threshold = 0.00e+00

  ==> Primary Basis <==

  Basis Set: 6-311+G*
    Blend: 6-311+G*
    Number of shells: 126
    Number of basis function: 234
    Number of Cartesian functions: 243
    Spherical Harmonics?: true
    Max angular momentum: 2

  ==> DFT Potential <==

   => Composite Functional: WB97X-D <= 

    wB97X-D Hyb-GGA Exchange-Correlation Functional

    J.-D. Chai and M. Head-Gordon, Phys. Chem. Chem. Phys. 10, 6615 (2008)

    Deriv               =              1
    GGA                 =           TRUE
    Meta                =          FALSE

    Exchange Hybrid     =           TRUE
    MP2 Hybrid          =          FALSE

   => Exchange-Correlation Functionals <=

    1.0000   wB97D range-separated functional

   => Exact (HF) Exchange <=

    0.7780            HF,LR [omega = 0.2000]
    0.2220               HF 

   => Molecular Quadrature <=

    Radial Scheme          =       TREUTLER
    Pruning Scheme         =           FLAT
    Nuclear Scheme         =       TREUTLER

    BS radius alpha        =              1
    Pruning alpha          =              1
    Radial Points          =             75
    Spherical Points       =            302
    Total Points           =         475650
    Total Blocks           =           3510
    Max Points             =            256
    Max Functions          =            217

   => WB97X-D: Empirical Dispersion <=

    Chai and Head-Gordon Dispersion Correction
    Chai, J.-D.; Head-Gordon, M. (2010), J. Chem. Phys., 132: 6615-6620

        s6 =       1.000000

   => Loading Basis Set <=

    Name: (6-311+G* AUX)
    Role: JKFIT
    Keyword: DF_BASIS_SCF
    atoms 1-9   entry C          line   200 file /home/daniele/anaconda3/envs/poltype/share/psi4/basis/heavy-aug-cc-pvtz-jkfit.gbs 
    atoms 10-21 entry H          line   116 file /home/daniele/anaconda3/envs/poltype/share/psi4/basis/heavy-aug-cc-pvtz-jkfit.gbs 

  ==> Pre-Iterations <==

   -------------------------------------------------------
    Irrep   Nso     Nmo     Nalpha   Nbeta   Ndocc  Nsocc
   -------------------------------------------------------
     A        234     234       0       0       0       0
   -------------------------------------------------------
    Total     234     234      33      33      33       0
   -------------------------------------------------------

  ==> Integral Setup <==

  ==> DiskDFJK: Density-Fitted J/K Matrices <==

    J tasked:                  Yes
    K tasked:                  Yes
    wK tasked:                 Yes
    Omega:               2.000E-01
    OpenMP threads:              8
    Integrals threads:           8
    Memory [MiB]:              296
    Algorithm:                Disk
    Integral Cache:           NONE
    Schwarz Cutoff:          1E-12
    Fitting Condition:       1E-10

   => Auxiliary Basis Set <=

  Basis Set: (6-311+G* AUX)
    Blend: HEAVY-AUG-CC-PVTZ-JKFIT
    Number of shells: 390
    Number of basis function: 1296
    Number of Cartesian functions: 1599
    Spherical Harmonics?: true
    Max angular momentum: 4

  Cached 10.0% of DFT collocation blocks in 0.218 [GiB].

  Minimum eigenvalue in the overlap matrix is 2.2167338043E-06.
  Using Symmetric Orthogonalization.

  SCF Guess: Superposition of Atomic Densities via on-the-fly atomic UHF.

  ==> Iterations <==

                           Total Energy        Delta E     RMS |[F,P]|

   @DF-RKS iter SAD:  -349.48025024965568   -3.49480e+02   0.00000e+00 
   @DF-RKS iter   1:  -349.62612511434361   -1.45875e-01   4.15166e-03 DIIS
   @DF-RKS iter   2:  -349.86898414776692   -2.42859e-01   3.13818e-03 DIIS
   @DF-RKS iter   3:  -350.14209241842411   -2.73108e-01   2.04193e-04 DIIS
   @DF-RKS iter   4:  -350.14326465426126   -1.17224e-03   1.08205e-04 DIIS
   @DF-RKS iter   5:  -350.14356732129039   -3.02667e-04   4.30260e-05 DIIS
   @DF-RKS iter   6:  -350.14361892629756   -5.16050e-05   8.48993e-06 DIIS
   @DF-RKS iter   7:  -350.14362104382457   -2.11753e-06   2.71670e-06 DIIS
   @DF-RKS iter   8:  -350.14362129065660   -2.46832e-07   5.30912e-07 DIIS
  Energy and wave function converged.


  ==> Post-Iterations <==

    Orbital Energies [Eh]
    ---------------------

    Doubly Occupied:                                                      

       1A    -10.295604     2A    -10.286308     3A    -10.286192  
       4A    -10.284516     5A    -10.283944     6A    -10.283493  
       7A    -10.283466     8A    -10.280827     9A    -10.271121  
      10A     -0.961062    11A     -0.899495    12A     -0.849026  
      13A     -0.844434    14A     -0.776790    15A     -0.710510  
      16A     -0.691446    17A     -0.666376    18A     -0.606488  
      19A     -0.561055    20A     -0.547129    21A     -0.538243  
      22A     -0.518009    23A     -0.505921    24A     -0.491937  
      25A     -0.478265    26A     -0.452731    27A     -0.445898  
      28A     -0.434197    29A     -0.418705    30A     -0.414017  
      31A     -0.405914    32A     -0.328309    33A     -0.318151  

    Virtual:                                                              

      34A      0.056147    35A      0.057591    36A      0.064102  
      37A      0.072671    38A      0.075342    39A      0.089941  
      40A      0.092426    41A      0.093970    42A      0.104995  
      43A      0.118394    44A      0.118751    45A      0.122159  
      46A      0.128628    47A      0.135034    48A      0.145478  
      49A      0.149938    50A      0.157612    51A      0.160547  
      52A      0.178568    53A      0.183103    54A      0.191218  
      55A      0.195607    56A      0.204919    57A      0.207473  
      58A      0.213302    59A      0.216463    60A      0.222432  
      61A      0.228351    62A      0.230705    63A      0.238786  
      64A      0.244902    65A      0.252859    66A      0.258201  
      67A      0.264980    68A      0.266493    69A      0.269876  
      70A      0.275298    71A      0.281929    72A      0.288575  
      73A      0.291949    74A      0.297092    75A      0.302882  
      76A      0.308245    77A      0.314213    78A      0.319242  
      79A      0.323735    80A      0.328549    81A      0.334132  
      82A      0.337781    83A      0.341790    84A      0.350038  
      85A      0.358248    86A      0.390061    87A      0.394523  
      88A      0.404776    89A      0.422887    90A      0.433803  
      91A      0.436393    92A      0.490735    93A      0.509753  
      94A      0.525680    95A      0.547971    96A      0.568882  
      97A      0.575938    98A      0.597670    99A      0.616535  
     100A      0.621924   101A      0.626696   102A      0.626994  
     103A      0.629785   104A      0.644526   105A      0.663104  
     106A      0.678496   107A      0.687582   108A      0.702272  
     109A      0.712542   110A      0.723053   111A      0.730667  
     112A      0.732882   113A      0.748888   114A      0.767011  
     115A      0.769257   116A      0.775639   117A      0.779983  
     118A      0.791927   119A      0.797207   120A      0.798883  
     121A      0.812949   122A      0.826463   123A      0.838370  
     124A      0.842784   125A      0.869342   126A      0.886058  
     127A      0.903104   128A      0.921142   129A      0.932760  
     130A      0.944601   131A      0.958124   132A      0.979630  
     133A      0.989703   134A      1.007122   135A      1.021219  
     136A      1.065754   137A      1.097336   138A      1.116194  
     139A      1.129563   140A      1.138516   141A      1.155810  
     142A      1.191313   143A      1.234145   144A      1.292295  
     145A      1.315743   146A      1.320055   147A      1.358299  
     148A      1.404127   149A      1.475738   150A      1.498039  
     151A      1.557970   152A      1.587270   153A      1.606033  
     154A      1.623944   155A      1.634028   156A      1.638930  
     157A      1.651848   158A      1.674036   159A      1.698250  
     160A      1.747320   161A      1.771437   162A      1.806753  
     163A      1.829062   164A      1.855507   165A      1.872107  
     166A      1.891661   167A      1.899962   168A      1.938024  
     169A      1.947150   170A      1.964666   171A      2.011487  
     172A      2.023614   173A      2.048222   174A      2.085290  
     175A      2.092172   176A      2.136189   177A      2.162030  
     178A      2.224185   179A      2.279572   180A      2.359211  
     181A      2.379781   182A      2.407031   183A      2.435648  
     184A      2.445876   185A      2.491074   186A      2.507243  
     187A      2.586864   188A      2.599572   189A      2.620647  
     190A      2.622603   191A      2.675333   192A      2.693734  
     193A      2.723069   194A      2.766555   195A      2.774140  
     196A      2.799288   197A      2.882400   198A      2.888124  
     199A      2.907435   200A      2.984231   201A      3.011244  
     202A      3.019516   203A      3.091410   204A      3.153440  
     205A      3.186115   206A      3.224601   207A      3.244461  
     208A      3.274649   209A      3.311964   210A      3.324785  
     211A      3.368408   212A      3.415150   213A      3.417206  
     214A      3.428138   215A      3.461920   216A      3.544825  
     217A      3.653617   218A      3.734053   219A      3.759214  
     220A      3.811136   221A      3.999671   222A      4.090349  
     223A      4.131537   224A      4.371711   225A      4.898389  
     226A     23.430091   227A     23.651893   228A     23.804842  
     229A     23.874746   230A     23.980169   231A     24.008536  
     232A     24.172385   233A     24.185102   234A     24.286869  

    Final Occupation by Irrep:
              A 
    DOCC [    33 ]

  @DF-RKS Final Energy:  -350.14362129065660

   => Energetics <=

    Nuclear Repulsion Energy =            410.2009304672263283
    One-Electron Energy =               -1283.1965711033240041
    Two-Electron Energy =                 559.2696852225265047
    DFT Exchange-Correlation Energy =     -36.4061067816926425
    Empirical Dispersion Energy =          -0.0115590953927416
    VV10 Nonlocal Energy =                  0.0000000000000000
    Total Energy =                       -350.1436212906565970

Computation Completed


Properties will be evaluated at   0.000000,   0.000000,   0.000000 [a0]

Properties computed using the SCF density matrix

  Nuclear Dipole Moment: [e a0]
     X:    -9.8877      Y:    -2.2972      Z:     0.0777

  Electronic Dipole Moment: [e a0]
     X:     9.7102      Y:     2.2736      Z:    -0.0703

  Dipole Moment: [e a0]
     X:    -0.1775      Y:    -0.0236      Z:     0.0074     Total:     0.1792

  Dipole Moment: [D]
     X:    -0.4511      Y:    -0.0601      Z:     0.0188     Total:     0.4555


*** tstop() called on daniele-Precision-5750 at Wed Jun  2 00:58:00 2021
Module time:
	user time   =     145.87 seconds =       2.43 minutes
	system time =       4.69 seconds =       0.08 minutes
	total time  =         19 seconds =       0.32 minutes
Total time:
	user time   =     145.87 seconds =       2.43 minutes
	system time =       4.69 seconds =       0.08 minutes
	total time  =         19 seconds =       0.32 minutes


Properties will be evaluated at   0.000000,   0.000000,   0.000000 [a0]
OEProp: No title given, name of density matrix used for the following properties is 'SCF density'


  Wiberg Bond Indices using Orthogonal Lowdin Orbitals:

  Irrep: 1 Size: 21 x 21

                 1                   2                   3                   4                   5

    1     0.00000000000000     1.13683821028639     1.08154206823509     0.11391805374809     0.12985974450882
    2     1.13683821028639     0.00000000000000     0.09586126853215     1.20148024910576     0.01866189994589
    3     1.08154206823509     0.09586126853215     0.00000000000000     0.01802658785495     1.44017979067102
    4     0.11391805374809     1.20148024910576     0.01802658785495     0.00000000000000     0.00292430311812
    5     0.12985974450882     0.01866189994589     1.44017979067102     0.00292430311812     0.00000000000000
    6     0.11165461037876     0.05442539711648     1.44419944288746     0.00609752154951     0.13363319735397
    7     0.01786077263134     0.00312118147265     0.13392824225810     0.00062807318524     1.53116181323305
    8     0.01688385252731     0.00543008844737     0.13354047584731     0.00069981043229     0.14802961817660
    9     0.00898053798568     0.00291656269291     0.14032315386832     0.00049884447961     0.13796233774031
   10     0.84511941748433     0.03657890861027     0.04337552788698     0.01292853055791     0.01944272594484
   11     0.83808960195234     0.03642539738064     0.04172540338277     0.01302782591887     0.01540435856896
   12     0.03811611600601     0.85881349447300     0.01036007697285     0.03841673007700     0.00080939298032
   13     0.03823423660667     0.86045172757201     0.01220443660564     0.03824575509235     0.00155335937741
   14     0.01470006869159     0.04179821191205     0.00131631656564     0.90873381135110     0.00024715100909
   15     0.01188628158905     0.04779951539083     0.00140583846374     0.91457450672770     0.00035823819661
   16     0.01472317340649     0.04241094615728     0.00126816556836     0.90853971532024     0.00016474122625
   17     0.01977568713029     0.00152223039856     0.05669644149552     0.00016067105538     0.82187211576694
   18     0.01501009220282     0.01562498408756     0.05520144397574     0.00140751816935     0.01012933326038
   19     0.00110099813072     0.00030979075987     0.01059761439814     0.00008130521041     0.06025132434309
   20     0.00108045158322     0.00027146340392     0.01047824929074     0.00007545816871     0.00245658125201
   21     0.00034127252705     0.00011675093655     0.00276042189306     0.00002719292221     0.01128889086889

                 6                   7                   8                   9                  10

    1     0.11165461037876     0.01786077263134     0.01688385252731     0.00898053798568     0.84511941748433
    2     0.05442539711648     0.00312118147265     0.00543008844737     0.00291656269291     0.03657890861027
    3     1.44419944288746     0.13392824225810     0.13354047584731     0.14032315386832     0.04337552788698
    4     0.00609752154951     0.00062807318524     0.00069981043229     0.00049884447961     0.01292853055791
    5     0.13363319735397     1.53116181323305     0.14802961817660     0.13796233774031     0.01944272594484
    6     0.00000000000000     0.14599173000056     1.51825027047751     0.13759559984588     0.00920338610476
    7     0.14599173000056     0.00000000000000     0.13815108974087     1.51733542510800     0.00151329754742
    8     1.51825027047751     0.13815108974087     0.00000000000000     1.52741959779080     0.00092453740788
    9     0.13759559984588     1.51733542510800     1.52741959779080     0.00000000000000     0.00167574304100
   10     0.00920338610476     0.00151329754742     0.00092453740788     0.00167574304100     0.00000000000000
   11     0.01602385053438     0.00110348327422     0.00092083029578     0.00449094701271     0.00615491199767
   12     0.01309895455609     0.00018676059480     0.00104377599632     0.00033243819728     0.00857159760564
   13     0.00700814708163     0.00035681490706     0.00057547698453     0.00027048788769     0.00420887462014
   14     0.00063307280370     0.00006974325399     0.00009134622853     0.00006967698529     0.00056228201074
   15     0.00025220783874     0.00007900868462     0.00004036406256     0.00003055812823     0.00033639242761
   16     0.00079819412753     0.00004348160643     0.00010301942517     0.00005355689650     0.00116402101406
   17     0.01047421958087     0.05731737831600     0.00244754255041     0.01097292059753     0.00198903869800
   18     0.81552544050061     0.00229417807269     0.05645672964633     0.01056115372638     0.00030920948581
   19     0.00249376377677     0.83489838912693     0.01138682536852     0.05894917523995     0.00003873905119
   20     0.05983317659800     0.01147486517435     0.83498485784779     0.05914060686953     0.00030632375395
   21     0.01117758597483     0.05912979253135     0.05933371625008     0.83619873375222     0.00004616350429

                11                  12                  13                  14                  15

    1     0.83808960195234     0.03811611600601     0.03823423660667     0.01470006869159     0.01188628158905
    2     0.03642539738064     0.85881349447300     0.86045172757201     0.04179821191205     0.04779951539083
    3     0.04172540338277     0.01036007697285     0.01220443660564     0.00131631656564     0.00140583846374
    4     0.01302782591887     0.03841673007700     0.03824575509235     0.90873381135110     0.91457450672770
    5     0.01540435856896     0.00080939298032     0.00155335937741     0.00024715100909     0.00035823819661
    6     0.01602385053438     0.01309895455609     0.00700814708163     0.00063307280370     0.00025220783874
    7     0.00110348327422     0.00018676059480     0.00035681490706     0.00006974325399     0.00007900868462
    8     0.00092083029578     0.00104377599632     0.00057547698453     0.00009134622853     0.00004036406256
    9     0.00449094701271     0.00033243819728     0.00027048788769     0.00006967698529     0.00003055812823
   10     0.00615491199767     0.00857159760564     0.00420887462014     0.00056228201074     0.00033639242761
   11     0.00000000000000     0.00472480072005     0.00778406445862     0.00121524062656     0.00039463129223
   12     0.00472480072005     0.00000000000000     0.00686148612051     0.00392366305104     0.00318243921675
   13     0.00778406445862     0.00686148612051     0.00000000000000     0.00983674442406     0.00305014225772
   14     0.00121524062656     0.00392366305104     0.00983674442406     0.00000000000000     0.00949867762729
   15     0.00039463129223     0.00318243921675     0.00305014225772     0.00949867762729     0.00000000000000
   16     0.00056242628218     0.00958350504375     0.00358493661845     0.00799846921932     0.00948532127099
   17     0.00019640301935     0.00018170498563     0.00002127608258     0.00002642417852     0.00005607789208
   18     0.00012223595054     0.00381111080616     0.00056846427683     0.00000592640038     0.00005827372982
   19     0.00008098078002     0.00004441450986     0.00002772006797     0.00000714601962     0.00001976882869
   20     0.00007778565310     0.00004180095122     0.00001851502052     0.00000471612243     0.00001001324069
   21     0.00003612978457     0.00004118220443     0.00001277517394     0.00000192084242     0.00000154369847

                16                  17                  18                  19                  20

    1     0.01472317340649     0.01977568713029     0.01501009220282     0.00110099813072     0.00108045158322
    2     0.04241094615728     0.00152223039856     0.01562498408756     0.00030979075987     0.00027146340392
    3     0.00126816556836     0.05669644149552     0.05520144397574     0.01059761439814     0.01047824929074
    4     0.90853971532024     0.00016067105538     0.00140751816935     0.00008130521041     0.00007545816871
    5     0.00016474122625     0.82187211576694     0.01012933326038     0.06025132434309     0.00245658125201
    6     0.00079819412753     0.01047421958087     0.81552544050061     0.00249376377677     0.05983317659800
    7     0.00004348160643     0.05731737831600     0.00229417807269     0.83489838912693     0.01147486517435
    8     0.00010301942517     0.00244754255041     0.05645672964633     0.01138682536852     0.83498485784779
    9     0.00005355689650     0.01097292059753     0.01056115372638     0.05894917523995     0.05914060686953
   10     0.00116402101406     0.00198903869800     0.00030920948581     0.00003873905119     0.00030632375395
   11     0.00056242628218     0.00019640301935     0.00012223595054     0.00008098078002     0.00007778565310
   12     0.00958350504375     0.00018170498563     0.00381111080616     0.00004441450986     0.00004180095122
   13     0.00358493661845     0.00002127608258     0.00056846427683     0.00002772006797     0.00001851502052
   14     0.00799846921932     0.00002642417852     0.00000592640038     0.00000714601962     0.00000471612243
   15     0.00948532127099     0.00005607789208     0.00005827372982     0.00001976882869     0.00001001324069
   16     0.00000000000000     0.00001156214505     0.00030794068364     0.00000466313850     0.00000769236243
   17     0.00001156214505     0.00000000000000     0.00033897015508     0.00531006106651     0.00028003024271
   18     0.00030794068364     0.00033897015508     0.00000000000000     0.00028399854120     0.00543450804817
   19     0.00000466313850     0.00531006106651     0.00028399854120     0.00000000000000     0.00026263638699
   20     0.00000769236243     0.00028003024271     0.00543450804817     0.00026263638699     0.00000000000000
   21     0.00000834837412     0.00023612375865     0.00022831817612     0.00518515103273     0.00520089603851

                21

    1     0.00034127252705
    2     0.00011675093655
    3     0.00276042189306
    4     0.00002719292221
    5     0.01128889086889
    6     0.01117758597483
    7     0.05912979253135
    8     0.05933371625008
    9     0.83619873375222
   10     0.00004616350429
   11     0.00003612978457
   12     0.00004118220443
   13     0.00001277517394
   14     0.00000192084242
   15     0.00000154369847
   16     0.00000834837412
   17     0.00023612375865
   18     0.00022831817612
   19     0.00518515103273
   20     0.00520089603851
   21     0.00000000000000



  Atomic Valences: 

 #  #
 Irrep: 1
      1:  4.4557152
      2:  4.4608583
      3:  4.7349910
      4:  4.1804925
      5:  4.4863909
      6:  4.4983698
      7:  4.4566455
      8:  4.4567138
      9:  4.4557781
     10:  0.9944496
     11:  0.9885613
     12:  1.0021454
     13:  0.9948754
     14:  1.0007406
     15:  1.0025198
     16:  1.0008239
     17:  0.9898869
     18:  0.9936798
     19:  0.9913345
     20:  0.9914406
     21:  0.9913729


    Psi4 stopped on: Wednesday, 02 June 2021 12:58AM
    Psi4 wall time for execution: 0:00:19.83

*** Psi4 exiting successfully. Buy a developer a beer!
