
    -----------------------------------------------------------------------
          Psi4: An Open-Source Ab Initio Electronic Structure Package
                               Psi4 1.3.2 release

                         Git: Rev {HEAD} ecbda83 


    R. M. Parrish, L. A. Burns, D. G. A. Smith, A. C. Simmonett,
    A. E. DePrince III, E. G. Hohenstein, U. Bozkaya, A. Yu. Sokolov,
    R. Di Remigio, R. M. Richard, J. F. Gonthier, A. M. James,
    H. R. McAlexander, A. Kumar, M. Saitow, X. Wang, B. P. Pritchard,
    P. Verma, H. F. Schaefer III, K. Patkowski, R. A. King, E. F. Valeev,
    F. A. Evangelista, J. M. Turney, T. D. Crawford, and C. D. Sherrill,
    J. Chem. Theory Comput. 13(7) pp 3185--3197 (2017).
    (doi: 10.1021/acs.jctc.7b00174)


                         Additional Contributions by
    P. Kraus, H. Kruse, M. H. Lechner, M. C. Schieber, R. A. Shaw,
    A. Alenaizan, R. Galvelis, Z. L. Glick, S. Lehtola, and J. P. Misiewicz

    -----------------------------------------------------------------------


    Psi4 started on: Wednesday, 02 June 2021 01:01AM

    Process ID: 81032
    Host:       daniele-Precision-5750
    PSIDATADIR: /home/daniele/anaconda3/envs/poltype/share/psi4
    Memory:     500.0 MiB
    Threads:    1
    
  ==> Input File <==

--------------------------------------------------------------------------
molecule { 
0 1
 C   -1.337044   -0.798685    0.070692
 C   -2.449889    0.233688    0.272284
 C    0.083838   -0.265102   -0.007260
 C   -3.834449   -0.416188    0.331962
 C    0.389827    1.098110    0.019441
 C    1.138311   -1.173578   -0.164472
 C    1.709316    1.538094   -0.088675
 C    2.454856   -0.739342   -0.273617
 C    2.746496    0.623210   -0.234836
 H   -1.545510   -1.359053   -0.847587
 H   -1.390030   -1.530790    0.884257
 H   -2.268041    0.792610    1.195012
 H   -2.428806    0.959530   -0.545821
 H   -3.898530   -1.125127    1.160698
 H   -4.616549    0.332248    0.470219
 H   -4.050366   -0.960605   -0.590223
 H   -0.396938    1.830081    0.130499
 H    0.920185   -2.234275   -0.198705
 H    1.923056    2.598180   -0.060793
 H    3.251638   -1.461609   -0.391188
 H    3.768705    0.965652   -0.319532
}
memory 700MB
set_num_threads(8)
psi4_io.set_default_path("/home/daniele/PSI4_sctatch/Psi4-propbenzene")
set freeze_core True
E, wfn = energy('wb97x-d/6-311+G*',return_wfn=True)
oeprop(wfn,"WIBERG_LOWDIN_INDICES")
clean()
--------------------------------------------------------------------------

  Memory set to 667.572 MiB by Python driver.
  Threads set to 8 by Python driver.

*** tstart() called on daniele-Precision-5750
*** at Wed Jun  2 01:01:57 2021

   => Loading Basis Set <=

    Name: 6-311+G*
    Role: ORBITAL
    Keyword: BASIS
    atoms 1-9   entry C          line   130 file /home/daniele/anaconda3/envs/poltype/share/psi4/basis/6-311pgs.gbs 
    atoms 10-21 entry H          line    47 file /home/daniele/anaconda3/envs/poltype/share/psi4/basis/6-311pgs.gbs 


         ---------------------------------------------------------
                                   SCF
               by Justin Turney, Rob Parrish, Andy Simmonett
                          and Daniel G. A. Smith
                              RKS Reference
                        8 Threads,    667 MiB Core
         ---------------------------------------------------------

  ==> Geometry <==

    Molecular point group: c1
    Full point group: C1

    Geometry (in Angstrom), charge = 0, multiplicity = 1:

       Center              X                  Y                   Z               Mass       
    ------------   -----------------  -----------------  -----------------  -----------------
         C           -1.337043884454    -0.798684912570     0.070691970687    12.000000000000
         C           -2.449888884454     0.233688087430     0.272283970687    12.000000000000
         C            0.083838115546    -0.265101912570    -0.007260029313    12.000000000000
         C           -3.834448884454    -0.416187912570     0.331961970687    12.000000000000
         C            0.389827115546     1.098110087430     0.019440970687    12.000000000000
         C            1.138311115546    -1.173577912570    -0.164472029313    12.000000000000
         C            1.709316115546     1.538094087430    -0.088675029313    12.000000000000
         C            2.454856115546    -0.739341912570    -0.273617029313    12.000000000000
         C            2.746496115546     0.623210087430    -0.234836029313    12.000000000000
         H           -1.545509884454    -1.359052912570    -0.847587029313     1.007825032230
         H           -1.390029884454    -1.530789912570     0.884256970687     1.007825032230
         H           -2.268040884454     0.792610087430     1.195011970687     1.007825032230
         H           -2.428805884454     0.959530087430    -0.545821029313     1.007825032230
         H           -3.898529884454    -1.125126912570     1.160697970687     1.007825032230
         H           -4.616548884454     0.332248087430     0.470218970687     1.007825032230
         H           -4.050365884454    -0.960604912570    -0.590223029313     1.007825032230
         H           -0.396937884454     1.830081087430     0.130498970687     1.007825032230
         H            0.920185115546    -2.234274912570    -0.198705029313     1.007825032230
         H            1.923056115546     2.598180087430    -0.060793029313     1.007825032230
         H            3.251638115546    -1.461608912570    -0.391188029313     1.007825032230
         H            3.768705115546     0.965652087430    -0.319532029313     1.007825032230

  Running in c1 symmetry.

  Rotational constants: A =      0.15661  B =      0.02815  C =      0.02418 [cm^-1]
  Rotational constants: A =   4695.14063  B =    843.93938  C =    724.96858 [MHz]
  Nuclear repulsion =  410.354617654877529

  Charge       = 0
  Multiplicity = 1
  Electrons    = 66
  Nalpha       = 33
  Nbeta        = 33

  ==> Algorithm <==

  SCF Algorithm Type is DF.
  DIIS enabled.
  MOM disabled.
  Fractional occupation disabled.
  Guess Type is SAD.
  Energy threshold   = 1.00e-06
  Density threshold  = 1.00e-06
  Integral threshold = 0.00e+00

  ==> Primary Basis <==

  Basis Set: 6-311+G*
    Blend: 6-311+G*
    Number of shells: 126
    Number of basis function: 234
    Number of Cartesian functions: 243
    Spherical Harmonics?: true
    Max angular momentum: 2

  ==> DFT Potential <==

   => Composite Functional: WB97X-D <= 

    wB97X-D Hyb-GGA Exchange-Correlation Functional

    J.-D. Chai and M. Head-Gordon, Phys. Chem. Chem. Phys. 10, 6615 (2008)

    Deriv               =              1
    GGA                 =           TRUE
    Meta                =          FALSE

    Exchange Hybrid     =           TRUE
    MP2 Hybrid          =          FALSE

   => Exchange-Correlation Functionals <=

    1.0000   wB97D range-separated functional

   => Exact (HF) Exchange <=

    0.7780            HF,LR [omega = 0.2000]
    0.2220               HF 

   => Molecular Quadrature <=

    Radial Scheme          =       TREUTLER
    Pruning Scheme         =           FLAT
    Nuclear Scheme         =       TREUTLER

    BS radius alpha        =              1
    Pruning alpha          =              1
    Radial Points          =             75
    Spherical Points       =            302
    Total Points           =         475650
    Total Blocks           =           3481
    Max Points             =            256
    Max Functions          =            219

   => WB97X-D: Empirical Dispersion <=

    Chai and Head-Gordon Dispersion Correction
    Chai, J.-D.; Head-Gordon, M. (2010), J. Chem. Phys., 132: 6615-6620

        s6 =       1.000000

   => Loading Basis Set <=

    Name: (6-311+G* AUX)
    Role: JKFIT
    Keyword: DF_BASIS_SCF
    atoms 1-9   entry C          line   200 file /home/daniele/anaconda3/envs/poltype/share/psi4/basis/heavy-aug-cc-pvtz-jkfit.gbs 
    atoms 10-21 entry H          line   116 file /home/daniele/anaconda3/envs/poltype/share/psi4/basis/heavy-aug-cc-pvtz-jkfit.gbs 

  ==> Pre-Iterations <==

   -------------------------------------------------------
    Irrep   Nso     Nmo     Nalpha   Nbeta   Ndocc  Nsocc
   -------------------------------------------------------
     A        234     234       0       0       0       0
   -------------------------------------------------------
    Total     234     234      33      33      33       0
   -------------------------------------------------------

  ==> Integral Setup <==

  ==> DiskDFJK: Density-Fitted J/K Matrices <==

    J tasked:                  Yes
    K tasked:                  Yes
    wK tasked:                 Yes
    Omega:               2.000E-01
    OpenMP threads:              8
    Integrals threads:           8
    Memory [MiB]:              296
    Algorithm:                Disk
    Integral Cache:           NONE
    Schwarz Cutoff:          1E-12
    Fitting Condition:       1E-10

   => Auxiliary Basis Set <=

  Basis Set: (6-311+G* AUX)
    Blend: HEAVY-AUG-CC-PVTZ-JKFIT
    Number of shells: 390
    Number of basis function: 1296
    Number of Cartesian functions: 1599
    Spherical Harmonics?: true
    Max angular momentum: 4

  Cached 10.0% of DFT collocation blocks in 0.217 [GiB].

  Minimum eigenvalue in the overlap matrix is 1.5564304847E-06.
  Using Symmetric Orthogonalization.

  SCF Guess: Superposition of Atomic Densities via on-the-fly atomic UHF.

  ==> Iterations <==

                           Total Energy        Delta E     RMS |[F,P]|

   @DF-RKS iter SAD:  -349.48956463954687   -3.49490e+02   0.00000e+00 
   @DF-RKS iter   1:  -349.62574224734863   -1.36178e-01   4.15335e-03 DIIS
   @DF-RKS iter   2:  -349.86974573015141   -2.44003e-01   3.13579e-03 DIIS
   @DF-RKS iter   3:  -350.14225452809006   -2.72509e-01   2.01932e-04 DIIS
   @DF-RKS iter   4:  -350.14342888300155   -1.17435e-03   1.04260e-04 DIIS
   @DF-RKS iter   5:  -350.14370933585826   -2.80453e-04   4.25690e-05 DIIS
   @DF-RKS iter   6:  -350.14375966773019   -5.03319e-05   8.32831e-06 DIIS
   @DF-RKS iter   7:  -350.14376173112555   -2.06340e-06   2.80614e-06 DIIS
   @DF-RKS iter   8:  -350.14376199790991   -2.66784e-07   5.72305e-07 DIIS
  Energy and wave function converged.


  ==> Post-Iterations <==

    Orbital Energies [Eh]
    ---------------------

    Doubly Occupied:                                                      

       1A    -10.295676     2A    -10.286052     3A    -10.285674  
       4A    -10.284870     5A    -10.283461     6A    -10.283093  
       7A    -10.283070     8A    -10.281175     9A    -10.271484  
      10A     -0.960917    11A     -0.900023    12A     -0.849178  
      13A     -0.844031    14A     -0.776971    15A     -0.712139  
      16A     -0.690384    17A     -0.665245    18A     -0.606602  
      19A     -0.560118    20A     -0.546380    21A     -0.540589  
      22A     -0.518711    23A     -0.505605    24A     -0.487975  
      25A     -0.483766    26A     -0.450453    27A     -0.445293  
      28A     -0.435251    29A     -0.418145    30A     -0.413732  
      31A     -0.407374    32A     -0.327985    33A     -0.317684  

    Virtual:                                                              

      34A      0.055829    35A      0.061159    36A      0.063987  
      37A      0.072051    38A      0.075361    39A      0.090203  
      40A      0.092952    41A      0.095696    42A      0.103658  
      43A      0.115781    44A      0.118186    45A      0.122461  
      46A      0.130659    47A      0.131960    48A      0.148499  
      49A      0.150144    50A      0.155511    51A      0.164709  
      52A      0.177285    53A      0.183832    54A      0.189529  
      55A      0.194873    56A      0.203055    57A      0.211962  
      58A      0.213207    59A      0.219247    60A      0.220170  
      61A      0.224225    62A      0.235167    63A      0.239658  
      64A      0.257113    65A      0.258656    66A      0.260369  
      67A      0.262344    68A      0.266741    69A      0.267937  
      70A      0.275416    71A      0.281728    72A      0.287785  
      73A      0.290489    74A      0.295390    75A      0.301154  
      76A      0.308362    77A      0.313258    78A      0.319181  
      79A      0.322241    80A      0.333480    81A      0.335957  
      82A      0.340924    83A      0.347961    84A      0.356635  
      85A      0.367464    86A      0.386902    87A      0.393567  
      88A      0.406740    89A      0.431639    90A      0.441317  
      91A      0.461606    92A      0.483451    93A      0.510867  
      94A      0.526401    95A      0.548980    96A      0.575520  
      97A      0.600417    98A      0.604073    99A      0.614911  
     100A      0.617109   101A      0.632099   102A      0.635213  
     103A      0.638046   104A      0.648721   105A      0.660977  
     106A      0.685876   107A      0.692164   108A      0.701124  
     109A      0.708327   110A      0.721197   111A      0.728984  
     112A      0.732074   113A      0.741873   114A      0.753225  
     115A      0.763769   116A      0.768111   117A      0.772496  
     118A      0.782729   119A      0.784506   120A      0.796140  
     121A      0.821457   122A      0.830748   123A      0.842596  
     124A      0.847792   125A      0.872026   126A      0.889003  
     127A      0.914607   128A      0.923400   129A      0.933815  
     130A      0.948459   131A      0.963425   132A      0.987136  
     133A      0.991203   134A      1.019361   135A      1.028032  
     136A      1.090096   137A      1.098787   138A      1.122644  
     139A      1.124052   140A      1.131748   141A      1.169967  
     142A      1.202820   143A      1.274066   144A      1.292140  
     145A      1.314561   146A      1.322862   147A      1.368146  
     148A      1.402849   149A      1.470483   150A      1.495121  
     151A      1.569471   152A      1.574984   153A      1.610050  
     154A      1.627961   155A      1.638555   156A      1.645240  
     157A      1.664241   158A      1.668861   159A      1.686063  
     160A      1.763719   161A      1.783695   162A      1.806775  
     163A      1.821312   164A      1.859451   165A      1.865501  
     166A      1.900427   167A      1.905041   168A      1.930816  
     169A      1.948637   170A      1.956837   171A      2.023598  
     172A      2.026693   173A      2.049569   174A      2.094591  
     175A      2.099363   176A      2.153607   177A      2.167172  
     178A      2.199980   179A      2.276591   180A      2.372724  
     181A      2.383333   182A      2.418131   183A      2.424278  
     184A      2.450007   185A      2.494251   186A      2.515398  
     187A      2.588899   188A      2.592433   189A      2.619490  
     190A      2.630574   191A      2.651453   192A      2.666026  
     193A      2.729594   194A      2.765042   195A      2.770359  
     196A      2.825909   197A      2.880890   198A      2.885161  
     199A      2.903753   200A      2.990114   201A      3.001228  
     202A      3.010686   203A      3.110163   204A      3.177960  
     205A      3.181934   206A      3.218861   207A      3.248240  
     208A      3.287557   209A      3.292936   210A      3.336291  
     211A      3.347417   212A      3.414045   213A      3.418521  
     214A      3.428925   215A      3.443928   216A      3.549562  
     217A      3.659733   218A      3.737950   219A      3.766710  
     220A      3.833186   221A      3.998441   222A      4.088860  
     223A      4.135223   224A      4.392768   225A      4.899689  
     226A     23.431635   227A     23.658581   228A     23.814254  
     229A     23.888656   230A     23.982153   231A     24.008850  
     232A     24.173391   233A     24.186966   234A     24.287763  

    Final Occupation by Irrep:
              A 
    DOCC [    33 ]

  @DF-RKS Final Energy:  -350.14376199790991

   => Energetics <=

    Nuclear Repulsion Energy =            410.3546176548775293
    One-Electron Energy =               -1283.5045995845703146
    Two-Electron Energy =                 559.4246974457128090
    DFT Exchange-Correlation Energy =     -36.4068334737151531
    Empirical Dispersion Energy =          -0.0116440402148891
    VV10 Nonlocal Energy =                  0.0000000000000000
    Total Energy =                       -350.1437619979100191

Computation Completed


Properties will be evaluated at   0.000000,   0.000000,   0.000000 [a0]

Properties computed using the SCF density matrix

  Nuclear Dipole Moment: [e a0]
     X:   -10.0602      Y:    -1.1185      Z:     0.8314

  Electronic Dipole Moment: [e a0]
     X:     9.8698      Y:     1.0736      Z:    -0.8274

  Dipole Moment: [e a0]
     X:    -0.1903      Y:    -0.0449      Z:     0.0040     Total:     0.1956

  Dipole Moment: [D]
     X:    -0.4837      Y:    -0.1141      Z:     0.0100     Total:     0.4971


*** tstop() called on daniele-Precision-5750 at Wed Jun  2 01:02:17 2021
Module time:
	user time   =     148.59 seconds =       2.48 minutes
	system time =       4.88 seconds =       0.08 minutes
	total time  =         20 seconds =       0.33 minutes
Total time:
	user time   =     148.59 seconds =       2.48 minutes
	system time =       4.88 seconds =       0.08 minutes
	total time  =         20 seconds =       0.33 minutes


Properties will be evaluated at   0.000000,   0.000000,   0.000000 [a0]
OEProp: No title given, name of density matrix used for the following properties is 'SCF density'


  Wiberg Bond Indices using Orthogonal Lowdin Orbitals:

  Irrep: 1 Size: 21 x 21

                 1                   2                   3                   4                   5

    1     0.00000000000000     1.13924007014985     1.08033990741033     0.11450304950769     0.11080304989062
    2     1.13924007014985     0.00000000000000     0.09480602505963     1.20132908905777     0.05712067349202
    3     1.08033990741033     0.09480602505963     0.00000000000000     0.01786536368899     1.45156119582309
    4     0.11450304950769     1.20132908905777     0.01786536368899     0.00000000000000     0.00635349476893
    5     0.11080304989062     0.05712067349202     1.45156119582309     0.00635349476893     0.00000000000000
    6     0.12900791509478     0.01670624164555     1.43420253242080     0.00271564533511     0.13349544194171
    7     0.01649800829372     0.00587814432690     0.13348417910021     0.00069368487537     1.50902762424255
    8     0.01841855217330     0.00312219814868     0.13392668807498     0.00061884208824     0.14459568588023
    9     0.00879698834730     0.00193101748563     0.14063991466559     0.00037755874617     0.13758762750282
   10     0.84021962917556     0.03633982325288     0.04188486922563     0.01297470467346     0.01406009314736
   11     0.84153835546325     0.03646368501650     0.04219164326949     0.01296349371569     0.01309624681144
   12     0.03811086745385     0.85925722315565     0.01092854145113     0.03827345188492     0.01066173665408
   13     0.03814404124004     0.85879626691476     0.01065935372914     0.03829328705803     0.01163400794989
   14     0.01463820993741     0.04246531379854     0.00122502600597     0.90833013418305     0.00073133607489
   15     0.01187675162479     0.04772056178803     0.00138758816014     0.91463297812096     0.00026197744456
   16     0.01481262840490     0.04234248025959     0.00126804600354     0.90820950903142     0.00072250827720
   17     0.01467683446680     0.01770153965948     0.05487696903668     0.00159054791222     0.81516023092483
   18     0.01967449690314     0.00147513186891     0.05683329504825     0.00016784841599     0.01047575065526
   19     0.00109106409016     0.00029113365567     0.01046380399458     0.00008073061907     0.05965027338941
   20     0.00108315874258     0.00033334190102     0.01064347822960     0.00008387912697     0.00250199626689
   21     0.00034134843986     0.00012513017605     0.00274847563469     0.00003272635228     0.01120334085506

                 6                   7                   8                   9                  10

    1     0.12900791509478     0.01649800829372     0.01841855217330     0.00879698834730     0.84021962917556
    2     0.01670624164555     0.00587814432690     0.00312219814868     0.00193101748563     0.03633982325288
    3     1.43420253242080     0.13348417910021     0.13392668807498     0.14063991466559     0.04188486922563
    4     0.00271564533511     0.00069368487537     0.00061884208824     0.00037755874617     0.01297470467346
    5     0.13349544194171     1.50902762424255     0.14459568588023     0.13758762750282     0.01406009314736
    6     0.00000000000000     0.14928199990384     1.53938221982965     0.13818930401499     0.01690401672087
    7     0.14928199990384     0.00000000000000     0.13828597150705     1.53488703494634     0.00089776557395
    8     1.53938221982965     0.13828597150705     0.00000000000000     1.50986893974379     0.00132304150584
    9     0.13818930401499     1.53488703494634     1.50986893974379     0.00000000000000     0.00364564508747
   10     0.01690401672087     0.00089776557395     0.00132304150584     0.00364564508747     0.00000000000000
   11     0.01685798638076     0.00091289193551     0.00127855908073     0.00332172370109     0.00591931584679
   12     0.00098803004568     0.00084564122680     0.00033881679429     0.00030972181737     0.00830954196317
   13     0.00092646014547     0.00093854354012     0.00031793709600     0.00032654723045     0.00446101807002
   14     0.00018717107577     0.00011886439514     0.00005902477326     0.00006762447131     0.00054104116427
   15     0.00036915053517     0.00003839135175     0.00008583725950     0.00002166826762     0.00036265568633
   16     0.00019618539067     0.00011793930619     0.00006269532721     0.00007233845143     0.00122981154879
   17     0.01016414962353     0.05609975337350     0.00228302419671     0.01048815375962     0.00004067777660
   18     0.82146806472868     0.00245380305681     0.05722959125401     0.01098298650086     0.00076869384257
   19     0.00247980211231     0.83503451795269     0.01150363134659     0.05922146112077     0.00015411785905
   20     0.06036040736652     0.01134392487197     0.83489864531432     0.05886829595382     0.00004955022485
   21     0.01127415606569     0.05941717088827     0.05906204591868     0.83617958864962     0.00004251495915

                11                  12                  13                  14                  15

    1     0.84153835546325     0.03811086745385     0.03814404124004     0.01463820993741     0.01187675162479
    2     0.03646368501650     0.85925722315565     0.85879626691476     0.04246531379854     0.04772056178803
    3     0.04219164326949     0.01092854145113     0.01065935372914     0.00122502600597     0.00138758816014
    4     0.01296349371569     0.03827345188492     0.03829328705803     0.90833013418305     0.91463297812096
    5     0.01309624681144     0.01066173665408     0.01163400794989     0.00073133607489     0.00026197744456
    6     0.01685798638076     0.00098803004568     0.00092646014547     0.00018717107577     0.00036915053517
    7     0.00091289193551     0.00084564122680     0.00093854354012     0.00011886439514     0.00003839135175
    8     0.00127855908073     0.00033881679429     0.00031793709600     0.00005902477326     0.00008583725950
    9     0.00332172370109     0.00030972181737     0.00032654723045     0.00006762447131     0.00002166826762
   10     0.00591931584679     0.00830954196317     0.00446101807002     0.00054104116427     0.00036265568633
   11     0.00000000000000     0.00435863700784     0.00843558104928     0.00119688866438     0.00036411336406
   12     0.00435863700784     0.00000000000000     0.00664900666109     0.00373687445149     0.00308314263074
   13     0.00843558104928     0.00664900666109     0.00000000000000     0.00971464227868     0.00318334203296
   14     0.00119688866438     0.00373687445149     0.00971464227868     0.00000000000000     0.00948086035554
   15     0.00036411336406     0.00308314263074     0.00318334203296     0.00948086035554     0.00000000000000
   16     0.00055723233549     0.00976151715120     0.00373498269872     0.00797927095798     0.00948021557009
   17     0.00008493861870     0.00161906952901     0.00213426748440     0.00018557194139     0.00006821431351
   18     0.00088604168195     0.00010401562285     0.00011860201520     0.00002082149142     0.00005991049824
   19     0.00019000919616     0.00003444160850     0.00003713081192     0.00000671354406     0.00001033721987
   20     0.00005274613861     0.00003428904079     0.00003757078330     0.00000618564558     0.00002114397962
   21     0.00004586957523     0.00002869616784     0.00003223207838     0.00000503574470     0.00000192115567

                16                  17                  18                  19                  20

    1     0.01481262840490     0.01467683446680     0.01967449690314     0.00109106409016     0.00108315874258
    2     0.04234248025959     0.01770153965948     0.00147513186891     0.00029113365567     0.00033334190102
    3     0.00126804600354     0.05487696903668     0.05683329504825     0.01046380399458     0.01064347822960
    4     0.90820950903142     0.00159054791222     0.00016784841599     0.00008073061907     0.00008387912697
    5     0.00072250827720     0.81516023092483     0.01047575065526     0.05965027338941     0.00250199626689
    6     0.00019618539067     0.01016414962353     0.82146806472868     0.00247980211231     0.06036040736652
    7     0.00011793930619     0.05609975337350     0.00245380305681     0.83503451795269     0.01134392487197
    8     0.00006269532721     0.00228302419671     0.05722959125401     0.01150363134659     0.83489864531432
    9     0.00007233845143     0.01048815375962     0.01098298650086     0.05922146112077     0.05886829595382
   10     0.00122981154879     0.00004067777660     0.00076869384257     0.00015411785905     0.00004955022485
   11     0.00055723233549     0.00008493861870     0.00088604168195     0.00019000919616     0.00005274613861
   12     0.00976151715120     0.00161906952901     0.00010401562285     0.00003444160850     0.00003428904079
   13     0.00373498269872     0.00213426748440     0.00011860201520     0.00003713081192     0.00003757078330
   14     0.00797927095798     0.00018557194139     0.00002082149142     0.00000671354406     0.00000618564558
   15     0.00948021557009     0.00006821431351     0.00005991049824     0.00001033721987     0.00002114397962
   16     0.00000000000000     0.00013969383934     0.00002182585104     0.00000633419168     0.00000624688746
   17     0.00013969383934     0.00000000000000     0.00033389731363     0.00542732750075     0.00028798922765
   18     0.00002182585104     0.00033389731363     0.00000000000000     0.00027731765678     0.00532890638834
   19     0.00000633419168     0.00542732750075     0.00027731765678     0.00000000000000     0.00026248918967
   20     0.00000624688746     0.00028798922765     0.00532890638834     0.00026248918967     0.00000000000000
   21     0.00000434787236     0.00023011371230     0.00023534589789     0.00522060059082     0.00516657020628

                21

    1     0.00034134843986
    2     0.00012513017605
    3     0.00274847563469
    4     0.00003272635228
    5     0.01120334085506
    6     0.01127415606569
    7     0.05941717088827
    8     0.05906204591868
    9     0.83617958864962
   10     0.00004251495915
   11     0.00004586957523
   12     0.00002869616784
   13     0.00003223207838
   14     0.00000503574470
   15     0.00000192115567
   16     0.00000434787236
   17     0.00023011371230
   18     0.00023534589789
   19     0.00522060059082
   20     0.00516657020628
   21     0.00000000000000



  Atomic Valences: 

 #  #
 Irrep: 1
      1:  4.4538149
      2:  4.4634451
      3:  4.7319369
      4:  4.1800900
      5:  4.5007043
      6:  4.4851569
      7:  4.4562559
      8:  4.4566619
      9:  4.4557841
     10:  0.9901285
     11:  0.9907160
     12:  0.9974333
     13:  0.9985748
     14:  1.0006966
     15:  1.0025108
     16:  1.0007258
     17:  0.9935930
     18:  0.9889163
     19:  0.9914432
     20:  0.9913708
     21:  0.9913972


    Psi4 stopped on: Wednesday, 02 June 2021 01:02AM
    Psi4 wall time for execution: 0:00:20.19

*** Psi4 exiting successfully. Buy a developer a beer!
