
    -----------------------------------------------------------------------
          Psi4: An Open-Source Ab Initio Electronic Structure Package
                               Psi4 1.3.2 release

                         Git: Rev {HEAD} ecbda83 


    R. M. Parrish, L. A. Burns, D. G. A. Smith, A. C. Simmonett,
    A. E. DePrince III, E. G. Hohenstein, U. Bozkaya, A. Yu. Sokolov,
    R. Di Remigio, R. M. Richard, J. F. Gonthier, A. M. James,
    H. R. McAlexander, A. Kumar, M. Saitow, X. Wang, B. P. Pritchard,
    P. Verma, H. F. Schaefer III, K. Patkowski, R. A. King, E. F. Valeev,
    F. A. Evangelista, J. M. Turney, T. D. Crawford, and C. D. Sherrill,
    J. Chem. Theory Comput. 13(7) pp 3185--3197 (2017).
    (doi: 10.1021/acs.jctc.7b00174)


                         Additional Contributions by
    P. Kraus, H. Kruse, M. H. Lechner, M. C. Schieber, R. A. Shaw,
    A. Alenaizan, R. Galvelis, Z. L. Glick, S. Lehtola, and J. P. Misiewicz

    -----------------------------------------------------------------------


    Psi4 started on: Wednesday, 02 June 2021 12:25AM

    Process ID: 78427
    Host:       daniele-Precision-5750
    PSIDATADIR: /home/daniele/anaconda3/envs/poltype/share/psi4
    Memory:     500.0 MiB
    Threads:    1
    
  ==> Input File <==

--------------------------------------------------------------------------
molecule { 
0 1
 C   -1.384709   -0.311678    1.180379
 C   -2.559575    0.246343    0.329373
 C   -0.015763   -0.076697    0.527049
 C   -3.130956   -0.763752   -0.685942
 C    0.690050    1.132136    0.738927
 C    0.546313   -1.047421   -0.335851
 C    1.935833    1.354559    0.120541
 C    1.791308   -0.823721   -0.954959
 C    2.488251    0.375915   -0.724925
 H   -1.532660   -1.375529    1.407601
 H   -1.390074    0.182933    2.161060
 H   -3.366026    0.548797    1.011414
 H   -2.253212    1.173608   -0.172949
 H   -3.518317   -1.656485   -0.183294
 H   -3.954170   -0.317228   -1.253691
 H   -2.365983   -1.078369   -1.403705
 H    0.274837    1.904417    1.385133
 H    0.018516   -1.980125   -0.529603
 H    2.472063    2.285309    0.296537
 H    2.215075   -1.580012   -1.613156
 H    3.451432    0.547476   -1.201657
}
set optking { 
  frozen_dihedral = ("
    4 2 1 3
    2 1 3 5
    2 1 3 6
    1 2 4 14
  ")
}
set {
  geom_maxiter 400
  g_convergence GAU_LOOSE
  dynamic_level 1
}
memory 700MB
set_num_threads(8)
psi4_io.set_default_path("/home/daniele/PSI4_sctatch/Psi4-propbenzene")
for _ in range(1):
  try:
    set opt_coordinates both
    optimize('wb97x-d/6-311G')
    break
  except OptimizationConvergenceError:
    break
  else:
    try:
      set opt_coordinates cartesian
      optimize('wb97x-d/6-311G')
      break
    except OptimizationConvergenceError:
      pass
clean()
--------------------------------------------------------------------------

  Memory set to 667.572 MiB by Python driver.
  Threads set to 8 by Python driver.
gradient() will perform analytic gradient computation.

*** tstart() called on daniele-Precision-5750
*** at Wed Jun  2 00:25:01 2021

   => Loading Basis Set <=

    Name: 6-311G
    Role: ORBITAL
    Keyword: BASIS
    atoms 1-9   entry C          line    92 file /home/daniele/anaconda3/envs/poltype/share/psi4/basis/6-311g.gbs 
    atoms 10-21 entry H          line    21 file /home/daniele/anaconda3/envs/poltype/share/psi4/basis/6-311g.gbs 


         ---------------------------------------------------------
                                   SCF
               by Justin Turney, Rob Parrish, Andy Simmonett
                          and Daniel G. A. Smith
                              RKS Reference
                        8 Threads,    667 MiB Core
         ---------------------------------------------------------

  ==> Geometry <==

    Molecular point group: c1
    Full point group: C1

    Geometry (in Angstrom), charge = 0, multiplicity = 1:

       Center              X                  Y                   Z               Mass       
    ------------   -----------------  -----------------  -----------------  -----------------
         C           -1.337268268510    -0.308950748284     1.161743246111    12.000000000000
         C           -2.512134268510     0.249070251716     0.310737246111    12.000000000000
         C            0.031677731490    -0.073969748284     0.508413246111    12.000000000000
         C           -3.083515268510    -0.761024748284    -0.704577753889    12.000000000000
         C            0.737490731490     1.134863251716     0.720291246111    12.000000000000
         C            0.593753731490    -1.044693748284    -0.354486753889    12.000000000000
         C            1.983273731490     1.357286251716     0.101905246111    12.000000000000
         C            1.838748731490    -0.820993748284    -0.973594753889    12.000000000000
         C            2.535691731490     0.378642251716    -0.743560753889    12.000000000000
         H           -1.485219268510    -1.372801748284     1.388965246111     1.007825032230
         H           -1.342633268510     0.185660251716     2.142424246111     1.007825032230
         H           -3.318585268510     0.551524251716     0.992778246111     1.007825032230
         H           -2.205771268510     1.176335251716    -0.191584753889     1.007825032230
         H           -3.470876268510    -1.653757748284    -0.201929753889     1.007825032230
         H           -3.906729268510    -0.314500748284    -1.272326753889     1.007825032230
         H           -2.318542268510    -1.075641748284    -1.422340753889     1.007825032230
         H            0.322277731490     1.907144251716     1.366497246111     1.007825032230
         H            0.065956731490    -1.977397748284    -0.548238753889     1.007825032230
         H            2.519503731490     2.288036251716     0.277901246111     1.007825032230
         H            2.262515731490    -1.577284748284    -1.631791753889     1.007825032230
         H            3.498872731490     0.550203251716    -1.220292753889     1.007825032230

  Running in c1 symmetry.

  Rotational constants: A =      0.11408  B =      0.03286  C =      0.02844 [cm^-1]
  Rotational constants: A =   3420.02510  B =    985.10165  C =    852.70142 [MHz]
  Nuclear repulsion =  412.246359133884596

  Charge       = 0
  Multiplicity = 1
  Electrons    = 66
  Nalpha       = 33
  Nbeta        = 33

  ==> Algorithm <==

  SCF Algorithm Type is DF.
  DIIS enabled.
  MOM disabled.
  Fractional occupation disabled.
  Guess Type is SAD.
  Energy threshold   = 1.00e-08
  Density threshold  = 1.00e-08
  Integral threshold = 0.00e+00

  ==> Primary Basis <==

  Basis Set: 6-311G
    Blend: 6-311G
    Number of shells: 99
    Number of basis function: 153
    Number of Cartesian functions: 153
    Spherical Harmonics?: true
    Max angular momentum: 1

  ==> DFT Potential <==

   => Composite Functional: WB97X-D <= 

    wB97X-D Hyb-GGA Exchange-Correlation Functional

    J.-D. Chai and M. Head-Gordon, Phys. Chem. Chem. Phys. 10, 6615 (2008)

    Deriv               =              1
    GGA                 =           TRUE
    Meta                =          FALSE

    Exchange Hybrid     =           TRUE
    MP2 Hybrid          =          FALSE

   => Exchange-Correlation Functionals <=

    1.0000   wB97D range-separated functional

   => Exact (HF) Exchange <=

    0.7780            HF,LR [omega = 0.2000]
    0.2220               HF 

   => Molecular Quadrature <=

    Radial Scheme          =       TREUTLER
    Pruning Scheme         =           FLAT
    Nuclear Scheme         =       TREUTLER

    BS radius alpha        =              1
    Pruning alpha          =              1
    Radial Points          =             75
    Spherical Points       =            302
    Total Points           =         470087
    Total Blocks           =           3471
    Max Points             =            256
    Max Functions          =            141

   => WB97X-D: Empirical Dispersion <=

    Chai and Head-Gordon Dispersion Correction
    Chai, J.-D.; Head-Gordon, M. (2010), J. Chem. Phys., 132: 6615-6620

        s6 =       1.000000

   => Loading Basis Set <=

    Name: (6-311G AUX)
    Role: JKFIT
    Keyword: DF_BASIS_SCF
    atoms 1-9   entry C          line   125 file /home/daniele/anaconda3/envs/poltype/share/psi4/basis/cc-pvtz-jkfit.gbs 
    atoms 10-21 entry H          line    51 file /home/daniele/anaconda3/envs/poltype/share/psi4/basis/cc-pvtz-jkfit.gbs 

  ==> Pre-Iterations <==

   -------------------------------------------------------
    Irrep   Nso     Nmo     Nalpha   Nbeta   Ndocc  Nsocc
   -------------------------------------------------------
     A        153     153       0       0       0       0
   -------------------------------------------------------
    Total     153     153      33      33      33       0
   -------------------------------------------------------

  ==> Integral Setup <==

  ==> DiskDFJK: Density-Fitted J/K Matrices <==

    J tasked:                  Yes
    K tasked:                  Yes
    wK tasked:                 Yes
    Omega:               2.000E-01
    OpenMP threads:              8
    Integrals threads:           8
    Memory [MiB]:              115
    Algorithm:                Disk
    Integral Cache:           NONE
    Schwarz Cutoff:          1E-12
    Fitting Condition:       1E-10

   => Auxiliary Basis Set <=

  Basis Set: (6-311G AUX)
    Blend: CC-PVTZ-JKFIT
    Number of shells: 345
    Number of basis function: 1071
    Number of Cartesian functions: 1284
    Spherical Harmonics?: true
    Max angular momentum: 4

  Cached 33.3% of DFT collocation blocks in 0.447 [GiB].

  Minimum eigenvalue in the overlap matrix is 2.7536368376E-04.
  Using Symmetric Orthogonalization.

  SCF Guess: Superposition of Atomic Densities via on-the-fly atomic UHF.

  ==> Iterations <==

                           Total Energy        Delta E     RMS |[F,P]|

   @DF-RKS iter SAD:  -349.22637614025302   -3.49226e+02   0.00000e+00 
   @DF-RKS iter   1:  -349.71391421076902   -4.87538e-01   5.15726e-03 DIIS
   @DF-RKS iter   2:  -349.89688412354587   -1.82970e-01   3.65781e-03 DIIS
   @DF-RKS iter   3:  -350.06000769712011   -1.63124e-01   2.49073e-04 DIIS
   @DF-RKS iter   4:  -350.06077206323704   -7.64366e-04   1.56599e-04 DIIS
   @DF-RKS iter   5:  -350.06107901523666   -3.06952e-04   3.40836e-05 DIIS
   @DF-RKS iter   6:  -350.06109228828501   -1.32730e-05   1.38973e-05 DIIS
   @DF-RKS iter   7:  -350.06109485524286   -2.56696e-06   1.83100e-06 DIIS
   @DF-RKS iter   8:  -350.06109490986898   -5.46261e-08   7.72031e-07 DIIS
   @DF-RKS iter   9:  -350.06109491780319   -7.93420e-09   1.84166e-07 DIIS
   @DF-RKS iter  10:  -350.06109491848702   -6.83826e-10   5.36430e-08 DIIS
   @DF-RKS iter  11:  -350.06109491854806   -6.10498e-11   2.70668e-08 DIIS
   @DF-RKS iter  12:  -350.06109491856517   -1.71099e-11   7.56150e-09 DIIS
  Energy and wave function converged.


  ==> Post-Iterations <==

    Orbital Energies [Eh]
    ---------------------

    Doubly Occupied:                                                      

       1A    -10.304269     2A    -10.293648     3A    -10.293264  
       4A    -10.291798     5A    -10.291193     6A    -10.290983  
       7A    -10.288270     8A    -10.283812     9A    -10.270853  
      10A     -0.958413    11A     -0.895221    12A     -0.845344  
      13A     -0.844168    14A     -0.778809    15A     -0.703687  
      16A     -0.697538    17A     -0.668273    18A     -0.603496  
      19A     -0.553208    20A     -0.552204    21A     -0.533362  
      22A     -0.517733    23A     -0.508044    24A     -0.485792  
      25A     -0.483596    26A     -0.455340    27A     -0.438156  
      28A     -0.430126    29A     -0.421857    30A     -0.413199  
      31A     -0.400263    32A     -0.327224    33A     -0.316959  

    Virtual:                                                              

      34A      0.061808    35A      0.064697    36A      0.121789  
      37A      0.136875    38A      0.144666    39A      0.159377  
      40A      0.172590    41A      0.174663    42A      0.193640  
      43A      0.199156    44A      0.207984    45A      0.209952  
      46A      0.221283    47A      0.231063    48A      0.248202  
      49A      0.268833    50A      0.305376    51A      0.323992  
      52A      0.353095    53A      0.359578    54A      0.368163  
      55A      0.379535    56A      0.388837    57A      0.403240  
      58A      0.408447    59A      0.424426    60A      0.459451  
      61A      0.479310    62A      0.484847    63A      0.490666  
      64A      0.497485    65A      0.500554    66A      0.520810  
      67A      0.536285    68A      0.544108    69A      0.563899  
      70A      0.572694    71A      0.584806    72A      0.606830  
      73A      0.622090    74A      0.631006    75A      0.641608  
      76A      0.662935    77A      0.671544    78A      0.678717  
      79A      0.686470    80A      0.694627    81A      0.696899  
      82A      0.705326    83A      0.709069    84A      0.715686  
      85A      0.724625    86A      0.736924    87A      0.751588  
      88A      0.757636    89A      0.761302    90A      0.798185  
      91A      0.811191    92A      0.848454    93A      0.864233  
      94A      0.875506    95A      0.916128    96A      0.924759  
      97A      0.927232    98A      0.964582    99A      1.002240  
     100A      1.026150   101A      1.128639   102A      1.140840  
     103A      1.228081   104A      1.259866   105A      1.373764  
     106A      2.297831   107A      2.332217   108A      2.349388  
     109A      2.355724   110A      2.369544   111A      2.373811  
     112A      2.390612   113A      2.407302   114A      2.425304  
     115A      2.434584   116A      2.460719   117A      2.606809  
     118A      2.640107   119A      2.675785   120A      2.703146  
     121A      2.787664   122A      2.795293   123A      2.827947  
     124A      2.844768   125A      2.900617   126A      2.922848  
     127A      2.935253   128A      2.950248   129A      2.959243  
     130A      2.977362   131A      3.023955   132A      3.041609  
     133A      3.082464   134A      3.131191   135A      3.143340  
     136A      3.179058   137A      3.204163   138A      3.222456  
     139A      3.284105   140A      3.304977   141A      3.339720  
     142A      3.375860   143A      3.381623   144A      3.533581  
     145A     23.254395   146A     23.472396   147A     23.483973  
     148A     23.517647   149A     23.677842   150A     23.707672  
     151A     23.748500   152A     23.754060   153A     23.992760  

    Final Occupation by Irrep:
              A 
    DOCC [    33 ]

  @DF-RKS Final Energy:  -350.06109491856517

   => Energetics <=

    Nuclear Repulsion Energy =            412.2463591338845958
    One-Electron Energy =               -1287.1375526070746673
    Two-Electron Energy =                 561.1620003059825876
    DFT Exchange-Correlation Energy =     -36.3199085192796005
    Empirical Dispersion Energy =          -0.0119932320781302
    VV10 Nonlocal Energy =                  0.0000000000000000
    Total Energy =                       -350.0610949185651180

Computation Completed


Properties will be evaluated at   0.000000,   0.000000,   0.000000 [a0]

Properties computed using the SCF density matrix

  Nuclear Dipole Moment: [e a0]
     X:    -8.7927      Y:    -1.2304      Z:    -0.2999

  Electronic Dipole Moment: [e a0]
     X:     8.6410      Y:     1.2532      Z:     0.3281

  Dipole Moment: [e a0]
     X:    -0.1517      Y:     0.0228      Z:     0.0281     Total:     0.1559

  Dipole Moment: [D]
     X:    -0.3856      Y:     0.0578      Z:     0.0715     Total:     0.3964


*** tstop() called on daniele-Precision-5750 at Wed Jun  2 00:25:12 2021
Module time:
	user time   =      79.45 seconds =       1.32 minutes
	system time =       2.42 seconds =       0.04 minutes
	total time  =         11 seconds =       0.18 minutes
Total time:
	user time   =      79.45 seconds =       1.32 minutes
	system time =       2.42 seconds =       0.04 minutes
	total time  =         11 seconds =       0.18 minutes

*** tstart() called on daniele-Precision-5750
*** at Wed Jun  2 00:25:12 2021


         ------------------------------------------------------------
                                   SCF GRAD                          
                          Rob Parrish, Justin Turney,                
                       Andy Simmonett, and Alex Sokolov              
         ------------------------------------------------------------

  ==> Geometry <==

    Molecular point group: c1
    Full point group: C1

    Geometry (in Angstrom), charge = 0, multiplicity = 1:

       Center              X                  Y                   Z               Mass       
    ------------   -----------------  -----------------  -----------------  -----------------
         C           -1.337268268510    -0.308950748284     1.161743246111    12.000000000000
         C           -2.512134268510     0.249070251716     0.310737246111    12.000000000000
         C            0.031677731490    -0.073969748284     0.508413246111    12.000000000000
         C           -3.083515268510    -0.761024748284    -0.704577753889    12.000000000000
         C            0.737490731490     1.134863251716     0.720291246111    12.000000000000
         C            0.593753731490    -1.044693748284    -0.354486753889    12.000000000000
         C            1.983273731490     1.357286251716     0.101905246111    12.000000000000
         C            1.838748731490    -0.820993748284    -0.973594753889    12.000000000000
         C            2.535691731490     0.378642251716    -0.743560753889    12.000000000000
         H           -1.485219268510    -1.372801748284     1.388965246111     1.007825032230
         H           -1.342633268510     0.185660251716     2.142424246111     1.007825032230
         H           -3.318585268510     0.551524251716     0.992778246111     1.007825032230
         H           -2.205771268510     1.176335251716    -0.191584753889     1.007825032230
         H           -3.470876268510    -1.653757748284    -0.201929753889     1.007825032230
         H           -3.906729268510    -0.314500748284    -1.272326753889     1.007825032230
         H           -2.318542268510    -1.075641748284    -1.422340753889     1.007825032230
         H            0.322277731490     1.907144251716     1.366497246111     1.007825032230
         H            0.065956731490    -1.977397748284    -0.548238753889     1.007825032230
         H            2.519503731490     2.288036251716     0.277901246111     1.007825032230
         H            2.262515731490    -1.577284748284    -1.631791753889     1.007825032230
         H            3.498872731490     0.550203251716    -1.220292753889     1.007825032230

  Nuclear repulsion =  412.246359133884596

  ==> Basis Set <==

  Basis Set: 6-311G
    Blend: 6-311G
    Number of shells: 99
    Number of basis function: 153
    Number of Cartesian functions: 153
    Spherical Harmonics?: true
    Max angular momentum: 1

  ==> DFJKGrad: Density-Fitted SCF Gradients <==

    Gradient:                    1
    J tasked:                  Yes
    K tasked:                  Yes
    wK tasked:                 Yes
    Omega:               2.000E-01
    OpenMP threads:              8
    Integrals threads:           8
    Memory [MiB]:              500
    Schwarz Cutoff:          0E+00
    Fitting Condition:       1E-10

   => Auxiliary Basis Set <=

  Basis Set: (6-311G AUX)
    Blend: CC-PVTZ-JKFIT
    Number of shells: 345
    Number of basis function: 1071
    Number of Cartesian functions: 1284
    Spherical Harmonics?: true
    Max angular momentum: 4

  ==> DFT Potential <==

   => Composite Functional: WB97X-D <= 

    wB97X-D Hyb-GGA Exchange-Correlation Functional

    J.-D. Chai and M. Head-Gordon, Phys. Chem. Chem. Phys. 10, 6615 (2008)

    Deriv               =              1
    GGA                 =           TRUE
    Meta                =          FALSE

    Exchange Hybrid     =           TRUE
    MP2 Hybrid          =          FALSE

   => Exchange-Correlation Functionals <=

    1.0000   wB97D range-separated functional

   => Exact (HF) Exchange <=

    0.7780            HF,LR [omega = 0.2000]
    0.2220               HF 

   => Molecular Quadrature <=

    Radial Scheme          =       TREUTLER
    Pruning Scheme         =           FLAT
    Nuclear Scheme         =       TREUTLER

    BS radius alpha        =              1
    Pruning alpha          =              1
    Radial Points          =             75
    Spherical Points       =            302
    Total Points           =         470087
    Total Blocks           =           3471
    Max Points             =            256
    Max Functions          =            141


  -Total Gradient:
     Atom            X                  Y                   Z
    ------   -----------------  -----------------  -----------------
       1       -0.008555554656    -0.008540909013     0.000278768287
       2        0.006386266927     0.003240761645    -0.004346600534
       3        0.000000549191     0.003870002197     0.002809148418
       4       -0.003411513736    -0.004796333529     0.000693043068
       5       -0.005037170498     0.007473867129     0.006382265386
       6       -0.006495524299    -0.008994338539    -0.001379403365
       7        0.006034466407     0.007698779199     0.001259378778
       8        0.004031120454    -0.006530690048    -0.005228905603
       9        0.006112998669     0.001485519187    -0.002784895388
      10       -0.000080034231    -0.001908419411     0.005331319325
      11       -0.000862539450    -0.000973150181     0.003397515751
      12       -0.000964096721     0.002400112512     0.001216425960
      13       -0.001870335291     0.004593801086     0.000127240462
      14       -0.001583227891    -0.001845781630    -0.000093911504
      15       -0.001690254756     0.000938027361    -0.000911293329
      16        0.000818063606    -0.000176312075    -0.001476505286
      17       -0.000258294443     0.004352182217     0.001621931823
      18       -0.001002178362    -0.003922689555    -0.002601472961
      19        0.002499889031     0.003777544502     0.000490682728
      20        0.001995809492    -0.002942089067    -0.002780521114
      21        0.003953636920     0.000789298209    -0.002079368026


*** tstop() called on daniele-Precision-5750 at Wed Jun  2 00:25:17 2021
Module time:
	user time   =      36.62 seconds =       0.61 minutes
	system time =       0.49 seconds =       0.01 minutes
	total time  =          5 seconds =       0.08 minutes
Total time:
	user time   =     116.08 seconds =       1.93 minutes
	system time =       2.91 seconds =       0.05 minutes
	total time  =         16 seconds =       0.27 minutes

			-----------------------------------------
			 OPTKING 2.0: for geometry optimizations 
			  - R.A. King,  Bethel University        
			-----------------------------------------
	At level 1: Red. Int., RFO, no backsteps, dynamic trust

	Internal coordinates to be generated automatically.
	Detected frag 1 with atoms:  1 2 3 4 5 6 7 8 9 10 11 12 13 14 15 16 17 18 19 20
	 21
	---Fragment 1 Bond Connectivity---
	 1 : 2 3 10 11
	 2 : 1 4 12 13
	 3 : 1 5 6
	 4 : 2 14 15 16
	 5 : 3 7 17
	 6 : 3 8 18
	 7 : 5 9 19
	 8 : 6 9 20
	 9 : 7 8 21
	 10 : 1
	 11 : 1
	 12 : 2
	 13 : 2
	 14 : 4
	 15 : 4
	 16 : 4
	 17 : 5
	 18 : 6
	 19 : 7
	 20 : 8
	 21 : 9

	Assuming in current code that numbering for constraints corresponds to unified fragment.
	Frozen dihedral atom list: 
	     4     2     1     3
	     2     1     3     5
	     2     1     3     6
	     1     2     4    14
	---Fragment 1 Geometry and Gradient---
	 C          -2.5270707837       -0.5838323005        2.1953765633
	 C          -4.7472457579        0.4706745617        0.5872082921
	 C           0.0598622368       -0.1397825658        0.9607617937
	 C          -5.8269993612       -1.4381283490       -1.3314589889
	 C           1.3936555026        2.1445807356        1.3611531857
	 C           1.1220319385       -1.9741850692       -0.6698828800
	 C           3.7478441843        2.5648992896        0.1925730059
	 C           3.4747315160       -1.5514533350       -1.8398274420
	 C           4.7917629111        0.7155301553       -1.4051261825
	 H          -2.8066576537       -2.5942193288        2.6247639129
	 H          -2.5372091644        0.3508470281        4.0485950697
	 H          -6.2712172815        1.0422297873        1.8760789885
	 H          -4.1683035929        2.2229514575       -0.3620427147
	 H          -6.5590055628       -3.1251492221       -0.3815919314
	 H          -7.3826483638       -0.5943202805       -2.4043491069
	 H          -4.3814098978       -2.0326683134       -2.6878344819
	 H           0.6090166488        3.6039803175        2.5823055463
	 H           0.1246401586       -3.7367401854       -1.0360210962
	 H           4.7611720246        4.3237618809        0.5251572451
	 H           4.2755350871       -2.9806361961       -3.0836395086
	 H           6.6119112103        1.0397334591       -2.3060190977
	            -0.0085555547       -0.0085409090        0.0002787683
	             0.0063862669        0.0032407616       -0.0043466005
	             0.0000005492        0.0038700022        0.0028091484
	            -0.0034115137       -0.0047963335        0.0006930431
	            -0.0050371705        0.0074738671        0.0063822654
	            -0.0064955243       -0.0089943385       -0.0013794034
	             0.0060344664        0.0076987792        0.0012593788
	             0.0040311205       -0.0065306900       -0.0052289056
	             0.0061129987        0.0014855192       -0.0027848954
	            -0.0000800342       -0.0019084194        0.0053313193
	            -0.0008625395       -0.0009731502        0.0033975158
	            -0.0009640967        0.0024001125        0.0012164260
	            -0.0018703353        0.0045938011        0.0001272405
	            -0.0015832279       -0.0018457816       -0.0000939115
	            -0.0016902548        0.0009380274       -0.0009112933
	             0.0008180636       -0.0001763121       -0.0014765053
	            -0.0002582944        0.0043521822        0.0016219318
	            -0.0010021784       -0.0039226896       -0.0026014730
	             0.0024998890        0.0037775445        0.0004906827
	             0.0019958095       -0.0029420891       -0.0027805211
	             0.0039536369        0.0007892982       -0.0020793680

	Previous optimization step data not found.  Starting new optimization.

	---Fragment 1 Intrafragment Coordinates---
	 - Coordinate -           - BOHR/RAD -       - ANG/DEG -
	 R(1,2)           =         2.937238	       1.554319
	 R(1,3)           =         2.900634	       1.534949
	 R(1,10)          =         2.074656	       1.097861
	 R(1,11)          =         2.075608	       1.098364
	 R(2,4)           =         2.913877	       1.541957
	 R(2,12)          =         2.076139	       1.098645
	 R(2,13)          =         2.075265	       1.098183
	 R(3,5)           =         2.675375	       1.415748
	 R(3,6)           =         2.674367	       1.415214
	 R(4,14)          =         2.069812	       1.095297
	 R(4,15)          =         2.069577	       1.095173
	 R(4,16)          =         2.069532	       1.095149
	 R(5,7)           =         2.661663	       1.408492
	 R(5,17)          =         2.058329	       1.089221
	 R(6,8)           =         2.661328	       1.408314
	 R(6,18)          =         2.058020	       1.089058
	 R(7,9)           =         2.657551	       1.406315
	 R(7,19)          =         2.056950	       1.088491
	 R(8,9)           =         2.657584	       1.406333
	 R(8,20)          =         2.056920	       1.088475
	 R(9,21)          =         2.056613	       1.088313
	 B(1,2,4)         =         1.988241	     113.917795
	 B(1,2,12)        =         1.889969	     108.287232
	 B(1,2,13)        =         1.920594	     110.041921
	 B(1,3,5)         =         2.107889	     120.773164
	 B(1,3,6)         =         2.104507	     120.579380
	 B(2,1,3)         =         1.967223	     112.713559
	 B(2,1,10)        =         1.938362	     111.059980
	 B(2,1,11)        =         1.900208	     108.873902
	 B(2,4,14)        =         1.942065	     111.272120
	 B(2,4,15)        =         1.931361	     110.658828
	 B(2,4,16)        =         1.940039	     111.156040
	 B(3,1,10)        =         1.935451	     110.893152
	 B(3,1,11)        =         1.891728	     108.388011
	 B(3,5,7)         =         2.106077	     120.669331
	 B(3,5,17)        =         2.099181	     120.274186
	 B(3,6,8)         =         2.106212	     120.677046
	 B(3,6,18)        =         2.098370	     120.227768
	 B(4,2,12)        =         1.893476	     108.488176
	 B(4,2,13)        =         1.934039	     110.812298
	 B(5,3,6)         =         2.070217	     118.614718
	 B(5,7,9)         =         2.096117	     120.098674
	 B(5,7,19)        =         2.094130	     119.984799
	 B(6,8,9)         =         2.096352	     120.112103
	 B(6,8,20)        =         2.093976	     119.975968
	 B(7,5,17)        =         2.077928	     119.056477
	 B(7,9,8)         =         2.091260	     119.820361
	 B(7,9,21)        =         2.095895	     120.085922
	 B(8,6,18)        =         2.078603	     119.095187
	 B(8,9,21)        =         2.096028	     120.093572
	 B(9,7,19)        =         2.092938	     119.916520
	 B(9,8,20)        =         2.092858	     119.911920
	 B(10,1,11)       =         1.824422	     104.531675
	 B(12,2,13)       =         1.829977	     104.849965
	 B(14,4,15)       =         1.880091	     107.721252
	 B(14,4,16)       =         1.889837	     108.279659
	 B(15,4,16)       =         1.878023	     107.602788
	*D(1,2,4,14)      =         1.050283	      60.176790
	 D(1,2,4,15)      =         3.139929	     179.904696
	 D(1,2,4,16)      =        -1.057534	     -60.592207
	 D(1,3,5,7)       =        -3.123051	    -178.937656
	 D(1,3,5,17)      =         0.019057	       1.091908
	 D(1,3,6,8)       =         3.121918	     178.872750
	 D(1,3,6,18)      =        -0.019577	      -1.121706
	*D(2,1,3,5)       =         1.513578	      86.721635
	*D(2,1,3,6)       =        -1.591189	     -91.168401
	*D(3,1,2,4)       =         1.563628	      89.589268
	 D(3,1,2,12)      =        -2.611346	    -149.619126
	 D(3,1,2,13)      =        -0.620423	     -35.547640
	 D(3,5,7,9)       =         0.007693	       0.440798
	 D(3,5,7,19)      =        -3.134412	    -179.588559
	 D(3,6,8,9)       =        -0.005279	      -0.302436
	 D(3,6,8,20)      =         3.136912	     179.731803
	 D(4,2,1,10)      =        -0.620341	     -35.542911
	 D(4,2,1,11)      =        -2.619953	    -150.112262
	 D(5,3,1,10)      =        -2.584055	    -148.055439
	 D(5,3,1,11)      =        -0.590892	     -33.855625
	 D(5,3,6,8)       =         0.016368	       0.937844
	 D(5,3,6,18)      =        -3.125127	    -179.056613
	 D(5,7,9,8)       =         0.003740	       0.214313
	 D(5,7,9,21)      =        -3.140270	    -179.924221
	 D(6,3,1,10)      =         0.594364	      34.054524
	 D(6,3,1,11)      =         2.587526	     148.254339
	 D(6,3,5,7)       =        -0.017574	      -1.006899
	 D(6,3,5,17)      =         3.124535	     179.022666
	 D(6,8,9,7)       =        -0.004941	      -0.283098
	 D(6,8,9,21)      =         3.139070	     179.855447
	 D(7,9,8,20)      =         3.136054	     179.682685
	 D(8,9,7,19)      =        -3.137340	    -179.756350
	 D(9,7,5,17)      =        -3.134409	    -179.588411
	 D(9,8,6,18)      =         3.136218	     179.692082
	 D(10,1,2,12)     =         1.487870	      85.248695
	 D(10,1,2,13)     =        -2.804392	    -160.679819
	 D(11,1,2,12)     =        -0.511742	     -29.320656
	 D(11,1,2,13)     =         1.479181	      84.750829
	 D(12,2,4,14)     =        -1.055967	     -60.502475
	 D(12,2,4,15)     =         1.033679	      59.225432
	 D(12,2,4,16)     =         3.119401	     178.728529
	 D(13,2,4,14)     =        -3.056021	    -175.097109
	 D(13,2,4,15)     =        -0.966375	     -55.369202
	 D(13,2,4,16)     =         1.119348	      64.133895
	 D(17,5,7,19)     =         0.006671	       0.382232
	 D(18,6,8,20)     =        -0.004777	      -0.273678
	 D(19,7,9,21)     =         0.001835	       0.105116
	 D(20,8,9,21)     =        -0.003120	      -0.178771
	 R(4,6)           =         7.001005	       3.704772

	Current energy   :      -350.0610949186

	Generating empirical Hessian (Schlegel '84) for each fragment.
	Taking RFO optimization step.
	Going to follow RFO solution 1.
	Using RFO vector 1.
	Norm of target step-size    0.19492
	Projected energy change by RFO approximation:        -0.0059279195

	Back-transformation to cartesian coordinates...
	Successfully converged to displaced geometry.

	Back-transformation to cartesian coordinates to adjust frozen coordinates...
	Successfully converged to displaced geometry.

	--- Internal Coordinate Step in ANG or DEG, aJ/ANG or AJ/DEG ---
	 ---------------------------------------------------------------------------
	   Coordinate                Previous        Force       Change         New 
	   ----------                --------       ------       ------       ------
	    1 R(1,2)          =      1.554319    -0.035634    -0.010033     1.544286
	    2 R(1,3)          =      1.534949    -0.097042    -0.022857     1.512092
	    3 R(1,10)         =      1.097861    -0.024346    -0.004545     1.093316
	    4 R(1,11)         =      1.098364    -0.021477    -0.004015     1.094349
	    5 R(2,4)          =      1.541957    -0.052998    -0.012596     1.529361
	    6 R(2,12)         =      1.098645    -0.017512    -0.003277     1.095368
	    7 R(2,13)         =      1.098183    -0.027253    -0.005092     1.093091
	    8 R(3,5)          =      1.415748    -0.133538    -0.019940     1.395808
	    9 R(3,6)          =      1.415214    -0.118974    -0.018250     1.396964
	   10 R(4,14)         =      1.095297    -0.016622    -0.003077     1.092220
	   11 R(4,15)         =      1.095173    -0.017539    -0.003245     1.091928
	   12 R(4,16)         =      1.095149    -0.013055    -0.002416     1.092733
	   13 R(5,7)          =      1.408492    -0.115467    -0.016627     1.391865
	   14 R(5,17)         =      1.089221    -0.034153    -0.006198     1.083023
	   15 R(6,8)          =      1.408314    -0.109621    -0.015684     1.392630
	   16 R(6,18)         =      1.089058    -0.035529    -0.006444     1.082613
	   17 R(7,9)          =      1.406315    -0.101282    -0.014219     1.392096
	   18 R(7,19)         =      1.088491    -0.037374    -0.006766     1.081725
	   19 R(8,9)          =      1.406333    -0.106901    -0.014974     1.391359
	   20 R(8,20)         =      1.088475    -0.037104    -0.006717     1.081758
	   21 R(9,21)         =      1.088313    -0.037328    -0.006754     1.081558
	   22 B(1,2,4)        =    113.917795     0.000062    -0.576567   113.341229
	   23 B(1,2,12)       =    108.287232     0.000022     0.522616   108.809848
	   24 B(1,2,13)       =    110.041921    -0.000098    -0.833475   109.208446
	   25 B(1,3,5)        =    120.773164    -0.000219    -0.410194   120.362970
	   26 B(1,3,6)        =    120.579380     0.000284     0.555435   121.134815
	   27 B(2,1,3)        =    112.713559     0.000342     0.318074   113.031633
	   28 B(2,1,10)       =    111.059980    -0.000207    -1.408113   109.651868
	   29 B(2,1,11)       =    108.873902    -0.000093     0.314216   109.188118
	   30 B(2,4,14)       =    111.272120    -0.000140    -0.742269   110.529850
	   31 B(2,4,15)       =    110.658828     0.000062     0.466820   111.125648
	   32 B(2,4,16)       =    111.156040    -0.000017    -0.168830   110.987210
	   33 B(3,1,10)       =    110.893152    -0.000120    -0.893955   109.999196
	   34 B(3,1,11)       =    108.388011    -0.000147    -0.171010   108.217002
	   35 B(3,5,7)        =    120.669331     0.000086     0.177392   120.846723
	   36 B(3,5,17)       =    120.274186    -0.000201    -0.802295   119.471891
	   37 B(3,6,8)        =    120.677046     0.000083     0.209676   120.886721
	   38 B(3,6,18)       =    120.227768    -0.000196    -0.807738   119.420029
	   39 B(4,2,12)       =    108.488176    -0.000075    -0.045032   108.443144
	   40 B(4,2,13)       =    110.812298    -0.000024    -0.479198   110.333100
	   41 B(5,3,6)        =    118.614718    -0.000064    -0.145144   118.469574
	   42 B(5,7,9)        =    120.098674     0.000023     0.082359   120.181033
	   43 B(5,7,19)       =    119.984799    -0.000042    -0.186848   119.797952
	   44 B(6,8,9)        =    120.112103    -0.000015    -0.018061   120.094043
	   45 B(6,8,20)       =    119.975968    -0.000016    -0.098001   119.877967
	   46 B(7,5,17)       =    119.056477     0.000115     0.624833   119.681310
	   47 B(7,9,8)        =    119.820361    -0.000113    -0.299436   119.520925
	   48 B(7,9,21)       =    120.085922     0.000057     0.146753   120.232675
	   49 B(8,6,18)       =    119.095187     0.000112     0.597951   119.693137
	   50 B(8,9,21)       =    120.093572     0.000056     0.151956   120.245527
	   51 B(9,7,19)       =    119.916520     0.000018     0.103814   120.020334
	   52 B(9,8,20)       =    119.911920     0.000031     0.115455   120.027374
	   53 B(10,1,11)      =    104.531675     0.000214     2.000353   106.532029
	   54 B(12,2,13)      =    104.849965     0.000121     1.610831   106.460796
	   55 B(14,4,15)      =    107.721252     0.000065     0.434838   108.156090
	   56 B(14,4,16)      =    108.279659     0.000028    -0.202977   108.076682
	   57 B(15,4,16)      =    107.602788     0.000007     0.241252   107.844040
	   58 *D(1,2,4,14)    =     60.176790    -0.000000    -0.000000    60.176790
	   59 D(1,2,4,15)     =    179.904696     0.000007     0.365088   180.269785
	   60 D(1,2,4,16)     =    -60.592207     0.000016     0.866345   -59.725862
	   61 D(1,3,5,7)      =   -178.937656     0.000007     1.319416  -177.618240
	   62 D(1,3,5,17)     =      1.091908     0.000007     1.188816     2.280724
	   63 D(1,3,6,8)      =    178.872750    -0.000009    -1.312631   177.560119
	   64 D(1,3,6,18)     =     -1.121706    -0.000010    -1.440246    -2.561951
	   65 *D(2,1,3,5)     =     86.721635     0.000000    -0.000000    86.721635
	   66 *D(2,1,3,6)     =    -91.168401     0.000000     0.000000   -91.168401
	   67 *D(3,1,2,4)     =     89.589268    -0.000000    -0.000000    89.589268
	   68 D(3,1,2,12)     =   -149.619126    -0.000009    -0.062049  -149.681174
	   69 D(3,1,2,13)     =    -35.547640     0.000015     1.694175   -33.853465
	   70 D(3,5,7,9)      =      0.440798    -0.000004    -0.610365    -0.169567
	   71 D(3,5,7,19)     =   -179.588559    -0.000002    -0.280916  -179.869475
	   72 D(3,6,8,9)      =     -0.302436     0.000003     0.554972     0.252536
	   73 D(3,6,8,20)     =    179.731803     0.000002     0.235226   179.967030
	   74 D(4,2,1,10)     =    -35.542911     0.000014     2.009776   -33.533136
	   75 D(4,2,1,11)     =   -150.112262    -0.000007     0.207093  -149.905169
	   76 D(5,3,1,10)     =   -148.055439    -0.000025    -2.293154  -150.348593
	   77 D(5,3,1,11)     =    -33.855625     0.000000    -0.480205   -34.335830
	   78 D(5,3,6,8)      =      0.937844    -0.000008    -1.306733    -0.368890
	   79 D(5,3,6,18)     =   -179.056613    -0.000009    -1.434347  -180.490960
	   80 D(5,7,9,8)      =      0.214313    -0.000001    -0.169281     0.045032
	   81 D(5,7,9,21)     =   -179.924221     0.000002     0.308217  -179.616005
	   82 D(6,3,1,10)     =     34.054524    -0.000025    -2.293154    31.761371
	   83 D(6,3,1,11)     =    148.254339     0.000000    -0.480205   147.774134
	   84 D(6,3,5,7)      =     -1.006899     0.000009     1.334205     0.327307
	   85 D(6,3,5,17)     =    179.022666     0.000008     1.203605   180.226271
	   86 D(6,8,9,7)      =     -0.283098     0.000001     0.197080    -0.086018
	   87 D(6,8,9,21)     =    179.855447    -0.000002    -0.280472   179.574975
	   88 D(7,9,8,20)     =    179.682685     0.000003     0.517233   180.199918
	   89 D(8,9,7,19)     =   -179.756350    -0.000003    -0.499380  -180.255731
	   90 D(9,7,5,17)     =   -179.588411    -0.000004    -0.479911  -180.068322
	   91 D(9,8,6,18)     =    179.692082     0.000004     0.682854   180.374937
	   92 D(10,1,2,12)    =     85.248695     0.000004     1.947727    87.196422
	   93 D(10,1,2,13)    =   -160.679819     0.000028     3.703950  -156.975869
	   94 D(11,1,2,12)    =    -29.320656    -0.000016     0.145045   -29.175612
	   95 D(11,1,2,13)    =     84.750829     0.000008     1.901268    86.652097
	   96 D(12,2,4,14)    =    -60.502475    -0.000003    -0.257359   -60.759834
	   97 D(12,2,4,15)    =     59.225432     0.000004     0.107729    59.333161
	   98 D(12,2,4,16)    =    178.728529     0.000013     0.608986   179.337515
	   99 D(13,2,4,14)    =   -175.097109    -0.000024    -1.902722  -176.999831
	  100 D(13,2,4,15)    =    -55.369202    -0.000016    -1.537634   -56.906836
	  101 D(13,2,4,16)    =     64.133895    -0.000007    -1.036377    63.097517
	  102 D(17,5,7,19)    =      0.382232    -0.000001    -0.150462     0.231770
	  103 D(18,6,8,20)    =     -0.273678     0.000002     0.363109     0.089430
	  104 D(19,7,9,21)    =      0.105116    -0.000000    -0.021883     0.083232
	  105 D(20,8,9,21)    =     -0.178771     0.000000     0.039681    -0.139090
	  106 R(4,6)          =      3.704772    -0.016276    -0.033950     3.670822
	 ---------------------------------------------------------------------------
	Successfully symmetrized geometry.

  ==> Convergence Check <==

  Measures of convergence in internal coordinates in au.
  Criteria marked as inactive (o), active & met (*), and active & unmet ( ).
  --------------------------------------------------------------------------------------------- ~
   Step     Total Energy     Delta E     MAX Force     RMS Force      MAX Disp      RMS Disp    ~
  --------------------------------------------------------------------------------------------- ~
    Convergence Criteria             o    2.50e-03 *    1.70e-03 *    1.00e-02 *    6.70e-03 *  ~
  --------------------------------------------------------------------------------------------- ~
      1    -350.06109492   -3.50e+02 o    1.62e-02      3.91e-03      6.46e-02      1.90e-02    ~
  ---------------------------------------------------------------------------------------------

	Writing optimization data to binary file.
	Structure for next step:
	Cartesian Geometry (in Angstrom)
	    C    -1.3382228684  -0.3135871149   1.1343236117
	    C    -2.4906685856   0.2700087592   0.2880945017
	    C     0.0224602386  -0.0935829612   0.5125818917
	    C    -3.0516525066  -0.7183508035  -0.7353251390
	    C     0.7267094477   1.0867802447   0.7555952759
	    C     0.5845993876  -1.0391771767  -0.3484400287
	    C     1.9575940980   1.3210947448   0.1495358748
	    C     1.8154640283  -0.8087519655  -0.9577806177
	    C     2.5065207520   0.3730421546  -0.7094215461
	    H    -1.5063670310  -1.3814459518   1.2978640711
	    H    -1.3431585685   0.1572988364   2.1221704373
	    H    -3.3024327459   0.5731527551   0.9581497249
	    H    -2.1455257850   1.1790048910  -0.2113546709
	    H    -3.4458946394  -1.6055073487  -0.2348539940
	    H    -3.8594615368  -0.2678655788  -1.3156815002
	    H    -2.2760562330  -1.0400718992  -1.4346193408
	    H     0.3076886698   1.8294126060   1.4233204775
	    H     0.0553154108  -1.9636365620  -0.5415328902
	    H     2.4898442186   2.2408849073   0.3515855094
	    H     2.2359172898  -1.5524869507  -1.6213146621
	    H     3.4658153542   0.5515327046  -1.1759658168
			--------------------------
			 OPTKING Finished Execution 
			--------------------------

    Structure for next step:
    Molecular point group: c1
    Full point group: C1

    Geometry (in Angstrom), charge = 0, multiplicity = 1:

    C           -1.333196550340    -0.310589204311     1.128621892283
    C           -2.485642272082     0.273006672039     0.282392779020
    C            0.027486561944    -0.090585049724     0.506880169890
    C           -3.046626195263    -0.715352894464    -0.741026865734
    C            0.731735773812     1.089778160817     0.749893555047
    C            0.589625713179    -1.036179268933    -0.354141753971
    C            1.962620428981     1.324092661779     0.143834151544
    C            1.820490358767    -0.805754056852    -0.963482345328
    C            2.511547085184     0.376040067857    -0.715123272788
    H           -1.501340713621    -1.378448045400     1.292162352313
    H           -1.338132250476     0.160296748819     2.116468721779
    H           -3.297406435600     0.576150669175     0.952448004788
    H           -2.140499470148     1.182002807416    -0.217056395557
    H           -3.440868329675    -1.602509443165    -0.240555718785
    H           -3.854435228691    -0.264867667994    -1.321383229207
    H           -2.271029918620    -1.037073991471    -1.440321070319
    H            0.312714994286     1.832410525013     1.417618759221
    H            0.060341734351    -1.960638657873    -0.547234616181
    H            2.494870551723     2.243882827932     0.345883786934
    H            2.240943621846    -1.549489044961    -1.627016392370
    H            3.470841691088     0.554530618622    -1.181667545258

gradient() will perform analytic gradient computation.

*** tstart() called on daniele-Precision-5750
*** at Wed Jun  2 00:25:17 2021

   => Loading Basis Set <=

    Name: 6-311G
    Role: ORBITAL
    Keyword: BASIS
    atoms 1-9   entry C          line    92 file /home/daniele/anaconda3/envs/poltype/share/psi4/basis/6-311g.gbs 
    atoms 10-21 entry H          line    21 file /home/daniele/anaconda3/envs/poltype/share/psi4/basis/6-311g.gbs 


         ---------------------------------------------------------
                                   SCF
               by Justin Turney, Rob Parrish, Andy Simmonett
                          and Daniel G. A. Smith
                              RKS Reference
                        8 Threads,    667 MiB Core
         ---------------------------------------------------------

  ==> Geometry <==

    Molecular point group: c1
    Full point group: C1

    Geometry (in Angstrom), charge = 0, multiplicity = 1:

       Center              X                  Y                   Z               Mass       
    ------------   -----------------  -----------------  -----------------  -----------------
         C           -1.333196550340    -0.310589204311     1.128621892283    12.000000000000
         C           -2.485642272082     0.273006672039     0.282392779020    12.000000000000
         C            0.027486561944    -0.090585049724     0.506880169890    12.000000000000
         C           -3.046626195263    -0.715352894464    -0.741026865734    12.000000000000
         C            0.731735773812     1.089778160817     0.749893555047    12.000000000000
         C            0.589625713179    -1.036179268933    -0.354141753971    12.000000000000
         C            1.962620428981     1.324092661779     0.143834151544    12.000000000000
         C            1.820490358767    -0.805754056852    -0.963482345328    12.000000000000
         C            2.511547085184     0.376040067857    -0.715123272788    12.000000000000
         H           -1.501340713621    -1.378448045400     1.292162352313     1.007825032230
         H           -1.338132250476     0.160296748819     2.116468721779     1.007825032230
         H           -3.297406435600     0.576150669175     0.952448004788     1.007825032230
         H           -2.140499470148     1.182002807416    -0.217056395557     1.007825032230
         H           -3.440868329675    -1.602509443165    -0.240555718785     1.007825032230
         H           -3.854435228691    -0.264867667994    -1.321383229207     1.007825032230
         H           -2.271029918620    -1.037073991471    -1.440321070319     1.007825032230
         H            0.312714994286     1.832410525013     1.417618759221     1.007825032230
         H            0.060341734351    -1.960638657873    -0.547234616181     1.007825032230
         H            2.494870551723     2.243882827932     0.345883786934     1.007825032230
         H            2.240943621846    -1.549489044961    -1.627016392370     1.007825032230
         H            3.470841691088     0.554530618622    -1.181667545258     1.007825032230

  Running in c1 symmetry.

  Rotational constants: A =      0.11626  B =      0.03365  C =      0.02914 [cm^-1]
  Rotational constants: A =   3485.51417  B =   1008.81483  C =    873.67738 [MHz]
  Nuclear repulsion =  416.726088609552562

  Charge       = 0
  Multiplicity = 1
  Electrons    = 66
  Nalpha       = 33
  Nbeta        = 33

  ==> Algorithm <==

  SCF Algorithm Type is DF.
  DIIS enabled.
  MOM disabled.
  Fractional occupation disabled.
  Guess Type is READ.
  Energy threshold   = 1.00e-08
  Density threshold  = 1.00e-08
  Integral threshold = 0.00e+00

  ==> Primary Basis <==

  Basis Set: 6-311G
    Blend: 6-311G
    Number of shells: 99
    Number of basis function: 153
    Number of Cartesian functions: 153
    Spherical Harmonics?: true
    Max angular momentum: 1

  ==> DFT Potential <==

   => Composite Functional: WB97X-D <= 

    wB97X-D Hyb-GGA Exchange-Correlation Functional

    J.-D. Chai and M. Head-Gordon, Phys. Chem. Chem. Phys. 10, 6615 (2008)

    Deriv               =              1
    GGA                 =           TRUE
    Meta                =          FALSE

    Exchange Hybrid     =           TRUE
    MP2 Hybrid          =          FALSE

   => Exchange-Correlation Functionals <=

    1.0000   wB97D range-separated functional

   => Exact (HF) Exchange <=

    0.7780            HF,LR [omega = 0.2000]
    0.2220               HF 

   => Molecular Quadrature <=

    Radial Scheme          =       TREUTLER
    Pruning Scheme         =           FLAT
    Nuclear Scheme         =       TREUTLER

    BS radius alpha        =              1
    Pruning alpha          =              1
    Radial Points          =             75
    Spherical Points       =            302
    Total Points           =         470061
    Total Blocks           =           3471
    Max Points             =            256
    Max Functions          =            141

   => WB97X-D: Empirical Dispersion <=

    Chai and Head-Gordon Dispersion Correction
    Chai, J.-D.; Head-Gordon, M. (2010), J. Chem. Phys., 132: 6615-6620

        s6 =       1.000000

   => Loading Basis Set <=

    Name: (6-311G AUX)
    Role: JKFIT
    Keyword: DF_BASIS_SCF
    atoms 1-9   entry C          line   125 file /home/daniele/anaconda3/envs/poltype/share/psi4/basis/cc-pvtz-jkfit.gbs 
    atoms 10-21 entry H          line    51 file /home/daniele/anaconda3/envs/poltype/share/psi4/basis/cc-pvtz-jkfit.gbs 

   => Loading Basis Set <=

    Name: 6-311G
    Role: ORBITAL
    Keyword: BASIS
    atoms 1-9   entry C          line    92 file /home/daniele/anaconda3/envs/poltype/share/psi4/basis/6-311g.gbs 
    atoms 10-21 entry H          line    21 file /home/daniele/anaconda3/envs/poltype/share/psi4/basis/6-311g.gbs 

  Reading orbitals from file 180, no projection.

  ==> Pre-Iterations <==

   -------------------------------------------------------
    Irrep   Nso     Nmo     Nalpha   Nbeta   Ndocc  Nsocc
   -------------------------------------------------------
     A        153     153       0       0       0       0
   -------------------------------------------------------
    Total     153     153      33      33      33       0
   -------------------------------------------------------

  ==> Integral Setup <==

  ==> DiskDFJK: Density-Fitted J/K Matrices <==

    J tasked:                  Yes
    K tasked:                  Yes
    wK tasked:                 Yes
    Omega:               2.000E-01
    OpenMP threads:              8
    Integrals threads:           8
    Memory [MiB]:              115
    Algorithm:                Disk
    Integral Cache:           NONE
    Schwarz Cutoff:          1E-12
    Fitting Condition:       1E-10

   => Auxiliary Basis Set <=

  Basis Set: (6-311G AUX)
    Blend: CC-PVTZ-JKFIT
    Number of shells: 345
    Number of basis function: 1071
    Number of Cartesian functions: 1284
    Spherical Harmonics?: true
    Max angular momentum: 4

  Cached 33.3% of DFT collocation blocks in 0.450 [GiB].

  Minimum eigenvalue in the overlap matrix is 2.4383930964E-04.
  Using Symmetric Orthogonalization.

  SCF Guess: Orbitals guess was supplied from a previous computation.

  ==> Iterations <==

                           Total Energy        Delta E     RMS |[F,P]|

   @DF-RKS iter   0:  -350.13067480105315   -3.50131e+02   6.76495e-04 
   @DF-RKS iter   1:  -350.06317760693929    6.74972e-02   1.03243e-04 DIIS
   @DF-RKS iter   2:  -350.06332436155276   -1.46755e-04   6.93159e-05 DIIS
   @DF-RKS iter   3:  -350.06338557875625   -6.12172e-05   1.34272e-05 DIIS
   @DF-RKS iter   4:  -350.06338903231915   -3.45356e-06   7.45920e-06 DIIS
   @DF-RKS iter   5:  -350.06338986534485   -8.33026e-07   1.95611e-06 DIIS
   @DF-RKS iter   6:  -350.06338994242560   -7.70808e-08   5.93515e-07 DIIS
   @DF-RKS iter   7:  -350.06338994836693   -5.94133e-09   1.57685e-07 DIIS
   @DF-RKS iter   8:  -350.06338994900028   -6.33349e-10   3.97465e-08 DIIS
   @DF-RKS iter   9:  -350.06338994902580   -2.55227e-11   1.56350e-08 DIIS
   @DF-RKS iter  10:  -350.06338994903047   -4.66116e-12   3.74998e-09 DIIS
  Energy and wave function converged.


  ==> Post-Iterations <==

    Orbital Energies [Eh]
    ---------------------

    Doubly Occupied:                                                      

       1A    -10.296994     2A    -10.288588     3A    -10.288444  
       4A    -10.286282     5A    -10.285747     6A    -10.285711  
       7A    -10.283851     8A    -10.280650     9A    -10.268721  
      10A     -0.967138    11A     -0.901027    12A     -0.849724  
      13A     -0.848353    14A     -0.780588    15A     -0.706254  
      16A     -0.699688    17A     -0.669501    18A     -0.607561  
      19A     -0.558497    20A     -0.553652    21A     -0.535096  
      22A     -0.520580    23A     -0.509635    24A     -0.488325  
      25A     -0.484264    26A     -0.459258    27A     -0.439374  
      28A     -0.429666    29A     -0.421353    30A     -0.413880  
      31A     -0.401893    32A     -0.329304    33A     -0.318753  

    Virtual:                                                              

      34A      0.065410    35A      0.068357    36A      0.122882  
      37A      0.138089    38A      0.144993    39A      0.160206  
      40A      0.173946    41A      0.176018    42A      0.195794  
      43A      0.200694    44A      0.210175    45A      0.211053  
      46A      0.223923    47A      0.238283    48A      0.252144  
      49A      0.272064    50A      0.313167    51A      0.328917  
      52A      0.359414    53A      0.366280    54A      0.374123  
      55A      0.385178    56A      0.394106    57A      0.404772  
      58A      0.413186    59A      0.426825    60A      0.458181  
      61A      0.479648    62A      0.486578    63A      0.492327  
      64A      0.500602    65A      0.510314    66A      0.526682  
      67A      0.539849    68A      0.546732    69A      0.567065  
      70A      0.575056    71A      0.592195    72A      0.610871  
      73A      0.629350    74A      0.634646    75A      0.646983  
      76A      0.667254    77A      0.677214    78A      0.683867  
      79A      0.688479    80A      0.699269    81A      0.700425  
      82A      0.708903    83A      0.714059    84A      0.720945  
      85A      0.728553    86A      0.741031    87A      0.753927  
      88A      0.763460    89A      0.765488    90A      0.798792  
      91A      0.815747    92A      0.854628    93A      0.870319  
      94A      0.890410    95A      0.924871    96A      0.930446  
      97A      0.936473    98A      0.974527    99A      1.013515  
     100A      1.032885   101A      1.133681   102A      1.147572  
     103A      1.232589   104A      1.259143   105A      1.378089  
     106A      2.302874   107A      2.327901   108A      2.350166  
     109A      2.365158   110A      2.373704   111A      2.382277  
     112A      2.390323   113A      2.408387   114A      2.428027  
     115A      2.442362   116A      2.469375   117A      2.617538  
     118A      2.646675   119A      2.679820   120A      2.709244  
     121A      2.772054   122A      2.778721   123A      2.827310  
     124A      2.847669   125A      2.900850   126A      2.923964  
     127A      2.934815   128A      2.948302   129A      2.958860  
     130A      2.975097   131A      3.030084   132A      3.039345  
     133A      3.090235   134A      3.120780   135A      3.160991  
     136A      3.183361   137A      3.221723   138A      3.241494  
     139A      3.299121   140A      3.322708   141A      3.362482  
     142A      3.408522   143A      3.413797   144A      3.546269  
     145A     23.253347   146A     23.474941   147A     23.489279  
     148A     23.524063   149A     23.688719   150A     23.723250  
     151A     23.765468   152A     23.772209   153A     24.028311  

    Final Occupation by Irrep:
              A 
    DOCC [    33 ]

  @DF-RKS Final Energy:  -350.06338994903047

   => Energetics <=

    Nuclear Repulsion Energy =            416.7260886095525620
    One-Electron Energy =               -1296.0150026439264366
    Two-Electron Energy =                 565.6336863098806589
    DFT Exchange-Correlation Energy =     -36.3959948169998313
    Empirical Dispersion Energy =          -0.0121674075374032
    VV10 Nonlocal Energy =                  0.0000000000000000
    Total Energy =                       -350.0633899490304657

Computation Completed


Properties will be evaluated at   0.000000,   0.000000,   0.000000 [a0]

Properties computed using the SCF density matrix

  Nuclear Dipole Moment: [e a0]
     X:    -8.6847      Y:    -1.1660      Z:    -0.4225

  Electronic Dipole Moment: [e a0]
     X:     8.5436      Y:     1.1890      Z:     0.4469

  Dipole Moment: [e a0]
     X:    -0.1411      Y:     0.0230      Z:     0.0244     Total:     0.1451

  Dipole Moment: [D]
     X:    -0.3587      Y:     0.0586      Z:     0.0621     Total:     0.3687


*** tstop() called on daniele-Precision-5750 at Wed Jun  2 00:25:26 2021
Module time:
	user time   =      69.29 seconds =       1.15 minutes
	system time =       1.94 seconds =       0.03 minutes
	total time  =          9 seconds =       0.15 minutes
Total time:
	user time   =     186.70 seconds =       3.11 minutes
	system time =       4.89 seconds =       0.08 minutes
	total time  =         25 seconds =       0.42 minutes

*** tstart() called on daniele-Precision-5750
*** at Wed Jun  2 00:25:26 2021


         ------------------------------------------------------------
                                   SCF GRAD                          
                          Rob Parrish, Justin Turney,                
                       Andy Simmonett, and Alex Sokolov              
         ------------------------------------------------------------

  ==> Geometry <==

    Molecular point group: c1
    Full point group: C1

    Geometry (in Angstrom), charge = 0, multiplicity = 1:

       Center              X                  Y                   Z               Mass       
    ------------   -----------------  -----------------  -----------------  -----------------
         C           -1.333196550340    -0.310589204311     1.128621892283    12.000000000000
         C           -2.485642272082     0.273006672039     0.282392779020    12.000000000000
         C            0.027486561944    -0.090585049724     0.506880169890    12.000000000000
         C           -3.046626195263    -0.715352894464    -0.741026865734    12.000000000000
         C            0.731735773812     1.089778160817     0.749893555047    12.000000000000
         C            0.589625713179    -1.036179268933    -0.354141753971    12.000000000000
         C            1.962620428981     1.324092661779     0.143834151544    12.000000000000
         C            1.820490358767    -0.805754056852    -0.963482345328    12.000000000000
         C            2.511547085184     0.376040067857    -0.715123272788    12.000000000000
         H           -1.501340713621    -1.378448045400     1.292162352313     1.007825032230
         H           -1.338132250476     0.160296748819     2.116468721779     1.007825032230
         H           -3.297406435600     0.576150669175     0.952448004788     1.007825032230
         H           -2.140499470148     1.182002807416    -0.217056395557     1.007825032230
         H           -3.440868329675    -1.602509443165    -0.240555718785     1.007825032230
         H           -3.854435228691    -0.264867667994    -1.321383229207     1.007825032230
         H           -2.271029918620    -1.037073991471    -1.440321070319     1.007825032230
         H            0.312714994286     1.832410525013     1.417618759221     1.007825032230
         H            0.060341734351    -1.960638657873    -0.547234616181     1.007825032230
         H            2.494870551723     2.243882827932     0.345883786934     1.007825032230
         H            2.240943621846    -1.549489044961    -1.627016392370     1.007825032230
         H            3.470841691088     0.554530618622    -1.181667545258     1.007825032230

  Nuclear repulsion =  416.726088609552619

  ==> Basis Set <==

  Basis Set: 6-311G
    Blend: 6-311G
    Number of shells: 99
    Number of basis function: 153
    Number of Cartesian functions: 153
    Spherical Harmonics?: true
    Max angular momentum: 1

  ==> DFJKGrad: Density-Fitted SCF Gradients <==

    Gradient:                    1
    J tasked:                  Yes
    K tasked:                  Yes
    wK tasked:                 Yes
    Omega:               2.000E-01
    OpenMP threads:              8
    Integrals threads:           8
    Memory [MiB]:              500
    Schwarz Cutoff:          0E+00
    Fitting Condition:       1E-10

   => Auxiliary Basis Set <=

  Basis Set: (6-311G AUX)
    Blend: CC-PVTZ-JKFIT
    Number of shells: 345
    Number of basis function: 1071
    Number of Cartesian functions: 1284
    Spherical Harmonics?: true
    Max angular momentum: 4

  ==> DFT Potential <==

   => Composite Functional: WB97X-D <= 

    wB97X-D Hyb-GGA Exchange-Correlation Functional

    J.-D. Chai and M. Head-Gordon, Phys. Chem. Chem. Phys. 10, 6615 (2008)

    Deriv               =              1
    GGA                 =           TRUE
    Meta                =          FALSE

    Exchange Hybrid     =           TRUE
    MP2 Hybrid          =          FALSE

   => Exchange-Correlation Functionals <=

    1.0000   wB97D range-separated functional

   => Exact (HF) Exchange <=

    0.7780            HF,LR [omega = 0.2000]
    0.2220               HF 

   => Molecular Quadrature <=

    Radial Scheme          =       TREUTLER
    Pruning Scheme         =           FLAT
    Nuclear Scheme         =       TREUTLER

    BS radius alpha        =              1
    Pruning alpha          =              1
    Radial Points          =             75
    Spherical Points       =            302
    Total Points           =         470061
    Total Blocks           =           3471
    Max Points             =            256
    Max Functions          =            141


  -Total Gradient:
     Atom            X                  Y                   Z
    ------   -----------------  -----------------  -----------------
       1       -0.003007162168    -0.003093102257    -0.003015604519
       2        0.004833589302     0.000173575767    -0.002921513900
       3        0.003322121015     0.003734073864     0.000809952475
       4       -0.002594248852    -0.001095131411     0.002306686628
       5       -0.001280537029    -0.002342124779     0.000194969823
       6       -0.000150279613     0.001139682336     0.001111680938
       7       -0.000429368081    -0.001394977802    -0.000848309319
       8       -0.000299571829     0.001200807742     0.000545522338
       9       -0.001420199421    -0.000213028238     0.000665921363
      10        0.000540260881     0.000101470009     0.000101757744
      11        0.000467981322     0.000459859980     0.000432906191
      12       -0.000604593403     0.000041238262     0.000348722526
      13       -0.000047412129     0.000070675794     0.000203790501
      14        0.000259204397     0.000287573614     0.000190879320
      15       -0.000212628797     0.000437242083     0.000036460593
      16        0.000124234527     0.000265549852     0.000162127628
      17        0.000269097875    -0.000026935695    -0.000289411780
      18        0.000308574778     0.000281302545    -0.000230665990
      19       -0.000140106117    -0.000177767300    -0.000065773580
      20        0.000025282128     0.000198547575     0.000070910020
      21        0.000042048271    -0.000077096716     0.000132587416


*** tstop() called on daniele-Precision-5750 at Wed Jun  2 00:25:31 2021
Module time:
	user time   =      36.70 seconds =       0.61 minutes
	system time =       0.40 seconds =       0.01 minutes
	total time  =          5 seconds =       0.08 minutes
Total time:
	user time   =     223.41 seconds =       3.72 minutes
	system time =       5.29 seconds =       0.09 minutes
	total time  =         30 seconds =       0.50 minutes

			-----------------------------------------
			 OPTKING 2.0: for geometry optimizations 
			  - R.A. King,  Bethel University        
			-----------------------------------------
	At level 1: Red. Int., RFO, no backsteps, dynamic trust

	Previous internal coordinate definitions found.
	---Fragment 1 Geometry and Gradient---
	 C          -2.5193763515       -0.5869285337        2.1327862756
	 C          -4.6971831401        0.5159078406        0.5336450122
	 C           0.0519420742       -0.1711809350        0.9578646995
	 C          -5.7572891157       -1.3518210536       -1.4003378278
	 C           1.3827802087        2.0593822614        1.4170934423
	 C           1.1142311144       -1.9580950352       -0.6692309246
	 C           3.7088150990        2.5021724955        0.2718071539
	 C           3.4402281921       -1.5226544919       -1.8207177594
	 C           4.7461361422        0.7106127404       -1.3513871315
	 H          -2.8371227697       -2.6048892840        2.4418329555
	 H          -2.5287034730        0.3029169541        3.9995462373
	 H          -6.2311950876        1.0887669717        1.7998658778
	 H          -4.0449577703        2.2336615855       -0.4101771414
	 H          -6.5022987768       -3.0283039610       -0.4545844264
	 H          -7.2838269505       -0.5005273520       -2.4970524100
	 H          -4.2916245689       -1.9597858157       -2.7218123556
	 H           0.5909456945        3.4627540417        2.6789112052
	 H           0.1140293519       -3.7050700944       -1.0341235510
	 H           4.7146220612        4.2403240024        0.6536256285
	 H           4.2347697079       -2.9281099294       -3.0746153832
	 H           6.5589402210        1.0479109974       -2.2330280319
	            -0.0030071622       -0.0030931023       -0.0030156045
	             0.0048335893        0.0001735758       -0.0029215139
	             0.0033221210        0.0037340739        0.0008099525
	            -0.0025942489       -0.0010951314        0.0023066866
	            -0.0012805370       -0.0023421248        0.0001949698
	            -0.0001502796        0.0011396823        0.0011116809
	            -0.0004293681       -0.0013949778       -0.0008483093
	            -0.0002995718        0.0012008077        0.0005455223
	            -0.0014201994       -0.0002130282        0.0006659214
	             0.0005402609        0.0001014700        0.0001017577
	             0.0004679813        0.0004598600        0.0004329062
	            -0.0006045934        0.0000412383        0.0003487225
	            -0.0000474121        0.0000706758        0.0002037905
	             0.0002592044        0.0002875736        0.0001908793
	            -0.0002126288        0.0004372421        0.0000364606
	             0.0001242345        0.0002655499        0.0001621276
	             0.0002690979       -0.0000269357       -0.0002894118
	             0.0003085748        0.0002813025       -0.0002306660
	            -0.0001401061       -0.0001777673       -0.0000657736
	             0.0000252821        0.0001985476        0.0000709100
	             0.0000420483       -0.0000770967        0.0001325874

	---Fragment 1 Intrafragment Coordinates---
	 - Coordinate -           - BOHR/RAD -       - ANG/DEG -
	 R(1,2)           =         2.918277	       1.544286
	 R(1,3)           =         2.857440	       1.512092
	 R(1,10)          =         2.066068	       1.093316
	 R(1,11)          =         2.068020	       1.094349
	 R(2,4)           =         2.890074	       1.529361
	 R(2,12)          =         2.069946	       1.095368
	 R(2,13)          =         2.065642	       1.093091
	 R(3,5)           =         2.637695	       1.395808
	 R(3,6)           =         2.639879	       1.396964
	 R(4,14)          =         2.063997	       1.092220
	 R(4,15)          =         2.063444	       1.091928
	 R(4,16)          =         2.064967	       1.092733
	 R(5,7)           =         2.630244	       1.391865
	 R(5,17)          =         2.046616	       1.083023
	 R(6,8)           =         2.631690	       1.392630
	 R(6,18)          =         2.045843	       1.082613
	 R(7,9)           =         2.630681	       1.392096
	 R(7,19)          =         2.044163	       1.081725
	 R(8,9)           =         2.629287	       1.391359
	 R(8,20)          =         2.044226	       1.081758
	 R(9,21)          =         2.043849	       1.081558
	 B(1,2,4)         =         1.978178	     113.341229
	 B(1,2,12)        =         1.899090	     108.809848
	 B(1,2,13)        =         1.906047	     109.208446
	 B(1,3,5)         =         2.100730	     120.362970
	 B(1,3,6)         =         2.114201	     121.134815
	 B(2,1,3)         =         1.972774	     113.031633
	 B(2,1,10)        =         1.913786	     109.651868
	 B(2,1,11)        =         1.905692	     109.188118
	 B(2,4,14)        =         1.929110	     110.529850
	 B(2,4,15)        =         1.939508	     111.125648
	 B(2,4,16)        =         1.937092	     110.987210
	 B(3,1,10)        =         1.919848	     109.999196
	 B(3,1,11)        =         1.888743	     108.217002
	 B(3,5,7)         =         2.109173	     120.846723
	 B(3,5,17)        =         2.085178	     119.471891
	 B(3,6,8)         =         2.109871	     120.886721
	 B(3,6,18)        =         2.084273	     119.420029
	 B(4,2,12)        =         1.892690	     108.443144
	 B(4,2,13)        =         1.925676	     110.333100
	 B(5,3,6)         =         2.067684	     118.469574
	 B(5,7,9)         =         2.097555	     120.181033
	 B(5,7,19)        =         2.090869	     119.797952
	 B(6,8,9)         =         2.096036	     120.094043
	 B(6,8,20)        =         2.092265	     119.877967
	 B(7,5,17)        =         2.088833	     119.681310
	 B(7,9,8)         =         2.086034	     119.520925
	 B(7,9,21)        =         2.098456	     120.232675
	 B(8,6,18)        =         2.089039	     119.693137
	 B(8,9,21)        =         2.098680	     120.245527
	 B(9,7,19)        =         2.094750	     120.020334
	 B(9,8,20)        =         2.094873	     120.027374
	 B(10,1,11)       =         1.859335	     106.532029
	 B(12,2,13)       =         1.858091	     106.460796
	 B(14,4,15)       =         1.887680	     108.156090
	 B(14,4,16)       =         1.886294	     108.076682
	 B(15,4,16)       =         1.882234	     107.844040
	*D(1,2,4,14)      =         1.050283	      60.176790
	 D(1,2,4,15)      =        -3.136884	    -179.730215
	 D(1,2,4,16)      =        -1.042413	     -59.725862
	 D(1,3,5,7)       =        -3.100023	    -177.618240
	 D(1,3,5,17)      =         0.039806	       2.280724
	 D(1,3,6,8)       =         3.099009	     177.560119
	 D(1,3,6,18)      =        -0.044714	      -2.561951
	*D(2,1,3,5)       =         1.513578	      86.721635
	*D(2,1,3,6)       =        -1.591189	     -91.168401
	*D(3,1,2,4)       =         1.563628	      89.589268
	 D(3,1,2,12)      =        -2.612429	    -149.681174
	 D(3,1,2,13)      =        -0.590854	     -33.853465
	 D(3,5,7,9)       =        -0.002960	      -0.169567
	 D(3,5,7,19)      =        -3.139315	    -179.869475
	 D(3,6,8,9)       =         0.004408	       0.252536
	 D(3,6,8,20)      =         3.141017	     179.967030
	 D(4,2,1,10)      =        -0.585264	     -33.533136
	 D(4,2,1,11)      =        -2.616339	    -149.905169
	 D(5,3,1,10)      =        -2.624078	    -150.348593
	 D(5,3,1,11)      =        -0.599273	     -34.335830
	 D(5,3,6,8)       =        -0.006438	      -0.368890
	 D(5,3,6,18)      =         3.133024	     179.509040
	 D(5,7,9,8)       =         0.000786	       0.045032
	 D(5,7,9,21)      =        -3.134891	    -179.616005
	 D(6,3,1,10)      =         0.554340	      31.761371
	 D(6,3,1,11)      =         2.579145	     147.774134
	 D(6,3,5,7)       =         0.005713	       0.327307
	 D(6,3,5,17)      =        -3.137643	    -179.773729
	 D(6,8,9,7)       =        -0.001501	      -0.086018
	 D(6,8,9,21)      =         3.134175	     179.574975
	 D(7,9,8,20)      =        -3.138103	    -179.800082
	 D(8,9,7,19)      =         3.137129	     179.744269
	 D(9,7,5,17)      =         3.140400	     179.931678
	 D(9,8,6,18)      =        -3.135049	    -179.625063
	 D(10,1,2,12)     =         1.521865	      87.196422
	 D(10,1,2,13)     =        -2.739746	    -156.975869
	 D(11,1,2,12)     =        -0.509210	     -29.175612
	 D(11,1,2,13)     =         1.512364	      86.652097
	 D(12,2,4,14)     =        -1.060459	     -60.759834
	 D(12,2,4,15)     =         1.035559	      59.333161
	 D(12,2,4,16)     =         3.130030	     179.337515
	 D(13,2,4,14)     =        -3.089230	    -176.999831
	 D(13,2,4,15)     =        -0.993212	     -56.906836
	 D(13,2,4,16)     =         1.101259	      63.097517
	 D(17,5,7,19)     =         0.004045	       0.231770
	 D(18,6,8,20)     =         0.001561	       0.089430
	 D(19,7,9,21)     =         0.001453	       0.083232
	 D(20,8,9,21)     =        -0.002428	      -0.139090
	 R(4,6)           =         6.936849	       3.670822

	Current energy   :      -350.0633899490

	Energy change for the previous step:
		Projected    :        -0.0059279195
		Actual       :        -0.0022950305

	Performing BFGS update.
	Previous computed or guess Hessian on step 1.
	Steps to be used in Hessian update: 1
	Taking RFO optimization step.
	Going to follow RFO solution 1.
	Using RFO vector 1.
	Norm of target step-size    0.04023
	Projected energy change by RFO approximation:        -0.0002427178

	Back-transformation to cartesian coordinates...
	Successfully converged to displaced geometry.

	Back-transformation to cartesian coordinates to adjust frozen coordinates...
	Successfully converged to displaced geometry.

	--- Internal Coordinate Step in ANG or DEG, aJ/ANG or AJ/DEG ---
	 ---------------------------------------------------------------------------
	   Coordinate                Previous        Force       Change         New 
	   ----------                --------       ------       ------       ------
	    1 R(1,2)          =      1.544286     0.013548     0.002546     1.546832
	    2 R(1,3)          =      1.512092     0.004980     0.000479     1.512571
	    3 R(1,10)         =      1.093316     0.001469     0.000205     1.093521
	    4 R(1,11)         =      1.094349    -0.004888    -0.000906     1.093443
	    5 R(2,4)          =      1.529361     0.008179     0.001440     1.530801
	    6 R(2,12)         =      1.095368    -0.005545    -0.001014     1.094354
	    7 R(2,13)         =      1.093091     0.000290    -0.000009     1.093082
	    8 R(3,5)          =      1.395808     0.026871     0.003498     1.399306
	    9 R(3,6)          =      1.396964     0.017148     0.002075     1.399038
	   10 R(4,14)         =      1.092220     0.002049     0.000320     1.092541
	   11 R(4,15)         =      1.091928    -0.002676    -0.000503     1.091424
	   12 R(4,16)         =      1.092733     0.000803     0.000111     1.092845
	   13 R(5,7)          =      1.391865     0.008724     0.000994     1.392859
	   14 R(5,17)         =      1.083023     0.002495     0.000353     1.083376
	   15 R(6,8)          =      1.392630     0.010062     0.001162     1.393793
	   16 R(6,18)         =      1.082613     0.002841     0.000409     1.083022
	   17 R(7,9)          =      1.392096     0.014558     0.001776     1.393872
	   18 R(7,19)         =      1.081725     0.001956     0.000254     1.081978
	   19 R(8,9)          =      1.391359     0.015464     0.001877     1.393236
	   20 R(8,20)         =      1.081758     0.001386     0.000157     1.081915
	   21 R(9,21)         =      1.081558     0.000295    -0.000029     1.081530
	   22 B(1,2,4)        =    113.341229    -0.000076    -0.365107   112.976122
	   23 B(1,2,12)       =    108.809848     0.000019     0.123515   108.933363
	   24 B(1,2,13)       =    109.208446     0.000026     0.009752   109.218198
	   25 B(1,3,5)        =    120.362970     0.000033     0.114223   120.477192
	   26 B(1,3,6)        =    121.134815     0.000018     0.004197   121.139012
	   27 B(2,1,3)        =    113.031633    -0.000057    -0.273078   112.758555
	   28 B(2,1,10)       =    109.651868    -0.000014    -0.292778   109.359089
	   29 B(2,1,11)       =    109.188118     0.000000     0.067833   109.255951
	   30 B(2,4,14)       =    110.529850     0.000026     0.097826   110.627677
	   31 B(2,4,15)       =    111.125648     0.000031     0.162758   111.288406
	   32 B(2,4,16)       =    110.987210     0.000021     0.074479   111.061689
	   33 B(3,1,10)       =    109.999196     0.000045     0.103775   110.102971
	   34 B(3,1,11)       =    108.217002     0.000038     0.381974   108.598976
	   35 B(3,5,7)        =    120.846723     0.000028     0.090443   120.937165
	   36 B(3,5,17)       =    119.471891    -0.000034    -0.140692   119.331199
	   37 B(3,6,8)        =    120.886721     0.000012     0.032901   120.919622
	   38 B(3,6,18)       =    119.420029    -0.000027    -0.118658   119.301372
	   39 B(4,2,12)       =    108.443144     0.000029     0.224706   108.667850
	   40 B(4,2,13)       =    110.333100     0.000016    -0.078634   110.254466
	   41 B(5,3,6)        =    118.469574    -0.000050    -0.118344   118.351230
	   42 B(5,7,9)        =    120.181033    -0.000016    -0.054397   120.126637
	   43 B(5,7,19)       =    119.797952     0.000008     0.026134   119.824085
	   44 B(6,8,9)        =    120.094043     0.000013     0.027401   120.121443
	   45 B(6,8,20)       =    119.877967    -0.000015    -0.050802   119.827165
	   46 B(7,5,17)       =    119.681310     0.000005     0.050100   119.731409
	   47 B(7,9,8)        =    119.520925     0.000012     0.022064   119.542990
	   48 B(7,9,21)       =    120.232675    -0.000008    -0.017593   120.215081
	   49 B(8,6,18)       =    119.693137     0.000015     0.084559   119.777696
	   50 B(8,9,21)       =    120.245527    -0.000004    -0.004231   120.241297
	   51 B(9,7,19)       =    120.020334     0.000008     0.028765   120.049100
	   52 B(9,8,20)       =    120.027374     0.000002     0.023804   120.051178
	   53 B(10,1,11)      =    106.532029    -0.000009     0.037527   106.569556
[...]
	 R(1,11)          =         2.066307	       1.093443
	 R(2,4)           =         2.892795	       1.530801
	 R(2,12)          =         2.068030	       1.094354
	 R(2,13)          =         2.065626	       1.093082
	 R(3,5)           =         2.644306	       1.399306
	 R(3,6)           =         2.643799	       1.399038
	 R(4,14)          =         2.064603	       1.092541
	 R(4,15)          =         2.062493	       1.091424
	 R(4,16)          =         2.065177	       1.092845
	 R(5,7)           =         2.632123	       1.392859
	 R(5,17)          =         2.047284	       1.083376
	 R(6,8)           =         2.633886	       1.393793
	 R(6,18)          =         2.046616	       1.083022
	 R(7,9)           =         2.634036	       1.393872
	 R(7,19)          =         2.044643	       1.081978
	 R(8,9)           =         2.632834	       1.393236
	 R(8,20)          =         2.044524	       1.081915
	 R(9,21)          =         2.043795	       1.081530
	 B(1,2,4)         =         1.971805	     112.976122
	 B(1,2,12)        =         1.901246	     108.933363
	 B(1,2,13)        =         1.906217	     109.218198
	 B(1,3,5)         =         2.102724	     120.477192
	 B(1,3,6)         =         2.114275	     121.139012
	 B(2,1,3)         =         1.968008	     112.758555
	 B(2,1,10)        =         1.908676	     109.359089
	 B(2,1,11)        =         1.906876	     109.255951
	 B(2,4,14)        =         1.930817	     110.627677
	 B(2,4,15)        =         1.942349	     111.288406
	 B(2,4,16)        =         1.938392	     111.061689
	 B(3,1,10)        =         1.921659	     110.102971
	 B(3,1,11)        =         1.895410	     108.598976
	 B(3,5,7)         =         2.110752	     120.937165
	 B(3,5,17)        =         2.082722	     119.331199
	 B(3,6,8)         =         2.110446	     120.919622
	 B(3,6,18)        =         2.082202	     119.301372
	 B(4,2,12)        =         1.896612	     108.667850
	 B(4,2,13)        =         1.924303	     110.254466
	 B(5,3,6)         =         2.065619	     118.351230
	 B(5,7,9)         =         2.096605	     120.126637
	 B(5,7,19)        =         2.091325	     119.824085
	 B(6,8,9)         =         2.096515	     120.121443
	 B(6,8,20)        =         2.091379	     119.827165
	 B(7,5,17)        =         2.089707	     119.731409
	 B(7,9,8)         =         2.086419	     119.542990
	 B(7,9,21)        =         2.098149	     120.215081
	 B(8,6,18)        =         2.090515	     119.777696
	 B(8,9,21)        =         2.098607	     120.241297
	 B(9,7,19)        =         2.095252	     120.049100
	 B(9,8,20)        =         2.095288	     120.051178
	 B(10,1,11)       =         1.859990	     106.569556
	 B(12,2,13)       =         1.860167	     106.579742
	 B(14,4,15)       =         1.886213	     108.072071
	 B(14,4,16)       =         1.883363	     107.908759
	 B(15,4,16)       =         1.880469	     107.742949
	*D(1,2,4,14)      =         1.050283	      60.176790
	 D(1,2,4,15)      =        -3.135720	    -179.663501
	 D(1,2,4,16)      =        -1.040709	     -59.628239
	 D(1,3,5,7)       =        -3.101805	    -177.720335
	 D(1,3,5,17)      =         0.042817	       2.453242
	 D(1,3,6,8)       =         3.100022	     177.618173
	 D(1,3,6,18)      =        -0.048854	      -2.799122
	*D(2,1,3,5)       =         1.513578	      86.721635
	*D(2,1,3,6)       =        -1.591189	     -91.168401
	*D(3,1,2,4)       =         1.563628	      89.589268
	 D(3,1,2,12)      =        -2.610102	    -149.547824
	 D(3,1,2,13)      =        -0.584763	     -33.504441
	 D(3,5,7,9)       =         0.000735	       0.042125
	 D(3,5,7,19)      =        -3.138176	    -179.804216
	 D(3,6,8,9)       =         0.002342	       0.134171
	 D(3,6,8,20)      =         3.141002	     179.966179
	 D(4,2,1,10)      =        -0.580533	     -33.262075
	 D(4,2,1,11)      =        -2.610183	    -149.552491
	 D(5,3,1,10)      =        -2.632716	    -150.843524
	 D(5,3,1,11)      =        -0.602328	     -34.510874
	 D(5,3,6,8)       =        -0.005508	      -0.315570
	 D(5,3,6,18)      =         3.128802	     179.267135
	 D(5,7,9,8)       =        -0.003989	      -0.228547
	 D(5,7,9,21)      =        -3.140546	    -179.940021
	 D(6,3,1,10)      =         0.545702	      31.266440
	 D(6,3,1,11)      =         2.576090	     147.599090
	 D(6,3,5,7)       =         0.003972	       0.227598
	 D(6,3,5,17)      =        -3.134591	    -179.598825
	 D(6,8,9,7)       =         0.002468	       0.141425
	 D(6,8,9,21)      =         3.139024	     179.852822
	 D(7,9,8,20)      =        -3.136186	    -179.690204
	 D(8,9,7,19)      =         3.134916	     179.617446
	 D(9,7,5,17)      =         3.139286	     179.867860
	 D(9,8,6,18)      =        -3.131933	    -179.446563
	 D(10,1,2,12)     =         1.528923	      87.600833
	 D(10,1,2,13)     =        -2.728923	    -156.355784
	 D(11,1,2,12)     =        -0.500728	     -28.689583
	 D(11,1,2,13)     =         1.524611	      87.353800
	 D(12,2,4,14)     =        -1.061805	     -60.836922
	 D(12,2,4,15)     =         1.035378	      59.322788
	 D(12,2,4,16)     =         3.130388	     179.358049
	 D(13,2,4,14)     =        -3.094578	    -177.306282
	 D(13,2,4,15)     =        -0.997396	     -57.146573
	 D(13,2,4,16)     =         1.097615	      62.888689
	 D(17,5,7,19)     =         0.000376	       0.021519
	 D(18,6,8,20)     =         0.006727	       0.385445
	 D(19,7,9,21)     =        -0.001641	      -0.094028
	 D(20,8,9,21)     =         0.000370	       0.021193
	 R(4,6)           =         6.919804	       3.661803

	Current energy   :      -350.0634519088

	Energy change for the previous step:
		Projected    :        -0.0002427178
		Actual       :        -0.0000619597

	Performing BFGS update.
	Previous computed or guess Hessian on step 1.
	Steps to be used in Hessian update: 2 1
	Taking RFO optimization step.
	Going to follow RFO solution 1.
	Using RFO vector 1.
	Norm of target step-size    0.01467
	Projected energy change by RFO approximation:        -0.0000151987

	Back-transformation to cartesian coordinates...
	Successfully converged to displaced geometry.

	Back-transformation to cartesian coordinates to adjust frozen coordinates...
	Successfully converged to displaced geometry.

	--- Internal Coordinate Step in ANG or DEG, aJ/ANG or AJ/DEG ---
	 ---------------------------------------------------------------------------
	   Coordinate                Previous        Force       Change         New 
	   ----------                --------       ------       ------       ------
	    1 R(1,2)          =      1.546832     0.006727     0.001710     1.548542
	    2 R(1,3)          =      1.512571    -0.002540    -0.000951     1.511620
	    3 R(1,10)         =      1.093521    -0.000023    -0.000022     1.093499
	    4 R(1,11)         =      1.093443    -0.001185    -0.000347     1.093096
	    5 R(2,4)          =      1.530801     0.000048    -0.000060     1.530741
	    6 R(2,12)         =      1.094354    -0.001598    -0.000439     1.093915
	    7 R(2,13)         =      1.093082    -0.000299    -0.000100     1.092982
	    8 R(3,5)          =      1.399306     0.001193     0.000301     1.399607
	    9 R(3,6)          =      1.399038     0.000616     0.000056     1.399094
	   10 R(4,14)         =      1.092541     0.000832     0.000178     1.092719
	   11 R(4,15)         =      1.091424     0.000296     0.000005     1.091429
	   12 R(4,16)         =      1.092845     0.000276     0.000050     1.092895
	   13 R(5,7)          =      1.392859    -0.001544    -0.000301     1.392559
	   14 R(5,17)         =      1.083376     0.000703     0.000129     1.083504
	   15 R(6,8)          =      1.393793     0.000050    -0.000018     1.393775
	   16 R(6,18)         =      1.083022     0.000528     0.000094     1.083117
	   17 R(7,9)          =      1.393872     0.001303     0.000248     1.394120
	   18 R(7,19)         =      1.081978     0.000159     0.000004     1.081982
	   19 R(8,9)          =      1.393236    -0.001110    -0.000143     1.393092
	   20 R(8,20)         =      1.081915     0.000368     0.000041     1.081956
	   21 R(9,21)         =      1.081530     0.000376     0.000029     1.081559
	   22 B(1,2,4)        =    112.976122    -0.000013    -0.139537   112.836585
	   23 B(1,2,12)       =    108.933363     0.000003     0.023106   108.956469
	   24 B(1,2,13)       =    109.218198     0.000006     0.045213   109.263411
	   25 B(1,3,5)        =    120.477192    -0.000000     0.025719   120.502911
	   26 B(1,3,6)        =    121.139012     0.000007    -0.006773   121.132239
	   27 B(2,1,3)        =    112.758555    -0.000014    -0.130290   112.628266
	   28 B(2,1,10)       =    109.359089     0.000001    -0.023426   109.335663
	   29 B(2,1,11)       =    109.255951     0.000003     0.014885   109.270836
	   30 B(2,4,14)       =    110.627677     0.000005     0.028246   110.655922
	   31 B(2,4,15)       =    111.288406     0.000010     0.078559   111.366966
	   32 B(2,4,16)       =    111.061689    -0.000008    -0.051743   111.009945
	   33 B(3,1,10)       =    110.102971     0.000009     0.074922   110.177893
	   34 B(3,1,11)       =    108.598976     0.000005     0.051733   108.650709
	   35 B(3,5,7)        =    120.937165     0.000001     0.003994   120.941159
	   36 B(3,5,17)       =    119.331199    -0.000009    -0.058403   119.272796
	   37 B(3,6,8)        =    120.919622     0.000003     0.012543   120.932166
	   38 B(3,6,18)       =    119.301372    -0.000006    -0.039321   119.262051
	   39 B(4,2,12)       =    108.667850     0.000004     0.034854   108.702704
	   40 B(4,2,13)       =    110.254466     0.000001    -0.005829   110.248637
	   41 B(5,3,6)        =    118.351230    -0.000006    -0.018933   118.332297
	   42 B(5,7,9)        =    120.126637     0.000003     0.006654   120.133291
	   43 B(5,7,19)       =    119.824085    -0.000001    -0.003993   119.820092
	   44 B(6,8,9)        =    120.121443     0.000000    -0.000154   120.121289
	   45 B(6,8,20)       =    119.827165    -0.000000    -0.004184   119.822981
	   46 B(7,5,17)       =    119.731409     0.000008     0.054635   119.786045
	   47 B(7,9,8)        =    119.542990    -0.000001    -0.004756   119.538234
	   48 B(7,9,21)       =    120.215081     0.000002     0.007829   120.222910
	   49 B(8,6,18)       =    119.777696     0.000002     0.027446   119.805142
	   50 B(8,9,21)       =    120.241297    -0.000001    -0.002808   120.238489
	   51 B(9,7,19)       =    120.049100    -0.000002    -0.003025   120.046075
	   52 B(9,8,20)       =    120.051178     0.000000     0.004053   120.055232
	   53 B(10,1,11)      =    106.569556    -0.000003     0.020721   106.590277
	   54 B(12,2,13)      =    106.579742    -0.000001     0.053395   106.633137
	   55 B(14,4,15)      =    108.072071    -0.000007    -0.015546   108.056525
	   56 B(14,4,16)      =    107.908759     0.000001    -0.025126   107.883633
	   57 B(15,4,16)      =    107.742949    -0.000002    -0.017717   107.725232
	   58 *D(1,2,4,14)    =     60.176790    -0.000000    -0.000000    60.176790
	   59 D(1,2,4,15)     =   -179.663501     0.000000     0.051411  -179.612089
	   60 D(1,2,4,16)     =    -59.628239     0.000000     0.046782   -59.581457
	   61 D(1,3,5,7)      =   -177.720335     0.000001     0.173303  -177.547032
	   62 D(1,3,5,17)     =      2.453242    -0.000000     0.002635     2.455878
	   63 D(1,3,6,8)      =    177.618173    -0.000001    -0.160386   177.457788
	   64 D(1,3,6,18)     =     -2.799122    -0.000000    -0.035045    -2.834166
	   65 *D(2,1,3,5)     =     86.721635     0.000000     0.000000    86.721635
	   66 *D(2,1,3,6)     =    -91.168401     0.000000    -0.000000   -91.168401
	   67 *D(3,1,2,4)     =     89.589268    -0.000000     0.000000    89.589268
	   68 D(3,1,2,12)     =   -149.547824    -0.000000    -0.030753  -149.578577
	   69 D(3,1,2,13)     =    -33.504441     0.000001     0.070923   -33.433518
	   70 D(3,5,7,9)      =      0.042125    -0.000001    -0.164136    -0.122011
	   71 D(3,5,7,19)     =   -179.804216    -0.000000    -0.050104  -179.854320
	   72 D(3,6,8,9)      =      0.134171     0.000001     0.139711     0.273882
	   73 D(3,6,8,20)     =    179.966179     0.000000     0.051148   180.017327
	   74 D(4,2,1,10)     =    -33.262075    -0.000001     0.010414   -33.251661
	   75 D(4,2,1,11)     =   -149.552491    -0.000000    -0.009661  -149.562151
	   76 D(5,3,1,10)     =   -150.843524    -0.000001    -0.066849  -150.910373
	   77 D(5,3,1,11)     =    -34.510874     0.000000     0.029708   -34.481166
	   78 D(5,3,6,8)      =     -0.315570    -0.000001    -0.161300    -0.476870
	   79 D(5,3,6,18)     =    179.267135    -0.000000    -0.035959   179.231176
	   80 D(5,7,9,8)      =     -0.228547     0.000001     0.137309    -0.091238
	   81 D(5,7,9,21)     =   -179.940021     0.000000     0.068762  -179.871258
	   82 D(6,3,1,10)     =     31.266440    -0.000001    -0.066849    31.199591
	   83 D(6,3,1,11)     =    147.599090     0.000000     0.029708   147.628798
	   84 D(6,3,5,7)      =      0.227598     0.000001     0.173522     0.401120
	   85 D(6,3,5,17)     =   -179.598825    -0.000000     0.002855  -179.595970
	   86 D(6,8,9,7)      =      0.141425    -0.000001    -0.125199     0.016227
	   87 D(6,8,9,21)     =    179.852822    -0.000000    -0.056610   179.796213
	   88 D(7,9,8,20)     =   -179.690204    -0.000000    -0.036415  -179.726619
	   89 D(8,9,7,19)     =    179.617446     0.000000     0.023017   179.640463
	   90 D(9,7,5,17)     =    179.867860     0.000000     0.007205   179.875065
	   91 D(9,8,6,18)     =   -179.446563     0.000000     0.013972  -179.432592
	   92 D(10,1,2,12)    =     87.600833    -0.000001    -0.020339    87.580494
	   93 D(10,1,2,13)    =   -156.355784     0.000000     0.081337  -156.274447
	   94 D(11,1,2,12)    =    -28.689583    -0.000000    -0.040414   -28.729997
	   95 D(11,1,2,13)    =     87.353800     0.000000     0.061263    87.415062
	   96 D(12,2,4,14)    =    -60.836922     0.000000     0.036993   -60.799928
	   97 D(12,2,4,15)    =     59.322788     0.000001     0.088404    59.411192
	   98 D(12,2,4,16)    =    179.358049     0.000000     0.083776   179.441825
	   99 D(13,2,4,14)    =   -177.306282    -0.000000    -0.044320  -177.350602
	  100 D(13,2,4,15)    =    -57.146573     0.000000     0.007092   -57.139481
	  101 D(13,2,4,16)    =     62.888689     0.000000     0.002463    62.891152
	  102 D(17,5,7,19)    =      0.021519     0.000001     0.121236     0.142756
	  103 D(18,6,8,20)    =      0.385445    -0.000000    -0.074591     0.310853
	  104 D(19,7,9,21)    =     -0.094028    -0.000000    -0.045530    -0.139558
	  105 D(20,8,9,21)    =      0.021193     0.000000     0.032174     0.053367
	  106 R(4,6)          =      3.661803    -0.001368    -0.005005     3.656797
	 ---------------------------------------------------------------------------
	Successfully symmetrized geometry.

  ==> Convergence Check <==

  Measures of convergence in internal coordinates in au.
  Criteria marked as inactive (o), active & met (*), and active & unmet ( ).
  ---------------------------------------------------------------------------------------------
   Step     Total Energy     Delta E     MAX Force     RMS Force      MAX Disp      RMS Disp   
  ---------------------------------------------------------------------------------------------
    Convergence Criteria             o    2.50e-03 *    1.70e-03 *    1.00e-02 *    6.70e-03 *
  ---------------------------------------------------------------------------------------------
      3    -350.06345191   -6.20e-05 o    8.16e-04 *    1.06e-04 *    9.46e-03 *    1.42e-03 *  ~
  ---------------------------------------------------------------------------------------------


  **** Optimization is complete! (in 3 steps) ****

  ==> Optimization Summary <==

  Measures of convergence in internal coordinates in au.
  --------------------------------------------------------------------------------------------------------------- ~
   Step         Total Energy             Delta E       MAX Force       RMS Force        MAX Disp        RMS Disp  ~
  --------------------------------------------------------------------------------------------------------------- ~
      1    -350.061094918565   -350.061094918565      0.01620856      0.00391441      0.06464613      0.01895045  ~
      2    -350.063389949030     -0.002295030465      0.00326158      0.00057441      0.01704508      0.00390756  ~
      3    -350.063451908751     -0.000061959721      0.00081647      0.00010639      0.00945831      0.00142450  ~
  --------------------------------------------------------------------------------------------------------------- ~

	Writing optimization data to binary file.
	Final energy is   -350.0634519087510
	Final (previous) structure:
	Cartesian Geometry (in Angstrom)
	    C    -1.3322083190  -0.3110139597   1.1364589839
	    C    -2.4852250881   0.2765391642   0.2890966897
	    C     0.0262839634  -0.0905610085   0.5089477420
	    C    -3.0427713514  -0.7178329175  -0.7325289820
	    C     0.7354500481   1.0916445989   0.7488048095
	    C     0.5856591466  -1.0369162620  -0.3563958485
	    C     1.9656424618   1.3250382997   0.1387136993
	    C     1.8155052549  -0.8070647247  -0.9706472628
	    C     2.5089996999   0.3762522189  -0.7258364113
	    H    -1.5051515751  -1.3794117982   1.2926789574
	    H    -1.3388196176   0.1539214064   2.1261095497
	    H    -3.2957509753   0.5840315408   0.9570093405
	    H    -2.1362701139   1.1814433280  -0.2150928221
	    H    -3.4368842818  -1.6047790118  -0.2308849348
	    H    -3.8494499454  -0.2736658913  -1.3183550978
	    H    -2.2656179900  -1.0429497830  -1.4286909082
	    H     0.3200891686   1.8325150087   1.4213295161
	    H     0.0555737260  -1.9625974861  -0.5436420418
	    H     2.5001166586   2.2441126077   0.3395050795
	    H     2.2319889591  -1.5513355925  -1.6363370822
	    H     3.4645715946   0.5555748750  -1.1995792724
	Saving final (previous) structure.
			--------------------------
			 OPTKING Finished Execution 
			--------------------------

    Final optimized geometry and variables:
    Molecular point group: c1
    Full point group: C1

    Geometry (in Angstrom), charge = 0, multiplicity = 1:

    C           -1.332208324269    -0.311013960904     1.136458988337
    C           -2.485225097900     0.276539165319     0.289096690827
    C            0.026283963499    -0.090561008847     0.508947743976
    C           -3.042771363313    -0.717832920325    -0.732528984833
    C            0.735450051022     1.091644603154     0.748804812402
    C            0.585659148906    -1.036916266026    -0.356395849889
    C            1.965642469521     1.325038304944     0.138713699871
    C            1.815505262046    -0.807064727842    -0.970647266629
    C            2.508999709783     0.376252220426    -0.725836414196
    H           -1.505151581026    -1.379411803581     1.292678962460
    H           -1.338819622899     0.153921407041     2.126109558023
    H           -3.295750988282     0.584031543066     0.957009344231
    H           -2.136270122252     1.181443332607    -0.215092822960
    H           -3.436884295304    -1.604779018139    -0.230884935662
    H           -3.849449960509    -0.273665892411    -1.318355102978
    H           -2.265617998862    -1.042949787075    -1.428690913766
    H            0.320089169872     1.832515015888     1.421329521720
    H            0.055573726181    -1.962597493767    -0.543642043944
    H            2.500116668400     2.244112616568     0.339505080802
    H            2.231988967905    -1.551335598643    -1.636337088642
    H            3.464571608206     0.555574877147    -1.199579277077

	Removing binary optimization data file.
	Cleaning optimization helper files.

    Psi4 stopped on: Wednesday, 02 June 2021 12:25AM
    Psi4 wall time for execution: 0:00:41.99

*** Psi4 exiting successfully. Buy a developer a beer!
