
    -----------------------------------------------------------------------
          Psi4: An Open-Source Ab Initio Electronic Structure Package
                               Psi4 1.3.2 release

                         Git: Rev {HEAD} ecbda83 


    R. M. Parrish, L. A. Burns, D. G. A. Smith, A. C. Simmonett,
    A. E. DePrince III, E. G. Hohenstein, U. Bozkaya, A. Yu. Sokolov,
    R. Di Remigio, R. M. Richard, J. F. Gonthier, A. M. James,
    H. R. McAlexander, A. Kumar, M. Saitow, X. Wang, B. P. Pritchard,
    P. Verma, H. F. Schaefer III, K. Patkowski, R. A. King, E. F. Valeev,
    F. A. Evangelista, J. M. Turney, T. D. Crawford, and C. D. Sherrill,
    J. Chem. Theory Comput. 13(7) pp 3185--3197 (2017).
    (doi: 10.1021/acs.jctc.7b00174)


                         Additional Contributions by
    P. Kraus, H. Kruse, M. H. Lechner, M. C. Schieber, R. A. Shaw,
    A. Alenaizan, R. Galvelis, Z. L. Glick, S. Lehtola, and J. P. Misiewicz

    -----------------------------------------------------------------------


    Psi4 started on: Wednesday, 02 June 2021 12:55AM

    Process ID: 80630
    Host:       daniele-Precision-5750
    PSIDATADIR: /home/daniele/anaconda3/envs/poltype/share/psi4
    Memory:     500.0 MiB
    Threads:    1
    
  ==> Input File <==

--------------------------------------------------------------------------
molecule { 
0 1
 C   -1.384745   -0.303365    0.670920
 C   -2.361306   -0.461816   -0.502436
 C    0.062500   -0.026220    0.303498
 C   -3.791184   -0.733950   -0.027910
 C    0.840120    0.791277    1.131901
 C    0.647468   -0.518837   -0.867884
 C    2.165859    1.082062    0.821825
 C    1.973828   -0.229403   -1.183372
 C    2.739793    0.569705   -0.339195
 H   -1.429047   -1.214475    1.280404
 H   -1.740561    0.504815    1.316812
 H   -2.332753    0.440732   -1.119480
 H   -2.043961   -1.288067   -1.143285
 H   -4.161527    0.086516    0.591215
 H   -4.473253   -0.850102   -0.871971
 H   -3.836003   -1.648294    0.568376
 H    0.399184    1.203862    2.031077
 H    0.072883   -1.137577   -1.542546
 H    2.746455    1.713789    1.480739
 H    2.405781   -0.625311   -2.092789
 H    3.767937    0.796464   -0.586026
}
memory 700MB
set_num_threads(8)
psi4_io.set_default_path("/home/daniele/PSI4_sctatch/Psi4-propbenzene")
set freeze_core True
E, wfn = energy('wb97x-d/6-311+G*',return_wfn=True)
oeprop(wfn,"WIBERG_LOWDIN_INDICES")
clean()
--------------------------------------------------------------------------

  Memory set to 667.572 MiB by Python driver.
  Threads set to 8 by Python driver.

*** tstart() called on daniele-Precision-5750
*** at Wed Jun  2 00:55:58 2021

   => Loading Basis Set <=

    Name: 6-311+G*
    Role: ORBITAL
    Keyword: BASIS
    atoms 1-9   entry C          line   130 file /home/daniele/anaconda3/envs/poltype/share/psi4/basis/6-311pgs.gbs 
    atoms 10-21 entry H          line    47 file /home/daniele/anaconda3/envs/poltype/share/psi4/basis/6-311pgs.gbs 


         ---------------------------------------------------------
                                   SCF
               by Justin Turney, Rob Parrish, Andy Simmonett
                          and Daniel G. A. Smith
                              RKS Reference
                        8 Threads,    667 MiB Core
         ---------------------------------------------------------

  ==> Geometry <==

    Molecular point group: c1
    Full point group: C1

    Geometry (in Angstrom), charge = 0, multiplicity = 1:

       Center              X                  Y                   Z               Mass       
    ------------   -----------------  -----------------  -----------------  -----------------
         C           -1.384744925799    -0.303364998662     0.670919954093    12.000000000000
         C           -2.361305925799    -0.461815998662    -0.502436045907    12.000000000000
         C            0.062500074201    -0.026219998662     0.303497954093    12.000000000000
         C           -3.791183925799    -0.733949998662    -0.027910045907    12.000000000000
         C            0.840120074201     0.791277001338     1.131900954093    12.000000000000
         C            0.647468074201    -0.518836998662    -0.867884045907    12.000000000000
         C            2.165859074201     1.082062001338     0.821824954093    12.000000000000
         C            1.973828074201    -0.229402998662    -1.183372045907    12.000000000000
         C            2.739793074201     0.569705001338    -0.339195045907    12.000000000000
         H           -1.429046925799    -1.214474998662     1.280403954093     1.007825032230
         H           -1.740560925799     0.504815001338     1.316811954093     1.007825032230
         H           -2.332752925799     0.440732001338    -1.119480045907     1.007825032230
         H           -2.043960925799    -1.288066998662    -1.143285045907     1.007825032230
         H           -4.161526925799     0.086516001338     0.591214954093     1.007825032230
         H           -4.473252925799    -0.850101998662    -0.871971045907     1.007825032230
         H           -3.836002925799    -1.648293998662     0.568375954093     1.007825032230
         H            0.399184074201     1.203862001338     2.031076954093     1.007825032230
         H            0.072883074201    -1.137576998662    -1.542546045907     1.007825032230
         H            2.746455074201     1.713789001338     1.480738954093     1.007825032230
         H            2.405781074201    -0.625310998662    -2.092789045907     1.007825032230
         H            3.767937074201     0.796464001338    -0.586026045907     1.007825032230

  Running in c1 symmetry.

  Rotational constants: A =      0.15403  B =      0.02818  C =      0.02444 [cm^-1]
  Rotational constants: A =   4617.78089  B =    844.77719  C =    732.67126 [MHz]
  Nuclear repulsion =  410.363756169124770

  Charge       = 0
  Multiplicity = 1
  Electrons    = 66
  Nalpha       = 33
  Nbeta        = 33

  ==> Algorithm <==

  SCF Algorithm Type is DF.
  DIIS enabled.
  MOM disabled.
  Fractional occupation disabled.
  Guess Type is SAD.
  Energy threshold   = 1.00e-06
  Density threshold  = 1.00e-06
  Integral threshold = 0.00e+00

  ==> Primary Basis <==

  Basis Set: 6-311+G*
    Blend: 6-311+G*
    Number of shells: 126
    Number of basis function: 234
    Number of Cartesian functions: 243
    Spherical Harmonics?: true
    Max angular momentum: 2

  ==> DFT Potential <==

   => Composite Functional: WB97X-D <= 

    wB97X-D Hyb-GGA Exchange-Correlation Functional

    J.-D. Chai and M. Head-Gordon, Phys. Chem. Chem. Phys. 10, 6615 (2008)

    Deriv               =              1
    GGA                 =           TRUE
    Meta                =          FALSE

    Exchange Hybrid     =           TRUE
    MP2 Hybrid          =          FALSE

   => Exchange-Correlation Functionals <=

    1.0000   wB97D range-separated functional

   => Exact (HF) Exchange <=

    0.7780            HF,LR [omega = 0.2000]
    0.2220               HF 

   => Molecular Quadrature <=

    Radial Scheme          =       TREUTLER
    Pruning Scheme         =           FLAT
    Nuclear Scheme         =       TREUTLER

    BS radius alpha        =              1
    Pruning alpha          =              1
    Radial Points          =             75
    Spherical Points       =            302
    Total Points           =         475650
    Total Blocks           =           3507
    Max Points             =            256
    Max Functions          =            223

   => WB97X-D: Empirical Dispersion <=

    Chai and Head-Gordon Dispersion Correction
    Chai, J.-D.; Head-Gordon, M. (2010), J. Chem. Phys., 132: 6615-6620

        s6 =       1.000000

   => Loading Basis Set <=

    Name: (6-311+G* AUX)
    Role: JKFIT
    Keyword: DF_BASIS_SCF
    atoms 1-9   entry C          line   200 file /home/daniele/anaconda3/envs/poltype/share/psi4/basis/heavy-aug-cc-pvtz-jkfit.gbs 
    atoms 10-21 entry H          line   116 file /home/daniele/anaconda3/envs/poltype/share/psi4/basis/heavy-aug-cc-pvtz-jkfit.gbs 

  ==> Pre-Iterations <==

   -------------------------------------------------------
    Irrep   Nso     Nmo     Nalpha   Nbeta   Ndocc  Nsocc
   -------------------------------------------------------
     A        234     234       0       0       0       0
   -------------------------------------------------------
    Total     234     234      33      33      33       0
   -------------------------------------------------------

  ==> Integral Setup <==

  ==> DiskDFJK: Density-Fitted J/K Matrices <==

    J tasked:                  Yes
    K tasked:                  Yes
    wK tasked:                 Yes
    Omega:               2.000E-01
    OpenMP threads:              8
    Integrals threads:           8
    Memory [MiB]:              296
    Algorithm:                Disk
    Integral Cache:           NONE
    Schwarz Cutoff:          1E-12
    Fitting Condition:       1E-10

   => Auxiliary Basis Set <=

  Basis Set: (6-311+G* AUX)
    Blend: HEAVY-AUG-CC-PVTZ-JKFIT
    Number of shells: 390
    Number of basis function: 1296
    Number of Cartesian functions: 1599
    Spherical Harmonics?: true
    Max angular momentum: 4

  Cached 10.0% of DFT collocation blocks in 0.223 [GiB].

  Minimum eigenvalue in the overlap matrix is 2.3726067545E-06.
  Using Symmetric Orthogonalization.

  SCF Guess: Superposition of Atomic Densities via on-the-fly atomic UHF.

  ==> Iterations <==

                           Total Energy        Delta E     RMS |[F,P]|

   @DF-RKS iter SAD:  -349.47911296681610   -3.49479e+02   0.00000e+00 
   @DF-RKS iter   1:  -349.62610049030297   -1.46988e-01   4.15179e-03 DIIS
   @DF-RKS iter   2:  -349.86820124986616   -2.42101e-01   3.14215e-03 DIIS
   @DF-RKS iter   3:  -350.14201907474290   -2.73818e-01   2.05683e-04 DIIS
   @DF-RKS iter   4:  -350.14319663969138   -1.17756e-03   1.09854e-04 DIIS
   @DF-RKS iter   5:  -350.14350903092890   -3.12391e-04   4.31871e-05 DIIS
   @DF-RKS iter   6:  -350.14356110671673   -5.20758e-05   8.58632e-06 DIIS
   @DF-RKS iter   7:  -350.14356326502411   -2.15831e-06   2.67971e-06 DIIS
   @DF-RKS iter   8:  -350.14356350372549   -2.38701e-07   5.15569e-07 DIIS
  Energy and wave function converged.


  ==> Post-Iterations <==

    Orbital Energies [Eh]
    ---------------------

    Doubly Occupied:                                                      

       1A    -10.295586     2A    -10.286341     3A    -10.286283  
       4A    -10.284403     5A    -10.284065     6A    -10.283665  
       7A    -10.283616     8A    -10.280814     9A    -10.271017  
      10A     -0.961107    11A     -0.899408    12A     -0.848921  
      13A     -0.844532    14A     -0.776731    15A     -0.710016  
      16A     -0.691749    17A     -0.666799    18A     -0.606454  
      19A     -0.561396    20A     -0.547279    21A     -0.537387  
      22A     -0.517884    23A     -0.505980    24A     -0.492714  
      25A     -0.476851    26A     -0.453547    27A     -0.445778  
      28A     -0.433829    29A     -0.419033    30A     -0.414182  
      31A     -0.405654    32A     -0.328328    33A     -0.318309  

    Virtual:                                                              

      34A      0.055761    35A      0.058101    36A      0.063823  
      37A      0.072685    38A      0.075090    39A      0.089735  
      40A      0.092273    41A      0.094112    42A      0.104751  
      43A      0.118382    44A      0.119070    45A      0.122189  
      46A      0.128479    47A      0.135085    48A      0.145065  
      49A      0.149790    50A      0.158047    51A      0.159648  
      52A      0.178491    53A      0.182959    54A      0.190313  
      55A      0.195055    56A      0.204232    57A      0.206575  
      58A      0.213927    59A      0.216862    60A      0.222242  
      61A      0.226915    62A      0.230718    63A      0.240537  
      64A      0.245149    65A      0.253536    66A      0.257983  
      67A      0.264691    68A      0.267130    69A      0.270829  
      70A      0.274813    71A      0.281253    72A      0.289042  
      73A      0.291894    74A      0.297913    75A      0.302665  
      76A      0.303058    77A      0.314252    78A      0.319495  
      79A      0.324695    80A      0.328280    81A      0.331698  
      82A      0.337556    83A      0.342187    84A      0.350430  
      85A      0.359564    86A      0.391966    87A      0.395259  
      88A      0.405125    89A      0.421348    90A      0.433140  
      91A      0.436276    92A      0.491604    93A      0.508944  
      94A      0.529046    95A      0.548573    96A      0.565603  
      97A      0.574526    98A      0.597558    99A      0.615968  
     100A      0.622767   101A      0.624746   102A      0.629203  
     103A      0.631125   104A      0.644533   105A      0.663412  
     106A      0.675766   107A      0.689769   108A      0.702226  
     109A      0.709748   110A      0.721521   111A      0.733007  
     112A      0.736073   113A      0.749189   114A      0.765752  
     115A      0.769023   116A      0.776157   117A      0.781702  
     118A      0.791809   119A      0.793640   120A      0.798232  
     121A      0.812350   122A      0.825720   123A      0.838754  
     124A      0.845221   125A      0.870952   126A      0.884770  
     127A      0.897909   128A      0.920488   129A      0.931724  
     130A      0.944543   131A      0.955984   132A      0.976012  
     133A      0.988753   134A      0.992413   135A      1.018156  
     136A      1.071837   137A      1.092778   138A      1.107176  
     139A      1.118812   140A      1.135451   141A      1.165908  
     142A      1.200058   143A      1.241740   144A      1.292662  
     145A      1.309780   146A      1.318616   147A      1.356734  
     148A      1.407521   149A      1.467854   150A      1.497450  
     151A      1.560148   152A      1.588273   153A      1.607124  
     154A      1.624187   155A      1.634157   156A      1.639704  
     157A      1.650663   158A      1.674401   159A      1.700911  
     160A      1.743782   161A      1.769723   162A      1.809015  
     163A      1.830920   164A      1.853234   165A      1.873509  
     166A      1.887639   167A      1.895344   168A      1.940342  
     169A      1.949789   170A      1.968250   171A      2.016156  
     172A      2.024012   173A      2.042879   174A      2.082425  
     175A      2.091485   176A      2.133573   177A      2.157374  
     178A      2.232477   179A      2.282056   180A      2.356239  
     181A      2.377257   182A      2.404659   183A      2.439497  
     184A      2.442497   185A      2.491629   186A      2.507044  
     187A      2.586950   188A      2.601036   189A      2.621080  
     190A      2.622401   191A      2.676740   192A      2.696446  
     193A      2.721247   194A      2.764265   195A      2.777929  
     196A      2.792827   197A      2.881922   198A      2.888666  
     199A      2.908117   200A      2.983767   201A      3.010973  
     202A      3.022844   203A      3.082273   204A      3.148753  
     205A      3.186751   206A      3.226066   207A      3.245662  
     208A      3.271308   209A      3.313665   210A      3.321755  
     211A      3.370738   212A      3.414643   213A      3.418122  
     214A      3.429225   215A      3.455923   216A      3.544763  
     217A      3.652096   218A      3.733558   219A      3.758989  
     220A      3.810707   221A      4.000992   222A      4.090016  
     223A      4.132284   224A      4.366653   225A      4.898135  
     226A     23.431313   227A     23.650366   228A     23.803692  
     229A     23.872350   230A     23.980106   231A     24.008008  
     232A     24.172268   233A     24.184487   234A     24.286349  

    Final Occupation by Irrep:
              A 
    DOCC [    33 ]

  @DF-RKS Final Energy:  -350.14356350372549

   => Energetics <=

    Nuclear Repulsion Energy =            410.3637561691247697
    One-Electron Energy =               -1283.5220331686118698
    Two-Electron Energy =                 559.4321727380590801
    DFT Exchange-Correlation Energy =     -36.4059023575486620
    Empirical Dispersion Energy =          -0.0115568847488470
    VV10 Nonlocal Energy =                  0.0000000000000000
    Total Energy =                       -350.1435635037254883

Computation Completed


Properties will be evaluated at   0.000000,   0.000000,   0.000000 [a0]

Properties computed using the SCF density matrix

  Nuclear Dipole Moment: [e a0]
     X:    -9.9605      Y:    -1.8915      Z:    -0.0820

  Electronic Dipole Moment: [e a0]
     X:     9.7850      Y:     1.8643      Z:     0.0819

  Dipole Moment: [e a0]
     X:    -0.1755      Y:    -0.0271      Z:    -0.0001     Total:     0.1776

  Dipole Moment: [D]
     X:    -0.4460      Y:    -0.0690      Z:    -0.0004     Total:     0.4513


*** tstop() called on daniele-Precision-5750 at Wed Jun  2 00:56:19 2021
Module time:
	user time   =     153.19 seconds =       2.55 minutes
	system time =       4.86 seconds =       0.08 minutes
	total time  =         21 seconds =       0.35 minutes
Total time:
	user time   =     153.19 seconds =       2.55 minutes
	system time =       4.86 seconds =       0.08 minutes
	total time  =         21 seconds =       0.35 minutes


Properties will be evaluated at   0.000000,   0.000000,   0.000000 [a0]
OEProp: No title given, name of density matrix used for the following properties is 'SCF density'


  Wiberg Bond Indices using Orthogonal Lowdin Orbitals:

  Irrep: 1 Size: 21 x 21

                 1                   2                   3                   4                   5

    1     0.00000000000000     1.13548557269559     1.08171370057111     0.11372618932321     0.12992459174857
    2     1.13548557269559     0.00000000000000     0.09631043157490     1.20162354782101     0.01959324122923
    3     1.08171370057111     0.09631043157490     0.00000000000000     0.01806701396319     1.44208667757743
    4     0.11372618932321     1.20162354782101     0.01806701396319     0.00000000000000     0.00301091528379
    5     0.12992459174857     0.01959324122923     1.44208667757743     0.00301091528379     0.00000000000000
    6     0.11193182472766     0.05459083358556     1.44184425034906     0.00612227434536     0.13373254051468
    7     0.01766787974602     0.00313524217029     0.13387919989915     0.00063349130273     1.52853429252261
    8     0.01698056460715     0.00552481299279     0.13353024058705     0.00073721450848     0.14771193133348
    9     0.00902591601020     0.00332120667811     0.14015126249855     0.00056413017967     0.13789054844223
   10     0.83872381556001     0.03663925679292     0.04194642773719     0.01317068970490     0.01479731423326
   11     0.84554174378516     0.03652053114648     0.04347724570867     0.01285780595163     0.02017757628385
   12     0.03812285795538     0.86027234579085     0.01239313655338     0.03824937290209     0.00177664859413
   13     0.03805277799342     0.85891211172090     0.01045705268094     0.03843026049892     0.00083834890513
   14     0.01452083789309     0.04243884042029     0.00127539205711     0.90860318322455     0.00016579164054
   15     0.01188761426190     0.04782273098686     0.00141978537651     0.91451007361847     0.00036000829361
   16     0.01488770361954     0.04174831748296     0.00132825942513     0.90867148594309     0.00026227529716
   17     0.01979068399789     0.00155881988432     0.05661768610719     0.00015589362910     0.82200828370917
   18     0.01509415528796     0.01513568165349     0.05526422164661     0.00135989628931     0.01012757906188
   19     0.00110446600604     0.00029294675525     0.01057665447711     0.00007883864137     0.06021550196735
   20     0.00107908328742     0.00026741180092     0.01048237911940     0.00007342760368     0.00245492024636
   21     0.00034258929169     0.00011362452001     0.00276353003227     0.00002564106183     0.01129978562583

                 6                   7                   8                   9                  10

    1     0.11193182472766     0.01766787974602     0.01698056460715     0.00902591601020     0.83872381556001
    2     0.05459083358556     0.00313524217029     0.00552481299279     0.00332120667811     0.03663925679292
    3     1.44184425034906     0.13387919989915     0.13353024058705     0.14015126249855     0.04194642773719
    4     0.00612227434536     0.00063349130273     0.00073721450848     0.00056413017967     0.01317068970490
    5     0.13373254051468     1.52853429252261     0.14771193133348     0.13789054844223     0.01479731423326
    6     0.00000000000000     0.14639864994656     1.52082908019905     0.13757381996542     0.01569875203201
    7     0.14639864994656     0.00000000000000     0.13813606713572     1.51969511535026     0.00102143609104
    8     1.52082908019905     0.13813606713572     0.00000000000000     1.52508394131320     0.00090004032181
    9     0.13757381996542     1.51969511535026     1.52508394131320     0.00000000000000     0.00446441821222
   10     0.01569875203201     0.00102143609104     0.00090004032181     0.00446441821222     0.00000000000000
   11     0.00863442368237     0.00160258393998     0.00090874674001     0.00139368344712     0.00626587167687
   12     0.00675202561916     0.00034990870761     0.00058961985941     0.00028598519213     0.00770440648523
   13     0.01311489859442     0.00018614014150     0.00106780031488     0.00032399235366     0.00476620457621
   14     0.00080806352914     0.00004111303315     0.00010169397068     0.00005232138628     0.00056460118962
   15     0.00026131220453     0.00007621942484     0.00004092889735     0.00003996249899     0.00040427701596
   16     0.00062126706853     0.00007145969682     0.00009085283675     0.00006552680269     0.00125367625686
   17     0.01045938893294     0.05733049243329     0.00245289903700     0.01097041328192     0.00012331737168
   18     0.81564831615091     0.00229384216324     0.05650691355847     0.01058539888013     0.00015789081253
   19     0.00249421435540     0.83489835388707     0.01140405752777     0.05897827272847     0.00010216478168
   20     0.05986567849615     0.01146597428509     0.83499254963873     0.05910667445521     0.00007743248151
   21     0.01117494857157     0.05915300529569     0.05929432430657     0.83620677486117     0.00003638919065

                11                  12                  13                  14                  15

    1     0.84554174378516     0.03812285795538     0.03805277799342     0.01452083789309     0.01188761426190
    2     0.03652053114648     0.86027234579085     0.85891211172090     0.04243884042029     0.04782273098686
    3     0.04347724570867     0.01239313655338     0.01045705268094     0.00127539205711     0.00141978537651
    4     0.01285780595163     0.03824937290209     0.03843026049892     0.90860318322455     0.91451007361847
    5     0.02017757628385     0.00177664859413     0.00083834890513     0.00016579164054     0.00036000829361
    6     0.00863442368237     0.00675202561916     0.01311489859442     0.00080806352914     0.00026131220453
    7     0.00160258393998     0.00034990870761     0.00018614014150     0.00004111303315     0.00007621942484
    8     0.00090874674001     0.00058961985941     0.00106780031488     0.00010169397068     0.00004092889735
    9     0.00139368344712     0.00028598519213     0.00032399235366     0.00005232138628     0.00003996249899
   10     0.00626587167687     0.00770440648523     0.00476620457621     0.00056460118962     0.00040427701596
   11     0.00000000000000     0.00423696576903     0.00852729600561     0.00112765035375     0.00033508855290
   12     0.00423696576903     0.00000000000000     0.00687824497351     0.00368072581838     0.00296321706362
   13     0.00852729600561     0.00687824497351     0.00000000000000     0.00957947914603     0.00326164529158
   14     0.00112765035375     0.00368072581838     0.00957947914603     0.00000000000000     0.00948446710074
   15     0.00033508855290     0.00296321706362     0.00326164529158     0.00948446710074     0.00000000000000
   16     0.00057478840129     0.00984947632424     0.00382936751330     0.00800313475584     0.00950147113724
   17     0.00224404682312     0.00001541486729     0.00018280715056     0.00000922098382     0.00005374047302
   18     0.00032193692278     0.00055252903645     0.00382171534708     0.00030305722845     0.00005540332338
   19     0.00003514548218     0.00002711844829     0.00004359790122     0.00000427990935     0.00001876765906
   20     0.00031425786374     0.00001460972602     0.00003986110100     0.00000725952622     0.00000985611134
   21     0.00004423581899     0.00001066883379     0.00004098829421     0.00000868517372     0.00000148261543

                16                  17                  18                  19                  20

    1     0.01488770361954     0.01979068399789     0.01509415528796     0.00110446600604     0.00107908328742
    2     0.04174831748296     0.00155881988432     0.01513568165349     0.00029294675525     0.00026741180092
    3     0.00132825942513     0.05661768610719     0.05526422164661     0.01057665447711     0.01048237911940
    4     0.90867148594309     0.00015589362910     0.00135989628931     0.00007883864137     0.00007342760368
    5     0.00026227529716     0.82200828370917     0.01012757906188     0.06021550196735     0.00245492024636
    6     0.00062126706853     0.01045938893294     0.81564831615091     0.00249421435540     0.05986567849615
    7     0.00007145969682     0.05733049243329     0.00229384216324     0.83489835388707     0.01146597428509
    8     0.00009085283675     0.00245289903700     0.05650691355847     0.01140405752777     0.83499254963873
    9     0.00006552680269     0.01097041328192     0.01058539888013     0.05897827272847     0.05910667445521
   10     0.00125367625686     0.00012331737168     0.00015789081253     0.00010216478168     0.00007743248151
   11     0.00057478840129     0.00224404682312     0.00032193692278     0.00003514548218     0.00031425786374
   12     0.00984947632424     0.00001541486729     0.00055252903645     0.00002711844829     0.00001460972602
   13     0.00382936751330     0.00018280715056     0.00382171534708     0.00004359790122     0.00003986110100
   14     0.00800313475584     0.00000922098382     0.00030305722845     0.00000427990935     0.00000725952622
   15     0.00950147113724     0.00005374047302     0.00005540332338     0.00001876765906     0.00000985611134
   16     0.00000000000000     0.00002611771300     0.00000435464972     0.00000742855201     0.00000441411800
   17     0.00002611771300     0.00000000000000     0.00034143215177     0.00530564330275     0.00028064008027
   18     0.00000435464972     0.00034143215177     0.00000000000000     0.00028223912932     0.00543504939821
   19     0.00000742855201     0.00530564330275     0.00028223912932     0.00000000000000     0.00026281939850
   20     0.00000441411800     0.00028064008027     0.00543504939821     0.00026281939850     0.00000000000000
   21     0.00000169135323     0.00023617885122     0.00022847822256     0.00519220725339     0.00519395802457

                21

    1     0.00034258929169
    2     0.00011362452001
    3     0.00276353003227
    4     0.00002564106183
    5     0.01129978562583
    6     0.01117494857157
    7     0.05915300529569
    8     0.05929432430657
    9     0.83620677486117
   10     0.00003638919065
   11     0.00004423581899
   12     0.00001066883379
   13     0.00004098829421
   14     0.00000868517372
   15     0.00000148261543
   16     0.00000169135323
   17     0.00023617885122
   18     0.00022847822256
   19     0.00519220725339
   20     0.00519395802457
   21     0.00000000000000



  Atomic Valences: 

 #  #
 Irrep: 1
      1:  4.4556046
      2:  4.4613075
      3:  4.7355845
      4:  4.1806713
      5:  4.4869688
      6:  4.4985566
      7:  4.4565705
      8:  4.4568843
      9:  4.4557794
     10:  0.9888184
     11:  0.9951416
     12:  0.9947253
     13:  1.0023546
     14:  1.0007798
     15:  1.0025081
     16:  1.0008031
     17:  0.9901631
     18:  0.9935201
     19:  0.9913247
     20:  0.9914283
     21:  0.9913692


    Psi4 stopped on: Wednesday, 02 June 2021 12:56AM
    Psi4 wall time for execution: 0:00:20.76

*** Psi4 exiting successfully. Buy a developer a beer!
