
    -----------------------------------------------------------------------
          Psi4: An Open-Source Ab Initio Electronic Structure Package
                               Psi4 1.3.2 release

                         Git: Rev {HEAD} ecbda83 


    R. M. Parrish, L. A. Burns, D. G. A. Smith, A. C. Simmonett,
    A. E. DePrince III, E. G. Hohenstein, U. Bozkaya, A. Yu. Sokolov,
    R. Di Remigio, R. M. Richard, J. F. Gonthier, A. M. James,
    H. R. McAlexander, A. Kumar, M. Saitow, X. Wang, B. P. Pritchard,
    P. Verma, H. F. Schaefer III, K. Patkowski, R. A. King, E. F. Valeev,
    F. A. Evangelista, J. M. Turney, T. D. Crawford, and C. D. Sherrill,
    J. Chem. Theory Comput. 13(7) pp 3185--3197 (2017).
    (doi: 10.1021/acs.jctc.7b00174)


                         Additional Contributions by
    P. Kraus, H. Kruse, M. H. Lechner, M. C. Schieber, R. A. Shaw,
    A. Alenaizan, R. Galvelis, Z. L. Glick, S. Lehtola, and J. P. Misiewicz

    -----------------------------------------------------------------------


    Psi4 started on: Wednesday, 02 June 2021 12:49AM

    Process ID: 80043
    Host:       daniele-Precision-5750
    PSIDATADIR: /home/daniele/anaconda3/envs/poltype/share/psi4
    Memory:     500.0 MiB
    Threads:    1
    
  ==> Input File <==

--------------------------------------------------------------------------
molecule { 
0 1
 C   -1.118451   -1.507090    0.368611
 C   -2.502768   -0.930007   -0.079114
 C    0.054640   -0.565147    0.217724
 C   -2.489022    0.507524   -0.610055
 C    0.389597    0.330258    1.239245
 C    0.820128   -0.551361   -0.952866
 C    1.448351    1.223230    1.091982
 C    1.881100    0.338855   -1.105567
 C    2.197732    1.231087   -0.083158
 H   -0.909380   -2.414956   -0.201676
 H   -1.182335   -1.816369    1.414370
 H   -2.922304   -1.581024   -0.850113
 H   -3.194328   -0.982130    0.765626
 H   -1.851780    0.602863   -1.490735
 H   -3.499392    0.813754   -0.888815
 H   -2.116354    1.209282    0.137563
 H   -0.188637    0.326923    2.155463
 H    0.579493   -1.243744   -1.750615
 H    1.689928    1.908831    1.893339
 H    2.461151    0.333604   -2.018897
 H    3.021731    1.921983   -0.199060
}
memory 700MB
set_num_threads(8)
psi4_io.set_default_path("/home/daniele/PSI4_sctatch/Psi4-propbenzene")
set freeze_core True
E, wfn = energy('wb97x-d/6-311+G*',return_wfn=True)
oeprop(wfn,"WIBERG_LOWDIN_INDICES")
clean()
--------------------------------------------------------------------------

  Memory set to 667.572 MiB by Python driver.
  Threads set to 8 by Python driver.

*** tstart() called on daniele-Precision-5750
*** at Wed Jun  2 00:49:07 2021

   => Loading Basis Set <=

    Name: 6-311+G*
    Role: ORBITAL
    Keyword: BASIS
    atoms 1-9   entry C          line   130 file /home/daniele/anaconda3/envs/poltype/share/psi4/basis/6-311pgs.gbs 
    atoms 10-21 entry H          line    47 file /home/daniele/anaconda3/envs/poltype/share/psi4/basis/6-311pgs.gbs 


         ---------------------------------------------------------
                                   SCF
               by Justin Turney, Rob Parrish, Andy Simmonett
                          and Daniel G. A. Smith
                              RKS Reference
                        8 Threads,    667 MiB Core
         ---------------------------------------------------------

  ==> Geometry <==

    Molecular point group: c1
    Full point group: C1

    Geometry (in Angstrom), charge = 0, multiplicity = 1:

       Center              X                  Y                   Z               Mass       
    ------------   -----------------  -----------------  -----------------  -----------------
         C           -1.118450989331    -1.507089985664     0.368611112929    12.000000000000
         C           -2.502767989331    -0.930006985664    -0.079113887071    12.000000000000
         C            0.054640010669    -0.565146985664     0.217724112929    12.000000000000
         C           -2.489021989331     0.507524014336    -0.610054887071    12.000000000000
         C            0.389597010669     0.330258014336     1.239245112929    12.000000000000
         C            0.820128010669    -0.551360985664    -0.952865887071    12.000000000000
         C            1.448351010669     1.223230014336     1.091982112929    12.000000000000
         C            1.881100010669     0.338855014336    -1.105566887071    12.000000000000
         C            2.197732010669     1.231087014336    -0.083157887071    12.000000000000
         H           -0.909379989331    -2.414955985664    -0.201675887071     1.007825032230
         H           -1.182334989331    -1.816368985664     1.414370112929     1.007825032230
         H           -2.922303989331    -1.581023985664    -0.850112887071     1.007825032230
         H           -3.194327989331    -0.982129985664     0.765626112929     1.007825032230
         H           -1.851779989331     0.602863014336    -1.490734887071     1.007825032230
         H           -3.499391989331     0.813754014336    -0.888814887071     1.007825032230
         H           -2.116353989331     1.209282014336     0.137563112929     1.007825032230
         H           -0.188636989331     0.326923014336     2.155463112929     1.007825032230
         H            0.579493010669    -1.243743985664    -1.750614887071     1.007825032230
         H            1.689928010669     1.908831014336     1.893339112929     1.007825032230
         H            2.461151010669     0.333604014336    -2.018896887071     1.007825032230
         H            3.021731010669     1.921983014336    -0.199059887071     1.007825032230

  Running in c1 symmetry.

  Rotational constants: A =      0.10541  B =      0.03619  C =      0.03431 [cm^-1]
  Rotational constants: A =   3160.11581  B =   1084.94881  C =   1028.53641 [MHz]
  Nuclear repulsion =  421.775521301132699

  Charge       = 0
  Multiplicity = 1
  Electrons    = 66
  Nalpha       = 33
  Nbeta        = 33

  ==> Algorithm <==

  SCF Algorithm Type is DF.
  DIIS enabled.
  MOM disabled.
  Fractional occupation disabled.
  Guess Type is SAD.
  Energy threshold   = 1.00e-06
  Density threshold  = 1.00e-06
  Integral threshold = 0.00e+00

  ==> Primary Basis <==

  Basis Set: 6-311+G*
    Blend: 6-311+G*
    Number of shells: 126
    Number of basis function: 234
    Number of Cartesian functions: 243
    Spherical Harmonics?: true
    Max angular momentum: 2

  ==> DFT Potential <==

   => Composite Functional: WB97X-D <= 

    wB97X-D Hyb-GGA Exchange-Correlation Functional

    J.-D. Chai and M. Head-Gordon, Phys. Chem. Chem. Phys. 10, 6615 (2008)

    Deriv               =              1
    GGA                 =           TRUE
    Meta                =          FALSE

    Exchange Hybrid     =           TRUE
    MP2 Hybrid          =          FALSE

   => Exchange-Correlation Functionals <=

    1.0000   wB97D range-separated functional

   => Exact (HF) Exchange <=

    0.7780            HF,LR [omega = 0.2000]
    0.2220               HF 

   => Molecular Quadrature <=

    Radial Scheme          =       TREUTLER
    Pruning Scheme         =           FLAT
    Nuclear Scheme         =       TREUTLER

    BS radius alpha        =              1
    Pruning alpha          =              1
    Radial Points          =             75
    Spherical Points       =            302
    Total Points           =         475650
    Total Blocks           =           3496
    Max Points             =            256
    Max Functions          =            222

   => WB97X-D: Empirical Dispersion <=

    Chai and Head-Gordon Dispersion Correction
    Chai, J.-D.; Head-Gordon, M. (2010), J. Chem. Phys., 132: 6615-6620

        s6 =       1.000000

   => Loading Basis Set <=

    Name: (6-311+G* AUX)
    Role: JKFIT
    Keyword: DF_BASIS_SCF
    atoms 1-9   entry C          line   200 file /home/daniele/anaconda3/envs/poltype/share/psi4/basis/heavy-aug-cc-pvtz-jkfit.gbs 
    atoms 10-21 entry H          line   116 file /home/daniele/anaconda3/envs/poltype/share/psi4/basis/heavy-aug-cc-pvtz-jkfit.gbs 

  ==> Pre-Iterations <==

   -------------------------------------------------------
    Irrep   Nso     Nmo     Nalpha   Nbeta   Ndocc  Nsocc
   -------------------------------------------------------
     A        234     234       0       0       0       0
   -------------------------------------------------------
    Total     234     234      33      33      33       0
   -------------------------------------------------------

  ==> Integral Setup <==

  ==> DiskDFJK: Density-Fitted J/K Matrices <==

    J tasked:                  Yes
    K tasked:                  Yes
    wK tasked:                 Yes
    Omega:               2.000E-01
    OpenMP threads:              8
    Integrals threads:           8
    Memory [MiB]:              304
    Algorithm:                Disk
    Integral Cache:           NONE
    Schwarz Cutoff:          1E-12
    Fitting Condition:       1E-10

   => Auxiliary Basis Set <=

  Basis Set: (6-311+G* AUX)
    Blend: HEAVY-AUG-CC-PVTZ-JKFIT
    Number of shells: 390
    Number of basis function: 1296
    Number of Cartesian functions: 1599
    Spherical Harmonics?: true
    Max angular momentum: 4

  Cached 9.1% of DFT collocation blocks in 0.207 [GiB].

  Minimum eigenvalue in the overlap matrix is 2.5278388867E-06.
  Using Symmetric Orthogonalization.

  SCF Guess: Superposition of Atomic Densities via on-the-fly atomic UHF.

  ==> Iterations <==

                           Total Energy        Delta E     RMS |[F,P]|

   @DF-RKS iter SAD:  -349.46818757660833   -3.49468e+02   0.00000e+00 
   @DF-RKS iter   1:  -349.62020643677022   -1.52019e-01   4.16557e-03 DIIS
   @DF-RKS iter   2:  -349.83609296312073   -2.15887e-01   3.29511e-03 DIIS
   @DF-RKS iter   3:  -350.13579948002075   -2.99707e-01   3.02235e-04 DIIS
   @DF-RKS iter   4:  -350.13776398123940   -1.96450e-03   1.72670e-04 DIIS
   @DF-RKS iter   5:  -350.13858266436119   -8.18683e-04   4.53489e-05 DIIS
   @DF-RKS iter   6:  -350.13864308832473   -6.04240e-05   1.02396e-05 DIIS
   @DF-RKS iter   7:  -350.13864606713344   -2.97881e-06   2.65537e-06 DIIS
   @DF-RKS iter   8:  -350.13864629388587   -2.26752e-07   6.62917e-07 DIIS
  Energy and wave function converged.


  ==> Post-Iterations <==

    Orbital Energies [Eh]
    ---------------------

    Doubly Occupied:                                                      

       1A    -10.293785     2A    -10.287299     3A    -10.287229  
       4A    -10.285177     5A    -10.284307     6A    -10.284241  
       7A    -10.282793     8A    -10.279525     9A    -10.262940  
      10A     -0.961515    11A     -0.894566    12A     -0.845712  
      13A     -0.841997    14A     -0.778781    15A     -0.702200  
      16A     -0.701383    17A     -0.660393    18A     -0.600613  
      19A     -0.560932    20A     -0.546454    21A     -0.528395  
      22A     -0.525254    23A     -0.506578    24A     -0.495088  
      25A     -0.468400    26A     -0.452976    27A     -0.445983  
      28A     -0.425020    29A     -0.422318    30A     -0.406237  
      31A     -0.400733    32A     -0.328914    33A     -0.318645  

    Virtual:                                                              

      34A      0.053341    35A      0.056079    36A      0.060711  
      37A      0.075376    38A      0.077196    39A      0.083993  
      40A      0.094929    41A      0.097826    42A      0.100925  
      43A      0.117131    44A      0.121552    45A      0.122936  
      46A      0.128021    47A      0.134004    48A      0.149102  
      49A      0.152462    50A      0.158749    51A      0.163839  
      52A      0.171343    53A      0.185962    54A      0.188217  
      55A      0.192785    56A      0.204497    57A      0.209218  
      58A      0.210751    59A      0.212122    60A      0.220749  
      61A      0.223064    62A      0.230152    63A      0.231501  
      64A      0.245325    65A      0.252669    66A      0.255835  
      67A      0.262675    68A      0.267778    69A      0.269108  
      70A      0.277340    71A      0.279665    72A      0.280051  
      73A      0.287961    74A      0.288446    75A      0.307683  
      76A      0.309818    77A      0.313572    78A      0.316544  
      79A      0.325599    80A      0.329491    81A      0.334575  
      82A      0.356234    83A      0.360453    84A      0.366763  
      85A      0.376501    86A      0.392304    87A      0.401638  
      88A      0.415744    89A      0.429450    90A      0.433545  
      91A      0.443620    92A      0.500943    93A      0.529484  
      94A      0.548467    95A      0.563220    96A      0.573492  
      97A      0.574110    98A      0.590107    99A      0.605056  
     100A      0.622274   101A      0.627223   102A      0.635792  
     103A      0.643218   104A      0.645942   105A      0.665840  
     106A      0.669694   107A      0.685473   108A      0.696894  
     109A      0.705219   110A      0.726716   111A      0.730599  
     112A      0.744851   113A      0.751705   114A      0.774811  
     115A      0.777739   116A      0.788543   117A      0.792143  
     118A      0.793486   119A      0.797729   120A      0.803452  
     121A      0.820703   122A      0.835980   123A      0.836777  
     124A      0.846924   125A      0.856685   126A      0.863374  
     127A      0.916304   128A      0.930140   129A      0.932472  
     130A      0.946583   131A      0.948736   132A      0.964296  
     133A      0.968871   134A      0.988355   135A      1.044092  
     136A      1.096861   137A      1.106131   138A      1.115083  
     139A      1.131660   140A      1.150530   141A      1.212913  
     142A      1.230123   143A      1.280647   144A      1.291938  
     145A      1.320811   146A      1.324885   147A      1.402002  
     148A      1.418979   149A      1.424160   150A      1.538341  
     151A      1.550549   152A      1.587363   153A      1.615505  
     154A      1.618223   155A      1.629653   156A      1.662214  
     157A      1.697462   158A      1.703164   159A      1.721806  
     160A      1.744353   161A      1.786078   162A      1.838806  
     163A      1.843479   164A      1.846621   165A      1.871734  
     166A      1.911421   167A      1.914973   168A      1.935192  
     169A      1.953339   170A      1.981247   171A      2.003088  
     172A      2.028872   173A      2.029738   174A      2.080225  
     175A      2.089202   176A      2.089369   177A      2.174630  
     178A      2.305070   179A      2.315748   180A      2.351231  
     181A      2.362006   182A      2.387931   183A      2.407550  
     184A      2.429434   185A      2.509600   186A      2.511979  
     187A      2.580254   188A      2.614408   189A      2.623696  
     190A      2.647935   191A      2.653768   192A      2.677443  
     193A      2.746724   194A      2.792944   195A      2.793726  
     196A      2.815285   197A      2.889685   198A      2.895812  
     199A      2.935979   200A      2.980452   201A      3.004852  
     202A      3.011616   203A      3.073889   204A      3.104093  
     205A      3.197108   206A      3.236116   207A      3.246762  
     208A      3.288257   209A      3.296934   210A      3.390638  
     211A      3.405332   212A      3.414797   213A      3.420781  
     214A      3.463264   215A      3.473936   216A      3.547273  
     217A      3.668978   218A      3.730686   219A      3.776989  
     220A      3.858088   221A      3.962909   222A      4.128120  
     223A      4.137523   224A      4.320597   225A      4.897455  
     226A     23.447258   227A     23.673557   228A     23.813330  
     229A     23.883745   230A     23.980519   231A     24.017604  
     232A     24.179346   233A     24.181592   234A     24.285799  

    Final Occupation by Irrep:
              A 
    DOCC [    33 ]

  @DF-RKS Final Energy:  -350.13864629388587

   => Energetics <=

    Nuclear Repulsion Energy =            421.7755213011326987
    One-Electron Energy =               -1306.4409603371075264
    Two-Electron Energy =                 570.9436390396979277
    DFT Exchange-Correlation Energy =     -36.4042160377916630
    Empirical Dispersion Energy =          -0.0126302598172378
    VV10 Nonlocal Energy =                  0.0000000000000000
    Total Energy =                       -350.1386462938858131

Computation Completed


Properties will be evaluated at   0.000000,   0.000000,   0.000000 [a0]

Properties computed using the SCF density matrix

  Nuclear Dipole Moment: [e a0]
     X:    -7.6049      Y:    -0.8634      Z:    -0.9689

  Electronic Dipole Moment: [e a0]
     X:     7.4711      Y:     0.8116      Z:     0.9655

  Dipole Moment: [e a0]
     X:    -0.1339      Y:    -0.0518      Z:    -0.0034     Total:     0.1436

  Dipole Moment: [D]
     X:    -0.3403      Y:    -0.1317      Z:    -0.0087     Total:     0.3650


*** tstop() called on daniele-Precision-5750 at Wed Jun  2 00:49:28 2021
Module time:
	user time   =     152.71 seconds =       2.55 minutes
	system time =       5.03 seconds =       0.08 minutes
	total time  =         21 seconds =       0.35 minutes
Total time:
	user time   =     152.71 seconds =       2.55 minutes
	system time =       5.03 seconds =       0.08 minutes
	total time  =         21 seconds =       0.35 minutes


Properties will be evaluated at   0.000000,   0.000000,   0.000000 [a0]
OEProp: No title given, name of density matrix used for the following properties is 'SCF density'


  Wiberg Bond Indices using Orthogonal Lowdin Orbitals:

  Irrep: 1 Size: 21 x 21

                 1                   2                   3                   4                   5

    1     0.00000000000000     1.11380012474498     1.08896000113555     0.08823672144114     0.12533024184702
    2     1.11380012474498     0.00000000000000     0.08557910863715     1.19612508811454     0.02991545321077
    3     1.08896000113555     0.08557910863715     0.00000000000000     0.05554331515536     1.43648488527797
    4     0.08823672144114     1.19612508811454     0.05554331515536     0.00000000000000     0.03031820951552
    5     0.12533024184702     0.02991545321077     1.43648488527797     0.03031820951552     0.00000000000000
    6     0.12597507105805     0.02900991736131     1.43958915509926     0.02733937163920     0.13363709280947
    7     0.01782240684315     0.00327982004017     0.13407681201709     0.00766650952702     1.52487885302273
    8     0.01773773350565     0.00318648331395     0.13420538660375     0.00694822632267     0.14698106083644
    9     0.00996623875889     0.00665334194814     0.13964560981976     0.00372110515072     0.13811540221982
   10     0.85201399627548     0.03825390163362     0.04597481417646     0.00637268930331     0.00923749414792
   11     0.85141754576099     0.03823393297680     0.04584295923038     0.00639414576186     0.01886498685515
   12     0.04088943315680     0.87410841730427     0.00636847267888     0.04008601564189     0.00097293293001
   13     0.04101495078237     0.87394358509503     0.00631260064260     0.04004433753505     0.00143203672315
   14     0.01013298932794     0.03790996389185     0.01060771918597     0.89319417965975     0.00327756448994
   15     0.01303750759834     0.04963703843323     0.00220062676849     0.90968790693952     0.00052408665674
   16     0.01019406637956     0.03778409572787     0.01072959981130     0.89234658068837     0.01053259817552
   17     0.01811401286057     0.00391784689169     0.05658880489073     0.00345244132920     0.81679696335018
   18     0.01828331406934     0.00355892896918     0.05666931933767     0.00272296853460     0.00996624933871
   19     0.00111110864892     0.00021009636383     0.01050711684187     0.00015046737902     0.06008088207509
   20     0.00111363218945     0.00021538332507     0.01049621387630     0.00014244907504     0.00244350198501
   21     0.00033577544521     0.00004561721037     0.00286778834846     0.00003398664352     0.01136436984261

                 6                   7                   8                   9                  10

    1     0.12597507105805     0.01782240684315     0.01773773350565     0.00996623875889     0.85201399627548
    2     0.02900991736131     0.00327982004017     0.00318648331395     0.00665334194814     0.03825390163362
    3     1.43958915509926     0.13407681201709     0.13420538660375     0.13964560981976     0.04597481417646
    4     0.02733937163920     0.00766650952702     0.00694822632267     0.00372110515072     0.00637268930331
    5     0.13363709280947     1.52487885302273     0.14698106083644     0.13811540221982     0.00923749414792
    6     0.00000000000000     0.14672077320808     1.52247835505316     0.13802483881984     0.01916996780176
    7     0.14672077320808     0.00000000000000     0.13798368478750     1.51955796731493     0.00097433116826
    8     1.52247835505316     0.13798368478750     0.00000000000000     1.52191591514284     0.00147572565472
    9     0.13802483881984     1.51955796731493     1.52191591514284     0.00000000000000     0.00111508598178
   10     0.01916996780176     0.00097433116826     0.00147572565472     0.00111508598178     0.00000000000000
   11     0.00965912351339     0.00143824652355     0.00097134589148     0.00135564400463     0.00782053650761
   12     0.00131832976491     0.00022222428344     0.00009995442352     0.00015140302269     0.00903292696871
   13     0.00093691861476     0.00010460528077     0.00021693954417     0.00014373221536     0.00141946120366
   14     0.00914221349321     0.00074711791110     0.00205426459882     0.00062447589306     0.00009557613241
   15     0.00046832203739     0.00019093997550     0.00018299021796     0.00012036017835     0.00004421792764
   16     0.00295443837277     0.00242480351397     0.00076802765007     0.00061871673218     0.00003291066595
   17     0.00989746944235     0.05639312614762     0.00227260898886     0.01074496629501     0.00034964705536
   18     0.81773215706668     0.00228749089686     0.05656306013976     0.01076950254480     0.00148631973826
   19     0.00242811294656     0.83500125380429     0.01135224446030     0.05894887151546     0.00029049101643
   20     0.06003196072539     0.01136098651100     0.83504692889389     0.05898246867400     0.00003891312976
   21     0.01136588065830     0.05899694338107     0.05903717583722     0.83629893039590     0.00002770964903

                11                  12                  13                  14                  15

    1     0.85141754576099     0.04088943315680     0.04101495078237     0.01013298932794     0.01303750759834
    2     0.03823393297680     0.87410841730427     0.87394358509503     0.03790996389185     0.04963703843323
    3     0.04584295923038     0.00636847267888     0.00631260064260     0.01060771918597     0.00220062676849
    4     0.00639414576186     0.04008601564189     0.04004433753505     0.89319417965975     0.90968790693952
    5     0.01886498685515     0.00097293293001     0.00143203672315     0.00327756448994     0.00052408665674
    6     0.00965912351339     0.00131832976491     0.00093691861476     0.00914221349321     0.00046832203739
    7     0.00143824652355     0.00022222428344     0.00010460528077     0.00074711791110     0.00019093997550
    8     0.00097134589148     0.00009995442352     0.00021693954417     0.00205426459882     0.00018299021796
    9     0.00135564400463     0.00015140302269     0.00014373221536     0.00062447589306     0.00012036017835
   10     0.00782053650761     0.00903292696871     0.00141946120366     0.00009557613241     0.00004421792764
   11     0.00000000000000     0.00140547929459     0.00906433620982     0.00003192464947     0.00004343843959
   12     0.00140547929459     0.00000000000000     0.00785295547176     0.00422064194629     0.00339613591001
   13     0.00906433620982     0.00785295547176     0.00000000000000     0.00929931030155     0.00346978269299
   14     0.00003192464947     0.00422064194629     0.00929931030155     0.00000000000000     0.00973374612856
   15     0.00004343843959     0.00339613591001     0.00346978269299     0.00973374612856     0.00000000000000
   16     0.00009548109200     0.00928956983955     0.00410949613029     0.00758247906949     0.00977362183350
   17     0.00136933224107     0.00003256846450     0.00021598924157     0.00009016871436     0.00004846764802
   18     0.00032395739786     0.00018647629192     0.00003534129827     0.00048701007494     0.00003899314408
   19     0.00003887222631     0.00000593624810     0.00000468752692     0.00000109368353     0.00001182767960
   20     0.00027614448619     0.00000490310271     0.00000585604495     0.00002441834107     0.00001059068797
   21     0.00002838577180     0.00000739846034     0.00000823116254     0.00000148685291     0.00000240144783

                16                  17                  18                  19                  20

    1     0.01019406637956     0.01811401286057     0.01828331406934     0.00111110864892     0.00111363218945
    2     0.03778409572787     0.00391784689169     0.00355892896918     0.00021009636383     0.00021538332507
    3     0.01072959981130     0.05658880489073     0.05666931933767     0.01050711684187     0.01049621387630
    4     0.89234658068837     0.00345244132920     0.00272296853460     0.00015046737902     0.00014244907504
    5     0.01053259817552     0.81679696335018     0.00996624933871     0.06008088207509     0.00244350198501
    6     0.00295443837277     0.00989746944235     0.81773215706668     0.00242811294656     0.06003196072539
    7     0.00242480351397     0.05639312614762     0.00228749089686     0.83500125380429     0.01136098651100
    8     0.00076802765007     0.00227260898886     0.05656306013976     0.01135224446030     0.83504692889389
    9     0.00061871673218     0.01074496629501     0.01076950254480     0.05894887151546     0.05898246867400
   10     0.00003291066595     0.00034964705536     0.00148631973826     0.00029049101643     0.00003891312976
   11     0.00009548109200     0.00136933224107     0.00032395739786     0.00003887222631     0.00027614448619
   12     0.00928956983955     0.00003256846450     0.00018647629192     0.00000593624810     0.00000490310271
   13     0.00410949613029     0.00021598924157     0.00003534129827     0.00000468752692     0.00000585604495
   14     0.00758247906949     0.00009016871436     0.00048701007494     0.00000109368353     0.00002441834107
   15     0.00977362183350     0.00004846764802     0.00003899314408     0.00001182767960     0.00001059068797
   16     0.00000000000000     0.00056676783089     0.00005860039750     0.00003267812098     0.00000181639696
   17     0.00056676783089     0.00000000000000     0.00033836818195     0.00521918246945     0.00027139301518
   18     0.00005860039750     0.00033836818195     0.00000000000000     0.00027388371184     0.00522094109104
   19     0.00003267812098     0.00521918246945     0.00027388371184     0.00000000000000     0.00025854891006
   20     0.00000181639696     0.00027139301518     0.00522094109104     0.00025854891006     0.00000000000000
   21     0.00000183788362     0.00023525775875     0.00023471039801     0.00520397044632     0.00521389581143

                21

    1     0.00033577544521
    2     0.00004561721037
    3     0.00286778834846
    4     0.00003398664352
    5     0.01136436984261
    6     0.01136588065830
    7     0.05899694338107
    8     0.05903717583722
    9     0.83629893039590
   10     0.00002770964903
   11     0.00002838577180
   12     0.00000739846034
   13     0.00000823116254
   14     0.00000148685291
   15     0.00000240144783
   16     0.00000183788362
   17     0.00023525775875
   18     0.00023471039801
   19     0.00520397044632
   20     0.00521389581143
   21     0.00000000000000



  Atomic Valences: 

 #  #
 Irrep: 1
      1:  4.4454869
      2:  4.4253681
      3:  4.7792503
      4:  4.2105267
      5:  4.5111549
      6:  4.5078795
      7:  4.4621289
      8:  4.4614781
      9:  4.4574746
     10:  0.9952267
     11:  0.9946758
     12:  0.9996522
     13:  0.9996352
     14:  0.9992583
     15:  1.0026230
     16:  0.9998982
     17:  0.9869154
     18:  0.9872376
     19:  0.9911313
     20:  0.9911609
     21:  0.9913118


    Psi4 stopped on: Wednesday, 02 June 2021 12:49AM
    Psi4 wall time for execution: 0:00:20.74

*** Psi4 exiting successfully. Buy a developer a beer!
