
Host: daniele-Precision-5750

Timers On : Wed Jun  2 00:13:51 2021
Timers Off: Wed Jun  2 00:14:33 2021

Wall Time:       42.52 seconds

                                                       Time (seconds)
Module                                       User      System        Wall        Calls
V: Grid                             :     16.717u      0.083s      1.276w      3 calls
JK: (A|Q)^-1                        :      9.350u      0.417s      0.710w      3 calls
JK: (A|mn)                          :      9.350u      0.000s      0.704w      3 calls
JK: (Q|mn)                          :      4.433u      0.000s      0.333w      3 calls
JK: (Q|mn) Write                    :      0.933u      0.133s      0.078w      3 calls
JK: (A|mn)^L                        :      9.333u      0.000s      0.703w      3 calls
JK: (Q|mn)^L                        :      4.450u      0.000s      0.331w      3 calls
JK: (Q|mn)^L Write                  :      0.983u      0.150s      0.086w      3 calls
JK: (Q|mn)^R                        :     11.850u      0.000s      0.893w      3 calls
JK: (Q|mn)^R Write                  :      1.917u      0.267s      0.158w      3 calls
HF: Form core H                     :      0.000u      0.000s      0.003w      3 calls
HF: Form S/X                        :      0.150u      0.000s      0.010w      3 calls
HF: Guess                           :      3.250u      0.017s      0.245w      3 calls
SAD Guess                           :      3.083u      0.017s      0.232w      1 calls
HF: Form G                          :    237.450u      6.900s     18.332w     33 calls
RV: Form V                          :    140.117u      0.200s     10.535w     33 calls
Properties                          :     48.730p                         123864 calls
Functional                          :     20.964p                         123864 calls
V_xc                                :     29.465p                         113542 calls
JK: D                               :      0.000u      0.000s      0.001w     33 calls
JK: USO2AO                          :      0.067u      0.000s      0.001w     33 calls
JK: JK                              :     97.117u      6.700s      7.789w     33 calls
JK: (Q|mn) Read                     :      6.833u      0.933s      0.540w     66 calls
JK: J                               :      2.333u      0.017s      0.177w     66 calls
JK: J1                              :      0.633u      0.000s      0.085w     66 calls
JK: J2                              :      0.717u      0.000s      0.085w     66 calls
JK: K                               :     19.133u      0.017s      1.520w     66 calls
JK: K1                              :     15.333u      0.017s      1.163w     66 calls
JK: K2                              :      3.733u      0.000s      0.356w     66 calls
JK: (Q|mn)^L Read                   :      7.683u      0.867s      0.541w    100 calls
JK: (Q|mn)^R Read                   :      6.400u      0.950s      0.536w    100 calls
JK: wK                              :     22.567u      0.033s      1.854w    100 calls
JK: wK1                             :     20.067u      0.033s      1.541w    200 calls
JK: wK2                             :      2.433u      0.000s      0.311w    100 calls
JK: AO2USO                          :      0.000u      0.000s      0.000w     33 calls
HF: Form F                          :      0.000u      0.017s      0.001w     33 calls
HF: Form D                          :      0.033u      0.000s      0.001w     33 calls
HF: DIIS                            :      0.800u      0.017s      0.057w     32 calls
DIISManager::add_entry              :      0.167u      0.017s      0.010w     30 calls
DIISManager::extrapolate            :      0.267u      0.000s      0.022w     30 calls
bMatrix setup                       :      0.083u      0.000s      0.010w     30 calls
bMatrix pseudoinverse               :      0.033u      0.000s      0.002w     30 calls
New vector                          :      0.150u      0.000s      0.010w     30 calls
HF: Form C                          :      1.200u      0.000s      0.098w     32 calls
Grad: V T Perturb                   :      3.033u      0.000s      0.228w      3 calls
Grad: S                             :      0.017u      0.000s      0.003w      3 calls
Grad: JK                            :    137.317u      2.183s     10.588w      3 calls
JKGrad: Amn                         :     20.233u      0.500s      1.556w      3 calls
JKGrad: Awmn                        :     19.783u      0.517s      1.523w      3 calls
JKGrad: AB                          :      9.950u      0.100s      0.753w      3 calls
JKGrad: UV                          :      1.517u      0.083s      0.121w      3 calls
JKGrad: ABx                         :      3.683u      0.083s      0.281w      3 calls
JKGrad: Amnx                        :     80.183u      0.883s      6.205w      3 calls
Grad: XC                            :     41.367u      0.017s      3.105w      3 calls
V_xc gradient                       :      9.365p                          10322 calls

--------------------------------------------------------------------------------------
V: Grid                             :     16.717u      0.083s      1.276w      3 calls
JK: (A|Q)^-1                        :      9.350u      0.417s      0.710w      3 calls
JK: (A|mn)                          :      9.350u      0.000s      0.704w      3 calls
JK: (Q|mn)                          :      4.433u      0.000s      0.333w      3 calls
JK: (Q|mn) Write                    :      0.933u      0.133s      0.078w      3 calls
JK: (A|mn)^L                        :      9.333u      0.000s      0.703w      3 calls
JK: (Q|mn)^L                        :      4.450u      0.000s      0.331w      3 calls
JK: (Q|mn)^L Write                  :      0.983u      0.150s      0.086w      3 calls
JK: (Q|mn)^R                        :     11.850u      0.000s      0.893w      3 calls
JK: (Q|mn)^R Write                  :      1.917u      0.267s      0.158w      3 calls
HF: Form core H                     :      0.000u      0.000s      0.003w      3 calls
HF: Form S/X                        :      0.150u      0.000s      0.010w      3 calls
HF: Guess                           :      3.250u      0.017s      0.245w      3 calls
| SAD Guess                         :      3.083u      0.017s      0.232w      1 calls
HF: Form G                          :    237.450u      6.900s     18.332w     33 calls
| RV: Form V                        :    140.117u      0.200s     10.535w     33 calls
| | Properties                      :     35.709p                         113542 calls
| | Functional                      :     18.710p                         113542 calls
| | V_xc                            :     29.465p                         113542 calls
| JK: D                             :      0.000u      0.000s      0.001w     33 calls
| JK: USO2AO                        :      0.067u      0.000s      0.001w     33 calls
| JK: JK                            :     97.117u      6.700s      7.789w     33 calls
| | JK: (Q|mn) Read                 :      6.833u      0.933s      0.540w     66 calls
| | JK: J                           :      2.333u      0.017s      0.177w     66 calls
| | | JK: J1                        :      0.633u      0.000s      0.085w     66 calls
| | | JK: J2                        :      0.717u      0.000s      0.085w     66 calls
| | JK: K                           :     19.133u      0.017s      1.520w     66 calls
| | | JK: K1                        :     15.333u      0.017s      1.163w     66 calls
| | | JK: K2                        :      3.733u      0.000s      0.356w     66 calls
| | JK: (Q|mn)^L Read               :      7.683u      0.867s      0.541w    100 calls
| | JK: (Q|mn)^R Read               :      6.400u      0.950s      0.536w    100 calls
| | JK: wK                          :     22.567u      0.033s      1.854w    100 calls
| | | JK: wK1                       :     20.067u      0.033s      1.541w    200 calls
| | | JK: wK2                       :      2.433u      0.000s      0.311w    100 calls
| JK: AO2USO                        :      0.000u      0.000s      0.000w     33 calls
HF: Form F                          :      0.000u      0.017s      0.001w     33 calls
HF: Form D                          :      0.033u      0.000s      0.001w     33 calls
HF: DIIS                            :      0.800u      0.017s      0.057w     32 calls
| DIISManager::add_entry            :      0.167u      0.017s      0.010w     30 calls
| DIISManager::extrapolate          :      0.267u      0.000s      0.022w     30 calls
| | bMatrix setup                   :      0.083u      0.000s      0.010w     30 calls
| | bMatrix pseudoinverse           :      0.033u      0.000s      0.002w     30 calls
| | New vector                      :      0.150u      0.000s      0.010w     30 calls
HF: Form C                          :      1.200u      0.000s      0.098w     32 calls
Grad: V T Perturb                   :      3.033u      0.000s      0.228w      3 calls
Grad: S                             :      0.017u      0.000s      0.003w      3 calls
Grad: JK                            :    137.317u      2.183s     10.588w      3 calls
| JKGrad: Amn                       :     20.233u      0.500s      1.556w      3 calls
| JKGrad: Awmn                      :     19.783u      0.517s      1.523w      3 calls
| JKGrad: AB                        :      9.950u      0.100s      0.753w      3 calls
| JKGrad: UV                        :      1.517u      0.083s      0.121w      3 calls
| JKGrad: ABx                       :      3.683u      0.083s      0.281w      3 calls
| JKGrad: Amnx                      :     80.183u      0.883s      6.205w      3 calls
Grad: XC                            :     41.367u      0.017s      3.105w      3 calls
| Properties                        :     13.021p                          10322 calls
| Functional                        :      2.253p                          10322 calls
| V_xc gradient                     :      9.365p                          10322 calls

**************************************************************************************

Host: daniele-Precision-5750

Timers On : Wed Jun  2 00:15:03 2021
Timers Off: Wed Jun  2 00:15:45 2021

Wall Time:       41.85 seconds

                                                       Time (seconds)
Module                                       User      System        Wall        Calls
V: Grid                             :     16.783u      0.133s      1.284w      3 calls
JK: (A|Q)^-1                        :      9.550u      0.433s      0.726w      3 calls
JK: (A|mn)                          :      9.767u      0.000s      0.733w      3 calls
JK: (Q|mn)                          :      4.400u      0.000s      0.333w      3 calls
JK: (Q|mn) Write                    :      1.017u      0.150s      0.085w      3 calls
JK: (A|mn)^L                        :      9.767u      0.000s      0.735w      3 calls
JK: (Q|mn)^L                        :      4.350u      0.017s      0.332w      3 calls
JK: (Q|mn)^L Write                  :      0.983u      0.150s      0.081w      3 calls
JK: (Q|mn)^R                        :     12.133u      0.000s      0.918w      3 calls
JK: (Q|mn)^R Write                  :      1.917u      0.300s      0.157w      3 calls
HF: Form core H                     :      0.033u      0.000s      0.003w      3 calls
HF: Form S/X                        :      0.133u      0.000s      0.010w      3 calls
HF: Guess                           :      3.217u      0.067s      0.246w      3 calls
SAD Guess                           :      3.033u      0.067s      0.233w      1 calls
HF: Form G                          :    229.417u      6.333s     17.685w     33 calls
RV: Form V                          :    139.667u      0.200s     10.496w     33 calls
Properties                          :     48.446p                         123790 calls
Functional                          :     20.928p                         123790 calls
V_xc                                :     29.376p                         113473 calls
JK: D                               :      0.000u      0.000s      0.001w     33 calls
JK: USO2AO                          :      0.033u      0.000s      0.001w     33 calls
JK: JK                              :     89.567u      6.117s      7.181w     33 calls
JK: (Q|mn) Read                     :      6.850u      0.917s      0.537w     66 calls
JK: J                               :      2.300u      0.083s      0.174w     66 calls
JK: J1                              :      0.700u      0.033s      0.085w     66 calls
JK: J2                              :      0.517u      0.000s      0.083w     66 calls
JK: K                               :     18.167u      0.050s      1.454w     66 calls
JK: K1                              :     14.667u      0.000s      1.113w     66 calls
JK: K2                              :      3.450u      0.033s      0.339w     66 calls
JK: (Q|mn)^L Read                   :      7.667u      1.050s      0.549w    100 calls
JK: (Q|mn)^R Read                   :      6.400u      0.883s      0.539w    100 calls
JK: wK                              :     21.317u      0.083s      1.762w    100 calls
JK: wK1                             :     19.050u      0.050s      1.469w    200 calls
JK: wK2                             :      2.167u      0.017s      0.291w    100 calls
JK: AO2USO                          :      0.000u      0.000s      0.000w     33 calls
HF: Form F                          :      0.033u      0.000s      0.001w     33 calls
HF: Form D                          :      0.000u      0.000s      0.001w     33 calls
HF: DIIS                            :      0.733u      0.033s      0.056w     32 calls
DIISManager::add_entry              :      0.167u      0.017s      0.010w     30 calls
DIISManager::extrapolate            :      0.267u      0.000s      0.021w     30 calls
bMatrix setup                       :      0.133u      0.000s      0.010w     30 calls
bMatrix pseudoinverse               :      0.033u      0.000s      0.002w     30 calls
New vector                          :      0.100u      0.000s      0.010w     30 calls
HF: Form C                          :      1.333u      0.050s      0.099w     32 calls
Grad: V T Perturb                   :      3.017u      0.017s      0.227w      3 calls
Grad: S                             :      0.000u      0.000s      0.003w      3 calls
Grad: JK                            :    136.933u      2.050s     10.509w      3 calls
JKGrad: Amn                         :     19.883u      0.450s      1.524w      3 calls
JKGrad: Awmn                        :     19.467u      0.483s      1.498w      3 calls
JKGrad: AB                          :     10.833u      0.150s      0.823w      3 calls
JKGrad: UV                          :      1.517u      0.100s      0.121w      3 calls
JKGrad: ABx                         :      3.650u      0.017s      0.276w      3 calls
JKGrad: Amnx                        :     79.667u      0.817s      6.122w      3 calls
Grad: XC                            :     42.333u      0.067s      3.182w      3 calls
V_xc gradient                       :     10.097p                          10317 calls

--------------------------------------------------------------------------------------
V: Grid                             :     16.783u      0.133s      1.284w      3 calls
JK: (A|Q)^-1                        :      9.550u      0.433s      0.726w      3 calls
JK: (A|mn)                          :      9.767u      0.000s      0.733w      3 calls
JK: (Q|mn)                          :      4.400u      0.000s      0.333w      3 calls
JK: (Q|mn) Write                    :      1.017u      0.150s      0.085w      3 calls
JK: (A|mn)^L                        :      9.767u      0.000s      0.735w      3 calls
JK: (Q|mn)^L                        :      4.350u      0.017s      0.332w      3 calls
JK: (Q|mn)^L Write                  :      0.983u      0.150s      0.081w      3 calls
JK: (Q|mn)^R                        :     12.133u      0.000s      0.918w      3 calls
JK: (Q|mn)^R Write                  :      1.917u      0.300s      0.157w      3 calls
HF: Form core H                     :      0.033u      0.000s      0.003w      3 calls
HF: Form S/X                        :      0.133u      0.000s      0.010w      3 calls
HF: Guess                           :      3.217u      0.067s      0.246w      3 calls
| SAD Guess                         :      3.033u      0.067s      0.233w      1 calls
HF: Form G                          :    229.417u      6.333s     17.685w     33 calls
| RV: Form V                        :    139.667u      0.200s     10.496w     33 calls
| | Properties                      :     35.572p                         113473 calls
| | Functional                      :     18.634p                         113473 calls
| | V_xc                            :     29.376p                         113473 calls
| JK: D                             :      0.000u      0.000s      0.001w     33 calls
| JK: USO2AO                        :      0.033u      0.000s      0.001w     33 calls
| JK: JK                            :     89.567u      6.117s      7.181w     33 calls
| | JK: (Q|mn) Read                 :      6.850u      0.917s      0.537w     66 calls
| | JK: J                           :      2.300u      0.083s      0.174w     66 calls
| | | JK: J1                        :      0.700u      0.033s      0.085w     66 calls
| | | JK: J2                        :      0.517u      0.000s      0.083w     66 calls
| | JK: K                           :     18.167u      0.050s      1.454w     66 calls
| | | JK: K1                        :     14.667u      0.000s      1.113w     66 calls
| | | JK: K2                        :      3.450u      0.033s      0.339w     66 calls
| | JK: (Q|mn)^L Read               :      7.667u      1.050s      0.549w    100 calls
| | JK: (Q|mn)^R Read               :      6.400u      0.883s      0.539w    100 calls
| | JK: wK                          :     21.317u      0.083s      1.762w    100 calls
| | | JK: wK1                       :     19.050u      0.050s      1.469w    200 calls
| | | JK: wK2                       :      2.167u      0.017s      0.291w    100 calls
| JK: AO2USO                        :      0.000u      0.000s      0.000w     33 calls
HF: Form F                          :      0.033u      0.000s      0.001w     33 calls
HF: Form D                          :      0.000u      0.000s      0.001w     33 calls
HF: DIIS                            :      0.733u      0.033s      0.056w     32 calls
| DIISManager::add_entry            :      0.167u      0.017s      0.010w     30 calls
| DIISManager::extrapolate          :      0.267u      0.000s      0.021w     30 calls
| | bMatrix setup                   :      0.133u      0.000s      0.010w     30 calls
| | bMatrix pseudoinverse           :      0.033u      0.000s      0.002w     30 calls
| | New vector                      :      0.100u      0.000s      0.010w     30 calls
HF: Form C                          :      1.333u      0.050s      0.099w     32 calls
Grad: V T Perturb                   :      3.017u      0.017s      0.227w      3 calls
Grad: S                             :      0.000u      0.000s      0.003w      3 calls
Grad: JK                            :    136.933u      2.050s     10.509w      3 calls
| JKGrad: Amn                       :     19.883u      0.450s      1.524w      3 calls
| JKGrad: Awmn                      :     19.467u      0.483s      1.498w      3 calls
| JKGrad: AB                        :     10.833u      0.150s      0.823w      3 calls
| JKGrad: UV                        :      1.517u      0.100s      0.121w      3 calls
| JKGrad: ABx                       :      3.650u      0.017s      0.276w      3 calls
| JKGrad: Amnx                      :     79.667u      0.817s      6.122w      3 calls
Grad: XC                            :     42.333u      0.067s      3.182w      3 calls
| Properties                        :     12.875p                          10317 calls
| Functional                        :      2.294p                          10317 calls
| V_xc gradient                     :     10.097p                          10317 calls

**************************************************************************************

Host: daniele-Precision-5750

Timers On : Wed Jun  2 00:16:15 2021
Timers Off: Wed Jun  2 00:16:58 2021

Wall Time:       42.42 seconds

                                                       Time (seconds)
Module                                       User      System        Wall        Calls
V: Grid                             :     16.783u      0.100s      1.281w      3 calls
JK: (A|Q)^-1                        :      9.567u      0.417s      0.725w      3 calls
JK: (A|mn)                          :      9.333u      0.000s      0.702w      3 calls
JK: (Q|mn)                          :      4.450u      0.000s      0.335w      3 calls
JK: (Q|mn) Write                    :      0.950u      0.133s      0.080w      3 calls
JK: (A|mn)^L                        :      9.000u      0.000s      0.676w      3 calls
JK: (Q|mn)^L                        :      4.450u      0.000s      0.336w      3 calls
JK: (Q|mn)^L Write                  :      0.983u      0.133s      0.081w      3 calls
JK: (Q|mn)^R                        :     11.633u      0.000s      0.875w      3 calls
JK: (Q|mn)^R Write                  :      1.800u      0.267s      0.154w      3 calls
HF: Form core H                     :      0.033u      0.000s      0.003w      3 calls
HF: Form S/X                        :      0.150u      0.000s      0.010w      3 calls
HF: Guess                           :      3.250u      0.017s      0.246w      3 calls
SAD Guess                           :      3.083u      0.017s      0.232w      1 calls
HF: Form G                          :    237.250u      7.283s     18.336w     33 calls
RV: Form V                          :    140.383u      0.283s     10.553w     33 calls
Properties                          :     47.890p                         125582 calls
Functional                          :     21.239p                         125582 calls
V_xc                                :     29.785p                         115115 calls
JK: D                               :      0.000u      0.000s      0.001w     33 calls
JK: USO2AO                          :      0.017u      0.000s      0.001w     33 calls
JK: JK                              :     96.650u      7.000s      7.775w     33 calls
JK: (Q|mn) Read                     :      6.750u      0.967s      0.540w     66 calls
JK: J                               :      2.417u      0.033s      0.176w     66 calls
JK: J1                              :      0.683u      0.000s      0.084w     66 calls
JK: J2                              :      0.650u      0.000s      0.085w     66 calls
JK: K                               :     19.167u      0.017s      1.524w     66 calls
JK: K1                              :     15.400u      0.017s      1.179w     66 calls
JK: K2                              :      3.733u      0.000s      0.343w     66 calls
JK: (Q|mn)^L Read                   :      7.800u      0.950s      0.551w    100 calls
JK: (Q|mn)^R Read                   :      6.367u      1.033s      0.540w    100 calls
JK: wK                              :     22.067u      0.017s      1.815w    100 calls
JK: wK1                             :     19.567u      0.017s      1.514w    200 calls
JK: wK2                             :      2.450u      0.000s      0.299w    100 calls
JK: AO2USO                          :      0.000u      0.000s      0.000w     33 calls
HF: Form F                          :      0.017u      0.000s      0.002w     33 calls
HF: Form D                          :      0.017u      0.000s      0.001w     33 calls
HF: DIIS                            :      0.700u      0.017s      0.056w     32 calls
DIISManager::add_entry              :      0.200u      0.000s      0.010w     30 calls
DIISManager::extrapolate            :      0.233u      0.017s      0.022w     30 calls
bMatrix setup                       :      0.100u      0.017s      0.010w     30 calls
bMatrix pseudoinverse               :      0.033u      0.000s      0.002w     30 calls
New vector                          :      0.100u      0.000s      0.010w     30 calls
HF: Form C                          :      1.333u      0.017s      0.098w     32 calls
Grad: V T Perturb                   :      3.033u      0.000s      0.228w      3 calls
Grad: S                             :      0.000u      0.000s      0.003w      3 calls
Grad: JK                            :    136.550u      2.083s     10.518w      3 calls
JKGrad: Amn                         :     20.067u      0.500s      1.542w      3 calls
JKGrad: Awmn                        :     19.617u      0.500s      1.508w      3 calls
JKGrad: AB                          :     10.183u      0.083s      0.770w      3 calls
JKGrad: UV                          :      1.517u      0.083s      0.121w      3 calls
JKGrad: ABx                         :      3.717u      0.067s      0.281w      3 calls
JKGrad: Amnx                        :     79.483u      0.800s      6.146w      3 calls
Grad: XC                            :     40.617u      0.017s      3.050w      3 calls
V_xc gradient                       :      9.292p                          10467 calls

--------------------------------------------------------------------------------------
V: Grid                             :     16.783u      0.100s      1.281w      3 calls
JK: (A|Q)^-1                        :      9.567u      0.417s      0.725w      3 calls
JK: (A|mn)                          :      9.333u      0.000s      0.702w      3 calls
JK: (Q|mn)                          :      4.450u      0.000s      0.335w      3 calls
JK: (Q|mn) Write                    :      0.950u      0.133s      0.080w      3 calls
JK: (A|mn)^L                        :      9.000u      0.000s      0.676w      3 calls
JK: (Q|mn)^L                        :      4.450u      0.000s      0.336w      3 calls
JK: (Q|mn)^L Write                  :      0.983u      0.133s      0.081w      3 calls
JK: (Q|mn)^R                        :     11.633u      0.000s      0.875w      3 calls
JK: (Q|mn)^R Write                  :      1.800u      0.267s      0.154w      3 calls
HF: Form core H                     :      0.033u      0.000s      0.003w      3 calls
HF: Form S/X                        :      0.150u      0.000s      0.010w      3 calls
HF: Guess                           :      3.250u      0.017s      0.246w      3 calls
| SAD Guess                         :      3.083u      0.017s      0.232w      1 calls
HF: Form G                          :    237.250u      7.283s     18.336w     33 calls
| RV: Form V                        :    140.383u      0.283s     10.553w     33 calls
| | Properties                      :     35.239p                         115115 calls
| | Functional                      :     18.972p                         115115 calls
| | V_xc                            :     29.785p                         115115 calls
| JK: D                             :      0.000u      0.000s      0.001w     33 calls
| JK: USO2AO                        :      0.017u      0.000s      0.001w     33 calls
| JK: JK                            :     96.650u      7.000s      7.775w     33 calls
| | JK: (Q|mn) Read                 :      6.750u      0.967s      0.540w     66 calls
| | JK: J                           :      2.417u      0.033s      0.176w     66 calls
| | | JK: J1                        :      0.683u      0.000s      0.084w     66 calls
| | | JK: J2                        :      0.650u      0.000s      0.085w     66 calls
| | JK: K                           :     19.167u      0.017s      1.524w     66 calls
| | | JK: K1                        :     15.400u      0.017s      1.179w     66 calls
| | | JK: K2                        :      3.733u      0.000s      0.343w     66 calls
| | JK: (Q|mn)^L Read               :      7.800u      0.950s      0.551w    100 calls
| | JK: (Q|mn)^R Read               :      6.367u      1.033s      0.540w    100 calls
| | JK: wK                          :     22.067u      0.017s      1.815w    100 calls
| | | JK: wK1                       :     19.567u      0.017s      1.514w    200 calls
| | | JK: wK2                       :      2.450u      0.000s      0.299w    100 calls
| JK: AO2USO                        :      0.000u      0.000s      0.000w     33 calls
HF: Form F                          :      0.017u      0.000s      0.002w     33 calls
HF: Form D                          :      0.017u      0.000s      0.001w     33 calls
HF: DIIS                            :      0.700u      0.017s      0.056w     32 calls
| DIISManager::add_entry            :      0.200u      0.000s      0.010w     30 calls
| DIISManager::extrapolate          :      0.233u      0.017s      0.022w     30 calls
| | bMatrix setup                   :      0.100u      0.017s      0.010w     30 calls
| | bMatrix pseudoinverse           :      0.033u      0.000s      0.002w     30 calls
| | New vector                      :      0.100u      0.000s      0.010w     30 calls
HF: Form C                          :      1.333u      0.017s      0.098w     32 calls
Grad: V T Perturb                   :      3.033u      0.000s      0.228w      3 calls
Grad: S                             :      0.000u      0.000s      0.003w      3 calls
Grad: JK                            :    136.550u      2.083s     10.518w      3 calls
| JKGrad: Amn                       :     20.067u      0.500s      1.542w      3 calls
| JKGrad: Awmn                      :     19.617u      0.500s      1.508w      3 calls
| JKGrad: AB                        :     10.183u      0.083s      0.770w      3 calls
| JKGrad: UV                        :      1.517u      0.083s      0.121w      3 calls
| JKGrad: ABx                       :      3.717u      0.067s      0.281w      3 calls
| JKGrad: Amnx                      :     79.483u      0.800s      6.146w      3 calls
Grad: XC                            :     40.617u      0.017s      3.050w      3 calls
| Properties                        :     12.652p                          10467 calls
| Functional                        :      2.267p                          10467 calls
| V_xc gradient                     :      9.292p                          10467 calls

**************************************************************************************

Host: daniele-Precision-5750

Timers On : Wed Jun  2 00:17:28 2021
Timers Off: Wed Jun  2 00:18:12 2021

Wall Time:       43.54 seconds

                                                       Time (seconds)
Module                                       User      System        Wall        Calls
V: Grid                             :     17.433u      0.100s      1.332w      3 calls
JK: (A|Q)^-1                        :      9.733u      0.383s      0.734w      3 calls
JK: (A|mn)                          :     10.317u      0.000s      0.776w      3 calls
JK: (Q|mn)                          :      4.783u      0.017s      0.361w      3 calls
JK: (Q|mn) Write                    :      1.017u      0.167s      0.086w      3 calls
JK: (A|mn)^L                        :     10.667u      0.000s      0.802w      3 calls
JK: (Q|mn)^L                        :      5.283u      0.000s      0.396w      3 calls
JK: (Q|mn)^L Write                  :      0.967u      0.117s      0.081w      3 calls
JK: (Q|mn)^R                        :     12.850u      0.000s      0.968w      3 calls
JK: (Q|mn)^R Write                  :      1.933u      0.300s      0.161w      3 calls
HF: Form core H                     :      0.050u      0.017s      0.003w      3 calls
HF: Form S/X                        :      0.117u      0.017s      0.011w      3 calls
HF: Guess                           :      3.233u      0.033s      0.246w      3 calls
SAD Guess                           :      3.050u      0.033s      0.232w      1 calls
HF: Form G                          :    239.600u      6.467s     18.453w     33 calls
RV: Form V                          :    147.250u      0.183s     11.068w     33 calls
Properties                          :     50.463p                         124788 calls
Functional                          :     21.619p                         124788 calls
V_xc                                :     31.075p                         114386 calls
JK: D                               :      0.017u      0.000s      0.001w     33 calls
JK: USO2AO                          :      0.033u      0.000s      0.001w     33 calls
JK: JK                              :     92.217u      6.283s      7.376w     33 calls
JK: (Q|mn) Read                     :      6.967u      1.017s      0.555w     66 calls
JK: J                               :      2.500u      0.017s      0.188w     66 calls
JK: J1                              :      0.783u      0.017s      0.090w     66 calls
JK: J2                              :      0.833u      0.000s      0.092w     66 calls
JK: K                               :     19.700u      0.117s      1.576w     66 calls
JK: K1                              :     15.883u      0.000s      1.213w     66 calls
JK: K2                              :      3.800u      0.117s      0.362w     66 calls
JK: (Q|mn)^L Read                   :      8.000u      1.083s      0.558w    100 calls
JK: (Q|mn)^R Read                   :      6.350u      0.967s      0.554w    100 calls
JK: wK                              :     23.667u      0.117s      1.941w    100 calls
JK: wK1                             :     21.150u      0.017s      1.618w    200 calls
JK: wK2                             :      2.450u      0.100s      0.321w    100 calls
JK: AO2USO                          :      0.000u      0.000s      0.000w     33 calls
HF: Form F                          :      0.000u      0.000s      0.002w     33 calls
HF: Form D                          :      0.017u      0.000s      0.001w     33 calls
HF: DIIS                            :      0.750u      0.033s      0.058w     32 calls
DIISManager::add_entry              :      0.233u      0.017s      0.010w     30 calls
DIISManager::extrapolate            :      0.233u      0.017s      0.022w     30 calls
bMatrix setup                       :      0.050u      0.017s      0.010w     30 calls
bMatrix pseudoinverse               :      0.000u      0.000s      0.002w     30 calls
New vector                          :      0.183u      0.000s      0.010w     30 calls
HF: Form C                          :      1.317u      0.000s      0.101w     32 calls
Grad: V T Perturb                   :      3.067u      0.017s      0.230w      3 calls
Grad: S                             :      0.033u      0.000s      0.003w      3 calls
Grad: JK                            :    139.733u      1.967s     10.738w      3 calls
JKGrad: Amn                         :     20.600u      0.433s      1.583w      3 calls
JKGrad: Awmn                        :     19.917u      0.517s      1.532w      3 calls
JKGrad: AB                          :     10.300u      0.067s      0.777w      3 calls
JKGrad: UV                          :      1.533u      0.100s      0.123w      3 calls
JKGrad: ABx                         :      3.683u      0.050s      0.280w      3 calls
JKGrad: Amnx                        :     81.683u      0.783s      6.291w      3 calls
Grad: XC                            :     43.317u      0.083s      3.254w      3 calls
V_xc gradient                       :     10.836p                          10402 calls

--------------------------------------------------------------------------------------
V: Grid                             :     17.433u      0.100s      1.332w      3 calls
JK: (A|Q)^-1                        :      9.733u      0.383s      0.734w      3 calls
JK: (A|mn)                          :     10.317u      0.000s      0.776w      3 calls
JK: (Q|mn)                          :      4.783u      0.017s      0.361w      3 calls
JK: (Q|mn) Write                    :      1.017u      0.167s      0.086w      3 calls
JK: (A|mn)^L                        :     10.667u      0.000s      0.802w      3 calls
JK: (Q|mn)^L                        :      5.283u      0.000s      0.396w      3 calls
JK: (Q|mn)^L Write                  :      0.967u      0.117s      0.081w      3 calls
JK: (Q|mn)^R                        :     12.850u      0.000s      0.968w      3 calls
JK: (Q|mn)^R Write                  :      1.933u      0.300s      0.161w      3 calls
HF: Form core H                     :      0.050u      0.017s      0.003w      3 calls
HF: Form S/X                        :      0.117u      0.017s      0.011w      3 calls
HF: Guess                           :      3.233u      0.033s      0.246w      3 calls
| SAD Guess                         :      3.050u      0.033s      0.232w      1 calls
HF: Form G                          :    239.600u      6.467s     18.453w     33 calls
| RV: Form V                        :    147.250u      0.183s     11.068w     33 calls
| | Properties                      :     37.796p                         114386 calls
| | Functional                      :     19.271p                         114386 calls
| | V_xc                            :     31.075p                         114386 calls
| JK: D                             :      0.017u      0.000s      0.001w     33 calls
| JK: USO2AO                        :      0.033u      0.000s      0.001w     33 calls
| JK: JK                            :     92.217u      6.283s      7.376w     33 calls
| | JK: (Q|mn) Read                 :      6.967u      1.017s      0.555w     66 calls
| | JK: J                           :      2.500u      0.017s      0.188w     66 calls
| | | JK: J1                        :      0.783u      0.017s      0.090w     66 calls
| | | JK: J2                        :      0.833u      0.000s      0.092w     66 calls
| | JK: K                           :     19.700u      0.117s      1.576w     66 calls
| | | JK: K1                        :     15.883u      0.000s      1.213w     66 calls
| | | JK: K2                        :      3.800u      0.117s      0.362w     66 calls
| | JK: (Q|mn)^L Read               :      8.000u      1.083s      0.558w    100 calls
| | JK: (Q|mn)^R Read               :      6.350u      0.967s      0.554w    100 calls
| | JK: wK                          :     23.667u      0.117s      1.941w    100 calls
| | | JK: wK1                       :     21.150u      0.017s      1.618w    200 calls
| | | JK: wK2                       :      2.450u      0.100s      0.321w    100 calls
| JK: AO2USO                        :      0.000u      0.000s      0.000w     33 calls
HF: Form F                          :      0.000u      0.000s      0.002w     33 calls
HF: Form D                          :      0.017u      0.000s      0.001w     33 calls
HF: DIIS                            :      0.750u      0.033s      0.058w     32 calls
| DIISManager::add_entry            :      0.233u      0.017s      0.010w     30 calls
| DIISManager::extrapolate          :      0.233u      0.017s      0.022w     30 calls
| | bMatrix setup                   :      0.050u      0.017s      0.010w     30 calls
| | bMatrix pseudoinverse           :      0.000u      0.000s      0.002w     30 calls
| | New vector                      :      0.183u      0.000s      0.010w     30 calls
HF: Form C                          :      1.317u      0.000s      0.101w     32 calls
Grad: V T Perturb                   :      3.067u      0.017s      0.230w      3 calls
Grad: S                             :      0.033u      0.000s      0.003w      3 calls
Grad: JK                            :    139.733u      1.967s     10.738w      3 calls
| JKGrad: Amn                       :     20.600u      0.433s      1.583w      3 calls
| JKGrad: Awmn                      :     19.917u      0.517s      1.532w      3 calls
| JKGrad: AB                        :     10.300u      0.067s      0.777w      3 calls
| JKGrad: UV                        :      1.533u      0.100s      0.123w      3 calls
| JKGrad: ABx                       :      3.683u      0.050s      0.280w      3 calls
| JKGrad: Amnx                      :     81.683u      0.783s      6.291w      3 calls
Grad: XC                            :     43.317u      0.083s      3.254w      3 calls
| Properties                        :     12.667p                          10402 calls
| Functional                        :      2.348p                          10402 calls
| V_xc gradient                     :     10.836p                          10402 calls

**************************************************************************************

Host: daniele-Precision-5750

Timers On : Wed Jun  2 00:18:42 2021
Timers Off: Wed Jun  2 00:19:28 2021

Wall Time:       45.87 seconds

                                                       Time (seconds)
Module                                       User      System        Wall        Calls
V: Grid                             :     18.733u      0.117s      1.431w      3 calls
JK: (A|Q)^-1                        :     11.200u      0.500s      0.852w      3 calls
JK: (A|mn)                          :     10.850u      0.000s      0.815w      3 calls
JK: (Q|mn)                          :      5.533u      0.000s      0.415w      3 calls
JK: (Q|mn) Write                    :      1.100u      0.150s      0.093w      3 calls
JK: (A|mn)^L                        :     10.583u      0.000s      0.795w      3 calls
JK: (Q|mn)^L                        :      5.700u      0.017s      0.430w      3 calls
JK: (Q|mn)^L Write                  :      0.917u      0.133s      0.078w      3 calls
JK: (Q|mn)^R                        :     13.183u      0.000s      0.993w      3 calls
JK: (Q|mn)^R Write                  :      2.100u      0.300s      0.177w      3 calls
HF: Form core H                     :      0.033u      0.017s      0.004w      3 calls
HF: Form S/X                        :      0.167u      0.000s      0.012w      3 calls
HF: Guess                           :      3.317u      0.050s      0.252w      3 calls
SAD Guess                           :      3.133u      0.050s      0.238w      1 calls
HF: Form G                          :    254.017u      6.483s     19.542w     33 calls
RV: Form V                          :    157.950u      0.200s     11.871w     33 calls
Properties                          :     54.890p                         125106 calls
Functional                          :     22.601p                         125106 calls
V_xc                                :     32.906p                         114683 calls
JK: D                               :      0.000u      0.000s      0.001w     33 calls
JK: USO2AO                          :      0.017u      0.000s      0.001w     33 calls
JK: JK                              :     95.817u      6.283s      7.662w     33 calls
JK: (Q|mn) Read                     :      7.167u      1.000s      0.574w     66 calls
JK: J                               :      2.850u      0.000s      0.209w     66 calls
JK: J1                              :      0.983u      0.000s      0.100w     66 calls
JK: J2                              :      1.050u      0.000s      0.102w     66 calls
JK: K                               :     22.467u      0.350s      1.802w     66 calls
JK: K1                              :     18.217u      0.033s      1.390w     66 calls
JK: K2                              :      4.233u      0.317s      0.410w     66 calls
JK: (Q|mn)^L Read                   :      7.767u      0.917s      0.572w    100 calls
JK: (Q|mn)^R Read                   :      6.550u      1.033s      0.565w    100 calls
JK: wK                              :     25.317u      0.267s      2.029w    100 calls
JK: wK1                             :     21.883u      0.033s      1.679w    200 calls
JK: wK2                             :      3.333u      0.233s      0.348w    100 calls
JK: AO2USO                          :      0.000u      0.000s      0.000w     33 calls
HF: Form F                          :      0.000u      0.000s      0.002w     33 calls
HF: Form D                          :      0.050u      0.000s      0.001w     33 calls
HF: DIIS                            :      0.733u      0.083s      0.059w     32 calls
DIISManager::add_entry              :      0.117u      0.033s      0.010w     30 calls
DIISManager::extrapolate            :      0.233u      0.033s      0.022w     30 calls
bMatrix setup                       :      0.100u      0.017s      0.010w     30 calls
bMatrix pseudoinverse               :      0.033u      0.000s      0.002w     30 calls
New vector                          :      0.083u      0.017s      0.010w     30 calls
HF: Form C                          :      1.383u      0.000s      0.103w     32 calls
Grad: V T Perturb                   :      3.217u      0.000s      0.241w      3 calls
Grad: S                             :      0.017u      0.000s      0.004w      3 calls
Grad: JK                            :    146.917u      2.033s     11.292w      3 calls
JKGrad: Amn                         :     21.167u      0.467s      1.623w      3 calls
JKGrad: Awmn                        :     20.467u      0.450s      1.569w      3 calls
JKGrad: AB                          :     10.300u      0.083s      0.778w      3 calls
JKGrad: UV                          :      1.533u      0.100s      0.122w      3 calls
JKGrad: ABx                         :      3.750u      0.033s      0.285w      3 calls
JKGrad: Amnx                        :     87.617u      0.850s      6.755w      3 calls
Grad: XC                            :     45.100u      0.050s      3.386w      3 calls
V_xc gradient                       :     10.984p                          10423 calls

--------------------------------------------------------------------------------------
V: Grid                             :     18.733u      0.117s      1.431w      3 calls
JK: (A|Q)^-1                        :     11.200u      0.500s      0.852w      3 calls
JK: (A|mn)                          :     10.850u      0.000s      0.815w      3 calls
JK: (Q|mn)                          :      5.533u      0.000s      0.415w      3 calls
JK: (Q|mn) Write                    :      1.100u      0.150s      0.093w      3 calls
JK: (A|mn)^L                        :     10.583u      0.000s      0.795w      3 calls
JK: (Q|mn)^L                        :      5.700u      0.017s      0.430w      3 calls
JK: (Q|mn)^L Write                  :      0.917u      0.133s      0.078w      3 calls
JK: (Q|mn)^R                        :     13.183u      0.000s      0.993w      3 calls
JK: (Q|mn)^R Write                  :      2.100u      0.300s      0.177w      3 calls
HF: Form core H                     :      0.033u      0.017s      0.004w      3 calls
HF: Form S/X                        :      0.167u      0.000s      0.012w      3 calls
HF: Guess                           :      3.317u      0.050s      0.252w      3 calls
| SAD Guess                         :      3.133u      0.050s      0.238w      1 calls
HF: Form G                          :    254.017u      6.483s     19.542w     33 calls
| RV: Form V                        :    157.950u      0.200s     11.871w     33 calls
| | Properties                      :     41.421p                         114683 calls
| | Functional                      :     20.167p                         114683 calls
| | V_xc                            :     32.906p                         114683 calls
| JK: D                             :      0.000u      0.000s      0.001w     33 calls
| JK: USO2AO                        :      0.017u      0.000s      0.001w     33 calls
| JK: JK                            :     95.817u      6.283s      7.662w     33 calls
| | JK: (Q|mn) Read                 :      7.167u      1.000s      0.574w     66 calls
| | JK: J                           :      2.850u      0.000s      0.209w     66 calls
| | | JK: J1                        :      0.983u      0.000s      0.100w     66 calls
| | | JK: J2                        :      1.050u      0.000s      0.102w     66 calls
| | JK: K                           :     22.467u      0.350s      1.802w     66 calls
| | | JK: K1                        :     18.217u      0.033s      1.390w     66 calls
| | | JK: K2                        :      4.233u      0.317s      0.410w     66 calls
| | JK: (Q|mn)^L Read               :      7.767u      0.917s      0.572w    100 calls
| | JK: (Q|mn)^R Read               :      6.550u      1.033s      0.565w    100 calls
| | JK: wK                          :     25.317u      0.267s      2.029w    100 calls
| | | JK: wK1                       :     21.883u      0.033s      1.679w    200 calls
| | | JK: wK2                       :      3.333u      0.233s      0.348w    100 calls
| JK: AO2USO                        :      0.000u      0.000s      0.000w     33 calls
HF: Form F                          :      0.000u      0.000s      0.002w     33 calls
HF: Form D                          :      0.050u      0.000s      0.001w     33 calls
HF: DIIS                            :      0.733u      0.083s      0.059w     32 calls
| DIISManager::add_entry            :      0.117u      0.033s      0.010w     30 calls
| DIISManager::extrapolate          :      0.233u      0.033s      0.022w     30 calls
| | bMatrix setup                   :      0.100u      0.017s      0.010w     30 calls
| | bMatrix pseudoinverse           :      0.033u      0.000s      0.002w     30 calls
| | New vector                      :      0.083u      0.017s      0.010w     30 calls
HF: Form C                          :      1.383u      0.000s      0.103w     32 calls
Grad: V T Perturb                   :      3.217u      0.000s      0.241w      3 calls
Grad: S                             :      0.017u      0.000s      0.004w      3 calls
Grad: JK                            :    146.917u      2.033s     11.292w      3 calls
| JKGrad: Amn                       :     21.167u      0.467s      1.623w      3 calls
| JKGrad: Awmn                      :     20.467u      0.450s      1.569w      3 calls
| JKGrad: AB                        :     10.300u      0.083s      0.778w      3 calls
| JKGrad: UV                        :      1.533u      0.100s      0.122w      3 calls
| JKGrad: ABx                       :      3.750u      0.033s      0.285w      3 calls
| JKGrad: Amnx                      :     87.617u      0.850s      6.755w      3 calls
Grad: XC                            :     45.100u      0.050s      3.386w      3 calls
| Properties                        :     13.470p                          10423 calls
| Functional                        :      2.434p                          10423 calls
| V_xc gradient                     :     10.984p                          10423 calls

**************************************************************************************

Host: daniele-Precision-5750

Timers On : Wed Jun  2 00:19:58 2021
Timers Off: Wed Jun  2 00:20:41 2021

Wall Time:       42.88 seconds

                                                       Time (seconds)
Module                                       User      System        Wall        Calls
V: Grid                             :     16.967u      0.150s      1.302w      3 calls
JK: (A|Q)^-1                        :      9.583u      0.433s      0.729w      3 calls
JK: (A|mn)                          :      9.150u      0.000s      0.687w      3 calls
JK: (Q|mn)                          :      4.583u      0.000s      0.344w      3 calls
JK: (Q|mn) Write                    :      0.950u      0.150s      0.081w      3 calls
JK: (A|mn)^L                        :      9.183u      0.000s      0.690w      3 calls
JK: (Q|mn)^L                        :      4.567u      0.017s      0.344w      3 calls
JK: (Q|mn)^L Write                  :      1.017u      0.150s      0.084w      3 calls
JK: (Q|mn)^R                        :     11.933u      0.017s      0.900w      3 calls
JK: (Q|mn)^R Write                  :      2.100u      0.283s      0.175w      3 calls
HF: Form core H                     :      0.017u      0.000s      0.003w      3 calls
HF: Form S/X                        :      0.133u      0.000s      0.010w      3 calls
HF: Guess                           :      3.250u      0.067s      0.248w      3 calls
SAD Guess                           :      3.067u      0.067s      0.235w      1 calls
HF: Form G                          :    236.650u      6.317s     18.229w     33 calls
RV: Form V                          :    145.017u      0.183s     10.903w     33 calls
Properties                          :     49.489p                         124628 calls
Functional                          :     21.276p                         124628 calls
V_xc                                :     31.066p                         114242 calls
JK: D                               :      0.000u      0.000s      0.001w     33 calls
JK: USO2AO                          :      0.033u      0.000s      0.001w     33 calls
JK: JK                              :     91.450u      6.133s      7.318w     33 calls
JK: (Q|mn) Read                     :      7.117u      1.017s      0.554w     66 calls
JK: J                               :      2.550u      0.017s      0.186w     66 calls
JK: J1                              :      0.750u      0.017s      0.090w     66 calls
JK: J2                              :      0.883u      0.000s      0.089w     66 calls
JK: K                               :     19.067u      0.050s      1.538w     66 calls
JK: K1                              :     15.500u      0.017s      1.188w     66 calls
JK: K2                              :      3.550u      0.033s      0.348w     66 calls
JK: (Q|mn)^L Read                   :      7.883u      0.967s      0.558w    100 calls
JK: (Q|mn)^R Read                   :      6.367u      1.067s      0.555w    100 calls
JK: wK                              :     22.883u      0.067s      1.871w    100 calls
JK: wK1                             :     20.450u      0.000s      1.566w    200 calls
JK: wK2                             :      2.367u      0.050s      0.302w    100 calls
JK: AO2USO                          :      0.000u      0.000s      0.000w     33 calls
HF: Form F                          :      0.017u      0.000s      0.001w     33 calls
HF: Form D                          :      0.033u      0.000s      0.001w     33 calls
HF: DIIS                            :      0.767u      0.067s      0.057w     32 calls
DIISManager::add_entry              :      0.117u      0.050s      0.010w     30 calls
DIISManager::extrapolate            :      0.283u      0.017s      0.021w     30 calls
bMatrix setup                       :      0.083u      0.000s      0.010w     30 calls
bMatrix pseudoinverse               :      0.050u      0.000s      0.002w     30 calls
New vector                          :      0.150u      0.017s      0.010w     30 calls
HF: Form C                          :      1.250u      0.000s      0.098w     32 calls
Grad: V T Perturb                   :      3.050u      0.000s      0.229w      3 calls
Grad: S                             :      0.017u      0.000s      0.003w      3 calls
Grad: JK                            :    138.367u      2.150s     10.652w      3 calls
JKGrad: Amn                         :     19.883u      0.467s      1.525w      3 calls
JKGrad: Awmn                        :     19.417u      0.517s      1.496w      3 calls
JKGrad: AB                          :     10.450u      0.133s      0.794w      3 calls
JKGrad: UV                          :      1.600u      0.100s      0.128w      3 calls
JKGrad: ABx                         :      3.767u      0.067s      0.285w      3 calls
JKGrad: Amnx                        :     81.283u      0.817s      6.275w      3 calls
Grad: XC                            :     43.633u      0.033s      3.276w      3 calls
V_xc gradient                       :     10.979p                          10386 calls

--------------------------------------------------------------------------------------
V: Grid                             :     16.967u      0.150s      1.302w      3 calls
JK: (A|Q)^-1                        :      9.583u      0.433s      0.729w      3 calls
JK: (A|mn)                          :      9.150u      0.000s      0.687w      3 calls
JK: (Q|mn)                          :      4.583u      0.000s      0.344w      3 calls
JK: (Q|mn) Write                    :      0.950u      0.150s      0.081w      3 calls
JK: (A|mn)^L                        :      9.183u      0.000s      0.690w      3 calls
JK: (Q|mn)^L                        :      4.567u      0.017s      0.344w      3 calls
JK: (Q|mn)^L Write                  :      1.017u      0.150s      0.084w      3 calls
JK: (Q|mn)^R                        :     11.933u      0.017s      0.900w      3 calls
JK: (Q|mn)^R Write                  :      2.100u      0.283s      0.175w      3 calls
HF: Form core H                     :      0.017u      0.000s      0.003w      3 calls
HF: Form S/X                        :      0.133u      0.000s      0.010w      3 calls
HF: Guess                           :      3.250u      0.067s      0.248w      3 calls
| SAD Guess                         :      3.067u      0.067s      0.235w      1 calls
HF: Form G                          :    236.650u      6.317s     18.229w     33 calls
| RV: Form V                        :    145.017u      0.183s     10.903w     33 calls
| | Properties                      :     36.786p                         114242 calls
| | Functional                      :     18.938p                         114242 calls
| | V_xc                            :     31.066p                         114242 calls
| JK: D                             :      0.000u      0.000s      0.001w     33 calls
| JK: USO2AO                        :      0.033u      0.000s      0.001w     33 calls
| JK: JK                            :     91.450u      6.133s      7.318w     33 calls
| | JK: (Q|mn) Read                 :      7.117u      1.017s      0.554w     66 calls
| | JK: J                           :      2.550u      0.017s      0.186w     66 calls
| | | JK: J1                        :      0.750u      0.017s      0.090w     66 calls
| | | JK: J2                        :      0.883u      0.000s      0.089w     66 calls
| | JK: K                           :     19.067u      0.050s      1.538w     66 calls
| | | JK: K1                        :     15.500u      0.017s      1.188w     66 calls
| | | JK: K2                        :      3.550u      0.033s      0.348w     66 calls
| | JK: (Q|mn)^L Read               :      7.883u      0.967s      0.558w    100 calls
| | JK: (Q|mn)^R Read               :      6.367u      1.067s      0.555w    100 calls
| | JK: wK                          :     22.883u      0.067s      1.871w    100 calls
| | | JK: wK1                       :     20.450u      0.000s      1.566w    200 calls
| | | JK: wK2                       :      2.367u      0.050s      0.302w    100 calls
| JK: AO2USO                        :      0.000u      0.000s      0.000w     33 calls
HF: Form F                          :      0.017u      0.000s      0.001w     33 calls
HF: Form D                          :      0.033u      0.000s      0.001w     33 calls
HF: DIIS                            :      0.767u      0.067s      0.057w     32 calls
| DIISManager::add_entry            :      0.117u      0.050s      0.010w     30 calls
| DIISManager::extrapolate          :      0.283u      0.017s      0.021w     30 calls
| | bMatrix setup                   :      0.083u      0.000s      0.010w     30 calls
| | bMatrix pseudoinverse           :      0.050u      0.000s      0.002w     30 calls
| | New vector                      :      0.150u      0.017s      0.010w     30 calls
HF: Form C                          :      1.250u      0.000s      0.098w     32 calls
Grad: V T Perturb                   :      3.050u      0.000s      0.229w      3 calls
Grad: S                             :      0.017u      0.000s      0.003w      3 calls
Grad: JK                            :    138.367u      2.150s     10.652w      3 calls
| JKGrad: Amn                       :     19.883u      0.467s      1.525w      3 calls
| JKGrad: Awmn                      :     19.417u      0.517s      1.496w      3 calls
| JKGrad: AB                        :     10.450u      0.133s      0.794w      3 calls
| JKGrad: UV                        :      1.600u      0.100s      0.128w      3 calls
| JKGrad: ABx                       :      3.767u      0.067s      0.285w      3 calls
| JKGrad: Amnx                      :     81.283u      0.817s      6.275w      3 calls
Grad: XC                            :     43.633u      0.033s      3.276w      3 calls
| Properties                        :     12.703p                          10386 calls
| Functional                        :      2.338p                          10386 calls
| V_xc gradient                     :     10.979p                          10386 calls

**************************************************************************************

Host: daniele-Precision-5750

Timers On : Wed Jun  2 00:21:11 2021
Timers Off: Wed Jun  2 00:22:06 2021

Wall Time:       54.66 seconds

                                                       Time (seconds)
Module                                       User      System        Wall        Calls
V: Grid                             :     22.450u      0.183s      1.716w      4 calls
JK: (A|Q)^-1                        :     12.683u      0.583s      0.965w      4 calls
JK: (A|mn)                          :     12.250u      0.000s      0.918w      4 calls
JK: (Q|mn)                          :      6.083u      0.000s      0.458w      4 calls
JK: (Q|mn) Write                    :      1.300u      0.167s      0.109w      4 calls
JK: (A|mn)^L                        :     12.200u      0.000s      0.917w      4 calls
JK: (Q|mn)^L                        :      6.050u      0.017s      0.459w      4 calls
JK: (Q|mn)^L Write                  :      1.383u      0.200s      0.115w      4 calls
JK: (Q|mn)^R                        :     15.883u      0.000s      1.197w      4 calls
JK: (Q|mn)^R Write                  :      2.667u      0.417s      0.224w      4 calls
HF: Form core H                     :      0.033u      0.017s      0.004w      4 calls
HF: Form S/X                        :      0.200u      0.000s      0.014w      4 calls
HF: Guess                           :      3.600u      0.017s      0.272w      4 calls
SAD Guess                           :      3.417u      0.017s      0.258w      1 calls
HF: Form G                          :    294.833u      8.033s     22.717w     41 calls
RV: Form V                          :    178.917u      0.267s     13.450w     41 calls
Properties                          :     61.656p                         155731 calls
Functional                          :     26.421p                         155731 calls
V_xc                                :     38.765p                         141887 calls
JK: D                               :      0.000u      0.000s      0.002w     41 calls
JK: USO2AO                          :      0.033u      0.000s      0.001w     41 calls
JK: JK                              :    115.633u      7.767s      9.256w     41 calls
JK: (Q|mn) Read                     :      8.917u      1.233s      0.695w     82 calls
JK: J                               :      3.050u      0.017s      0.227w     82 calls
JK: J1                              :      1.017u      0.000s      0.111w     82 calls
JK: J2                              :      0.867u      0.017s      0.108w     82 calls
JK: K                               :     23.900u      0.083s      1.922w     82 calls
JK: K1                              :     19.350u      0.000s      1.480w     82 calls
JK: K2                              :      4.500u      0.083s      0.440w     82 calls
JK: (Q|mn)^L Read                   :     10.133u      1.133s      0.703w    124 calls
JK: (Q|mn)^R Read                   :      7.733u      1.333s      0.674w    124 calls
JK: wK                              :     28.333u      0.083s      2.331w    124 calls
JK: wK1                             :     25.600u      0.017s      1.946w    248 calls
JK: wK2                             :      2.667u      0.067s      0.381w    124 calls
JK: AO2USO                          :      0.000u      0.000s      0.000w     41 calls
HF: Form F                          :      0.000u      0.000s      0.002w     41 calls
HF: Form D                          :      0.050u      0.000s      0.001w     41 calls
HF: DIIS                            :      0.883u      0.033s      0.069w     40 calls
DIISManager::add_entry              :      0.250u      0.017s      0.012w     37 calls
DIISManager::extrapolate            :      0.350u      0.017s      0.025w     37 calls
bMatrix setup                       :      0.133u      0.000s      0.012w     37 calls
bMatrix pseudoinverse               :      0.033u      0.000s      0.002w     37 calls
New vector                          :      0.183u      0.017s      0.012w     37 calls
HF: Form C                          :      1.600u      0.017s      0.124w     40 calls
Grad: V T Perturb                   :      4.083u      0.000s      0.306w      4 calls
Grad: S                             :      0.050u      0.000s      0.004w      4 calls
Grad: JK                            :    182.750u      2.683s     14.063w      4 calls
JKGrad: Amn                         :     26.750u      0.650s      2.063w      4 calls
JKGrad: Awmn                        :     25.917u      0.633s      1.990w      4 calls
JKGrad: AB                          :     13.533u      0.117s      1.024w      4 calls
JKGrad: UV                          :      2.033u      0.117s      0.162w      4 calls
JKGrad: ABx                         :      4.950u      0.017s      0.373w      4 calls
JKGrad: Amnx                        :    106.950u      1.067s      8.249w      4 calls
Grad: XC                            :     55.583u      0.050s      4.174w      4 calls
V_xc gradient                       :     13.446p                          13844 calls

--------------------------------------------------------------------------------------
V: Grid                             :     22.450u      0.183s      1.716w      4 calls
JK: (A|Q)^-1                        :     12.683u      0.583s      0.965w      4 calls
JK: (A|mn)                          :     12.250u      0.000s      0.918w      4 calls
JK: (Q|mn)                          :      6.083u      0.000s      0.458w      4 calls
JK: (Q|mn) Write                    :      1.300u      0.167s      0.109w      4 calls
JK: (A|mn)^L                        :     12.200u      0.000s      0.917w      4 calls
JK: (Q|mn)^L                        :      6.050u      0.017s      0.459w      4 calls
JK: (Q|mn)^L Write                  :      1.383u      0.200s      0.115w      4 calls
JK: (Q|mn)^R                        :     15.883u      0.000s      1.197w      4 calls
JK: (Q|mn)^R Write                  :      2.667u      0.417s      0.224w      4 calls
HF: Form core H                     :      0.033u      0.017s      0.004w      4 calls
HF: Form S/X                        :      0.200u      0.000s      0.014w      4 calls
HF: Guess                           :      3.600u      0.017s      0.272w      4 calls
| SAD Guess                         :      3.417u      0.017s      0.258w      1 calls
HF: Form G                          :    294.833u      8.033s     22.717w     41 calls
| RV: Form V                        :    178.917u      0.267s     13.450w     41 calls
| | Properties                      :     44.948p                         141887 calls
| | Functional                      :     23.414p                         141887 calls
| | V_xc                            :     38.765p                         141887 calls
| JK: D                             :      0.000u      0.000s      0.002w     41 calls
| JK: USO2AO                        :      0.033u      0.000s      0.001w     41 calls
| JK: JK                            :    115.633u      7.767s      9.256w     41 calls
| | JK: (Q|mn) Read                 :      8.917u      1.233s      0.695w     82 calls
| | JK: J                           :      3.050u      0.017s      0.227w     82 calls
| | | JK: J1                        :      1.017u      0.000s      0.111w     82 calls
| | | JK: J2                        :      0.867u      0.017s      0.108w     82 calls
| | JK: K                           :     23.900u      0.083s      1.922w     82 calls
| | | JK: K1                        :     19.350u      0.000s      1.480w     82 calls
| | | JK: K2                        :      4.500u      0.083s      0.440w     82 calls
| | JK: (Q|mn)^L Read               :     10.133u      1.133s      0.703w    124 calls
| | JK: (Q|mn)^R Read               :      7.733u      1.333s      0.674w    124 calls
| | JK: wK                          :     28.333u      0.083s      2.331w    124 calls
| | | JK: wK1                       :     25.600u      0.017s      1.946w    248 calls
| | | JK: wK2                       :      2.667u      0.067s      0.381w    124 calls
| JK: AO2USO                        :      0.000u      0.000s      0.000w     41 calls
HF: Form F                          :      0.000u      0.000s      0.002w     41 calls
HF: Form D                          :      0.050u      0.000s      0.001w     41 calls
HF: DIIS                            :      0.883u      0.033s      0.069w     40 calls
| DIISManager::add_entry            :      0.250u      0.017s      0.012w     37 calls
| DIISManager::extrapolate          :      0.350u      0.017s      0.025w     37 calls
| | bMatrix setup                   :      0.133u      0.000s      0.012w     37 calls
| | bMatrix pseudoinverse           :      0.033u      0.000s      0.002w     37 calls
| | New vector                      :      0.183u      0.017s      0.012w     37 calls
HF: Form C                          :      1.600u      0.017s      0.124w     40 calls
Grad: V T Perturb                   :      4.083u      0.000s      0.306w      4 calls
Grad: S                             :      0.050u      0.000s      0.004w      4 calls
Grad: JK                            :    182.750u      2.683s     14.063w      4 calls
| JKGrad: Amn                       :     26.750u      0.650s      2.063w      4 calls
| JKGrad: Awmn                      :     25.917u      0.633s      1.990w      4 calls
| JKGrad: AB                        :     13.533u      0.117s      1.024w      4 calls
| JKGrad: UV                        :      2.033u      0.117s      0.162w      4 calls
| JKGrad: ABx                       :      4.950u      0.017s      0.373w      4 calls
| JKGrad: Amnx                      :    106.950u      1.067s      8.249w      4 calls
Grad: XC                            :     55.583u      0.050s      4.174w      4 calls
| Properties                        :     16.708p                          13844 calls
| Functional                        :      3.007p                          13844 calls
| V_xc gradient                     :     13.446p                          13844 calls

**************************************************************************************

Host: daniele-Precision-5750

Timers On : Wed Jun  2 00:22:36 2021
Timers Off: Wed Jun  2 00:23:19 2021

Wall Time:       42.85 seconds

                                                       Time (seconds)
Module                                       User      System        Wall        Calls
V: Grid                             :     16.867u      0.100s      1.288w      3 calls
JK: (A|Q)^-1                        :      9.600u      0.383s      0.731w      3 calls
JK: (A|mn)                          :      9.783u      0.000s      0.736w      3 calls
JK: (Q|mn)                          :      4.467u      0.000s      0.336w      3 calls
JK: (Q|mn) Write                    :      0.933u      0.117s      0.079w      3 calls
JK: (A|mn)^L                        :      9.783u      0.000s      0.735w      3 calls
JK: (Q|mn)^L                        :      4.400u      0.000s      0.334w      3 calls
JK: (Q|mn)^L Write                  :      0.967u      0.150s      0.081w      3 calls
JK: (Q|mn)^R                        :     12.183u      0.000s      0.920w      3 calls
JK: (Q|mn)^R Write                  :      1.900u      0.267s      0.157w      3 calls
HF: Form core H                     :      0.050u      0.000s      0.003w      3 calls
HF: Form S/X                        :      0.150u      0.000s      0.010w      3 calls
HF: Guess                           :      3.283u      0.033s      0.247w      3 calls
SAD Guess                           :      3.100u      0.017s      0.234w      1 calls
HF: Form G                          :    235.900u      7.083s     18.228w     33 calls
RV: Form V                          :    140.350u      0.183s     10.551w     33 calls
Properties                          :     48.619p                         124250 calls
Functional                          :     21.019p                         124250 calls
V_xc                                :     29.583p                         113894 calls
JK: D                               :      0.000u      0.017s      0.001w     33 calls
JK: USO2AO                          :      0.033u      0.000s      0.001w     33 calls
JK: JK                              :     95.283u      6.883s      7.668w     33 calls
JK: (Q|mn) Read                     :      6.850u      0.967s      0.539w     66 calls
JK: J                               :      2.383u      0.017s      0.174w     66 calls
JK: J1                              :      0.700u      0.017s      0.084w     66 calls
JK: J2                              :      0.650u      0.000s      0.084w     66 calls
JK: K                               :     18.817u      0.000s      1.518w     66 calls
JK: K1                              :     15.433u      0.000s      1.175w     66 calls
JK: K2                              :      3.350u      0.000s      0.342w     66 calls
JK: (Q|mn)^L Read                   :      7.533u      1.050s      0.529w    100 calls
JK: (Q|mn)^R Read                   :      6.067u      0.750s      0.526w    100 calls
JK: wK                              :     21.650u      0.050s      1.781w    100 calls
JK: wK1                             :     19.467u      0.050s      1.486w    200 calls
JK: wK2                             :      2.133u      0.000s      0.293w    100 calls
JK: AO2USO                          :      0.000u      0.000s      0.000w     33 calls
HF: Form F                          :      0.000u      0.000s      0.001w     33 calls
HF: Form D                          :      0.067u      0.000s      0.001w     33 calls
HF: DIIS                            :      0.667u      0.100s      0.056w     32 calls
DIISManager::add_entry              :      0.200u      0.067s      0.009w     30 calls
DIISManager::extrapolate            :      0.200u      0.017s      0.021w     30 calls
bMatrix setup                       :      0.083u      0.000s      0.010w     30 calls
bMatrix pseudoinverse               :      0.000u      0.000s      0.001w     30 calls
New vector                          :      0.117u      0.017s      0.010w     30 calls
HF: Form C                          :      1.283u      0.000s      0.098w     32 calls
Grad: V T Perturb                   :      3.017u      0.000s      0.227w      3 calls
Grad: S                             :      0.017u      0.000s      0.003w      3 calls
Grad: JK                            :    140.950u      2.200s     10.855w      3 calls
JKGrad: Amn                         :     20.867u      0.500s      1.602w      3 calls
JKGrad: Awmn                        :     20.383u      0.467s      1.566w      3 calls
JKGrad: AB                          :     10.167u      0.117s      0.769w      3 calls
JKGrad: UV                          :      1.517u      0.100s      0.121w      3 calls
JKGrad: ABx                         :      3.733u      0.050s      0.284w      3 calls
JKGrad: Amnx                        :     82.300u      0.933s      6.364w      3 calls
Grad: XC                            :     41.283u      0.050s      3.101w      3 calls
V_xc gradient                       :      9.387p                          10356 calls

--------------------------------------------------------------------------------------
V: Grid                             :     16.867u      0.100s      1.288w      3 calls
JK: (A|Q)^-1                        :      9.600u      0.383s      0.731w      3 calls
JK: (A|mn)                          :      9.783u      0.000s      0.736w      3 calls
JK: (Q|mn)                          :      4.467u      0.000s      0.336w      3 calls
JK: (Q|mn) Write                    :      0.933u      0.117s      0.079w      3 calls
JK: (A|mn)^L                        :      9.783u      0.000s      0.735w      3 calls
JK: (Q|mn)^L                        :      4.400u      0.000s      0.334w      3 calls
JK: (Q|mn)^L Write                  :      0.967u      0.150s      0.081w      3 calls
JK: (Q|mn)^R                        :     12.183u      0.000s      0.920w      3 calls
JK: (Q|mn)^R Write                  :      1.900u      0.267s      0.157w      3 calls
HF: Form core H                     :      0.050u      0.000s      0.003w      3 calls
HF: Form S/X                        :      0.150u      0.000s      0.010w      3 calls
HF: Guess                           :      3.283u      0.033s      0.247w      3 calls
| SAD Guess                         :      3.100u      0.017s      0.234w      1 calls
HF: Form G                          :    235.900u      7.083s     18.228w     33 calls
| RV: Form V                        :    140.350u      0.183s     10.551w     33 calls
| | Properties                      :     35.632p                         113894 calls
| | Functional                      :     18.772p                         113894 calls
| | V_xc                            :     29.583p                         113894 calls
| JK: D                             :      0.000u      0.017s      0.001w     33 calls
| JK: USO2AO                        :      0.033u      0.000s      0.001w     33 calls
| JK: JK                            :     95.283u      6.883s      7.668w     33 calls
| | JK: (Q|mn) Read                 :      6.850u      0.967s      0.539w     66 calls
| | JK: J                           :      2.383u      0.017s      0.174w     66 calls
| | | JK: J1                        :      0.700u      0.017s      0.084w     66 calls
| | | JK: J2                        :      0.650u      0.000s      0.084w     66 calls
| | JK: K                           :     18.817u      0.000s      1.518w     66 calls
| | | JK: K1                        :     15.433u      0.000s      1.175w     66 calls
| | | JK: K2                        :      3.350u      0.000s      0.342w     66 calls
| | JK: (Q|mn)^L Read               :      7.533u      1.050s      0.529w    100 calls
| | JK: (Q|mn)^R Read               :      6.067u      0.750s      0.526w    100 calls
| | JK: wK                          :     21.650u      0.050s      1.781w    100 calls
| | | JK: wK1                       :     19.467u      0.050s      1.486w    200 calls
| | | JK: wK2                       :      2.133u      0.000s      0.293w    100 calls
| JK: AO2USO                        :      0.000u      0.000s      0.000w     33 calls
HF: Form F                          :      0.000u      0.000s      0.001w     33 calls
HF: Form D                          :      0.067u      0.000s      0.001w     33 calls
HF: DIIS                            :      0.667u      0.100s      0.056w     32 calls
[...]
JK: (A|mn)                          :      5.783u      0.000s      0.435w      1 calls
JK: (Q|mn)                          :      5.133u      0.017s      0.387w      1 calls
JK: (Q|mn) Write                    :      0.867u      0.133s      0.074w      1 calls
JK: (A|mn)^L                        :      5.600u      0.000s      0.421w      1 calls
JK: (Q|mn)^L                        :      5.167u      0.000s      0.389w      1 calls
JK: (Q|mn)^L Write                  :      0.883u      0.133s      0.075w      1 calls
JK: (Q|mn)^R                        :      7.200u      0.000s      0.541w      1 calls
JK: (Q|mn)^R Write                  :      2.200u      0.350s      0.190w      1 calls
HF: Form core H                     :      0.183u      0.000s      0.015w      1 calls
HF: Form S/X                        :      0.117u      0.000s      0.009w      1 calls
HF: Guess                           :      3.550u      0.050s      0.271w      1 calls
| SAD Guess                         :      3.333u      0.050s      0.253w      1 calls
HF: Form G                          :    185.850u      5.767s     14.371w      9 calls
| RV: Form V                        :     88.367u      0.067s      6.635w      9 calls
| | Properties                      :     26.642p                          31329 calls
| | Functional                      :      5.495p                          31329 calls
| | V_xc                            :     20.769p                          31329 calls
| JK: D                             :      0.000u      0.000s      0.001w      9 calls
| JK: USO2AO                        :      0.000u      0.000s      0.001w      9 calls
| JK: JK                            :     97.450u      5.700s      7.733w      9 calls
| | JK: (Q|mn) Read                 :      4.900u      0.717s      0.414w     18 calls
| | JK: J                           :      2.283u      0.000s      0.171w     18 calls
| | | JK: J1                        :      0.783u      0.000s      0.075w     18 calls
| | | JK: J2                        :      1.067u      0.000s      0.091w     18 calls
| | JK: K                           :     28.717u      0.033s      2.181w     18 calls
| | | JK: K1                        :     25.717u      0.000s      1.935w     18 calls
| | | JK: K2                        :      3.000u      0.033s      0.245w     18 calls
| | JK: (Q|mn)^L Read               :      5.517u      0.783s      0.438w     27 calls
| | JK: (Q|mn)^R Read               :      4.917u      0.733s      0.425w     27 calls
| | JK: wK                          :     25.033u      0.000s      1.931w     27 calls
| | | JK: wK1                       :     22.333u      0.000s      1.681w     54 calls
| | | JK: wK2                       :      2.700u      0.000s      0.249w     27 calls
| JK: AO2USO                        :      0.000u      0.000s      0.000w      9 calls
HF: Form F                          :      0.000u      0.000s      0.001w      9 calls
HF: Form D                          :      0.000u      0.000s      0.001w      9 calls
HF: DIIS                            :      0.283u      0.033s      0.025w      8 calls
| DIISManager::add_entry            :      0.067u      0.000s      0.005w      8 calls
| DIISManager::extrapolate          :      0.067u      0.033s      0.009w      8 calls
| | bMatrix setup                   :      0.033u      0.017s      0.004w      8 calls
| | bMatrix pseudoinverse           :      0.033u      0.000s      0.000w      8 calls
| | New vector                      :      0.000u      0.017s      0.005w      8 calls
HF: Form C                          :      0.750u      0.017s      0.054w      8 calls

**************************************************************************************

Host: daniele-Precision-5750

Timers On : Wed Jun  2 01:02:47 2021
Timers Off: Wed Jun  2 01:03:07 2021

Wall Time:       20.28 seconds

                                                       Time (seconds)
Module                                       User      System        Wall        Calls
V: Grid                             :      5.917u      0.067s      0.466w      1 calls
JK: (A|Q)^-1                        :      4.667u      0.400s      0.373w      1 calls
JK: (A|mn)                          :      5.750u      0.000s      0.432w      1 calls
JK: (Q|mn)                          :      5.150u      0.000s      0.389w      1 calls
JK: (Q|mn) Write                    :      0.867u      0.150s      0.072w      1 calls
JK: (A|mn)^L                        :      5.583u      0.000s      0.419w      1 calls
JK: (Q|mn)^L                        :      5.117u      0.033s      0.389w      1 calls
JK: (Q|mn)^L Write                  :      1.033u      0.150s      0.085w      1 calls
JK: (Q|mn)^R                        :      7.217u      0.000s      0.542w      1 calls
JK: (Q|mn)^R Write                  :      1.717u      0.250s      0.147w      1 calls
HF: Form core H                     :      0.017u      0.000s      0.001w      1 calls
HF: Form S/X                        :      0.100u      0.000s      0.007w      1 calls
HF: Guess                           :      3.317u      0.033s      0.251w      1 calls
SAD Guess                           :      3.133u      0.033s      0.237w      1 calls
HF: Form G                          :    182.000u      5.583s     14.070w      9 calls
RV: Form V                          :     88.000u      0.067s      6.604w      9 calls
Properties                          :     26.286p                          31410 calls
Functional                          :      5.532p                          31410 calls
V_xc                                :     20.857p                          31410 calls
JK: D                               :      0.000u      0.000s      0.001w      9 calls
JK: USO2AO                          :      0.017u      0.000s      0.001w      9 calls
JK: JK                              :     93.950u      5.517s      7.461w      9 calls
JK: (Q|mn) Read                     :      4.917u      0.717s      0.409w     18 calls
JK: J                               :      2.267u      0.033s      0.171w     18 calls
JK: J1                              :      0.783u      0.033s      0.075w     18 calls
JK: J2                              :      1.317u      0.000s      0.091w     18 calls
JK: K                               :     26.683u      0.000s      2.027w     18 calls
JK: K1                              :     23.967u      0.000s      1.801w     18 calls
JK: K2                              :      2.717u      0.000s      0.225w     18 calls
JK: (Q|mn)^L Read                   :      5.400u      0.717s      0.432w     27 calls
JK: (Q|mn)^R Read                   :      4.700u      0.767s      0.412w     27 calls
JK: wK                              :     24.033u      0.017s      1.845w     27 calls
JK: wK1                             :     21.350u      0.017s      1.606w     54 calls
JK: wK2                             :      2.683u      0.000s      0.237w     27 calls
JK: AO2USO                          :      0.000u      0.000s      0.000w      9 calls
HF: Form F                          :      0.033u      0.000s      0.001w      9 calls
HF: Form D                          :      0.000u      0.000s      0.001w      9 calls
HF: DIIS                            :      0.333u      0.017s      0.028w      8 calls
DIISManager::add_entry              :      0.083u      0.017s      0.005w      8 calls
DIISManager::extrapolate            :      0.100u      0.000s      0.010w      8 calls
bMatrix setup                       :      0.067u      0.000s      0.005w      8 calls
bMatrix pseudoinverse               :      0.017u      0.000s      0.000w      8 calls
New vector                          :      0.017u      0.000s      0.005w      8 calls
HF: Form C                          :      0.717u      0.000s      0.053w      8 calls

--------------------------------------------------------------------------------------
V: Grid                             :      5.917u      0.067s      0.466w      1 calls
JK: (A|Q)^-1                        :      4.667u      0.400s      0.373w      1 calls
JK: (A|mn)                          :      5.750u      0.000s      0.432w      1 calls
JK: (Q|mn)                          :      5.150u      0.000s      0.389w      1 calls
JK: (Q|mn) Write                    :      0.867u      0.150s      0.072w      1 calls
JK: (A|mn)^L                        :      5.583u      0.000s      0.419w      1 calls
JK: (Q|mn)^L                        :      5.117u      0.033s      0.389w      1 calls
JK: (Q|mn)^L Write                  :      1.033u      0.150s      0.085w      1 calls
JK: (Q|mn)^R                        :      7.217u      0.000s      0.542w      1 calls
JK: (Q|mn)^R Write                  :      1.717u      0.250s      0.147w      1 calls
HF: Form core H                     :      0.017u      0.000s      0.001w      1 calls
HF: Form S/X                        :      0.100u      0.000s      0.007w      1 calls
HF: Guess                           :      3.317u      0.033s      0.251w      1 calls
| SAD Guess                         :      3.133u      0.033s      0.237w      1 calls
HF: Form G                          :    182.000u      5.583s     14.070w      9 calls
| RV: Form V                        :     88.000u      0.067s      6.604w      9 calls
| | Properties                      :     26.286p                          31410 calls
| | Functional                      :      5.532p                          31410 calls
| | V_xc                            :     20.857p                          31410 calls
| JK: D                             :      0.000u      0.000s      0.001w      9 calls
| JK: USO2AO                        :      0.017u      0.000s      0.001w      9 calls
| JK: JK                            :     93.950u      5.517s      7.461w      9 calls
| | JK: (Q|mn) Read                 :      4.917u      0.717s      0.409w     18 calls
| | JK: J                           :      2.267u      0.033s      0.171w     18 calls
| | | JK: J1                        :      0.783u      0.033s      0.075w     18 calls
| | | JK: J2                        :      1.317u      0.000s      0.091w     18 calls
| | JK: K                           :     26.683u      0.000s      2.027w     18 calls
| | | JK: K1                        :     23.967u      0.000s      1.801w     18 calls
| | | JK: K2                        :      2.717u      0.000s      0.225w     18 calls
| | JK: (Q|mn)^L Read               :      5.400u      0.717s      0.432w     27 calls
| | JK: (Q|mn)^R Read               :      4.700u      0.767s      0.412w     27 calls
| | JK: wK                          :     24.033u      0.017s      1.845w     27 calls
| | | JK: wK1                       :     21.350u      0.017s      1.606w     54 calls
| | | JK: wK2                       :      2.683u      0.000s      0.237w     27 calls
| JK: AO2USO                        :      0.000u      0.000s      0.000w      9 calls
HF: Form F                          :      0.033u      0.000s      0.001w      9 calls
HF: Form D                          :      0.000u      0.000s      0.001w      9 calls
HF: DIIS                            :      0.333u      0.017s      0.028w      8 calls
| DIISManager::add_entry            :      0.083u      0.017s      0.005w      8 calls
| DIISManager::extrapolate          :      0.100u      0.000s      0.010w      8 calls
| | bMatrix setup                   :      0.067u      0.000s      0.005w      8 calls
| | bMatrix pseudoinverse           :      0.017u      0.000s      0.000w      8 calls
| | New vector                      :      0.017u      0.000s      0.005w      8 calls
HF: Form C                          :      0.717u      0.000s      0.053w      8 calls

**************************************************************************************

Host: daniele-Precision-5750

Timers On : Wed Jun  2 01:03:37 2021
Timers Off: Wed Jun  2 01:03:58 2021

Wall Time:       20.44 seconds

                                                       Time (seconds)
Module                                       User      System        Wall        Calls
V: Grid                             :      5.900u      0.100s      0.467w      1 calls
JK: (A|Q)^-1                        :      4.867u      0.433s      0.390w      1 calls
JK: (A|mn)                          :      5.750u      0.000s      0.432w      1 calls
JK: (Q|mn)                          :      5.183u      0.017s      0.391w      1 calls
JK: (Q|mn) Write                    :      0.883u      0.133s      0.074w      1 calls
JK: (A|mn)^L                        :      5.650u      0.000s      0.424w      1 calls
JK: (Q|mn)^L                        :      5.117u      0.000s      0.385w      1 calls
JK: (Q|mn)^L Write                  :      0.833u      0.117s      0.070w      1 calls
JK: (Q|mn)^R                        :      7.317u      0.000s      0.550w      1 calls
JK: (Q|mn)^R Write                  :      2.067u      0.300s      0.177w      1 calls
HF: Form core H                     :      0.067u      0.000s      0.005w      1 calls
HF: Form S/X                        :      0.133u      0.000s      0.010w      1 calls
HF: Guess                           :      3.333u      0.050s      0.253w      1 calls
SAD Guess                           :      3.133u      0.033s      0.236w      1 calls
HF: Form G                          :    184.033u      5.533s     14.223w      9 calls
RV: Form V                          :     89.733u      0.017s      6.736w      9 calls
Properties                          :     26.881p                          31554 calls
Functional                          :      5.596p                          31554 calls
V_xc                                :     21.209p                          31554 calls
JK: D                               :      0.017u      0.000s      0.001w      9 calls
JK: USO2AO                          :      0.000u      0.000s      0.001w      9 calls
JK: JK                              :     94.283u      5.517s      7.483w      9 calls
JK: (Q|mn) Read                     :      4.800u      0.683s      0.402w     18 calls
JK: J                               :      2.283u      0.033s      0.170w     18 calls
JK: J1                              :      0.783u      0.000s      0.076w     18 calls
JK: J2                              :      1.217u      0.000s      0.090w     18 calls
JK: K                               :     26.783u      0.000s      2.036w     18 calls
JK: K1                              :     24.217u      0.000s      1.818w     18 calls
JK: K2                              :      2.533u      0.000s      0.217w     18 calls
JK: (Q|mn)^L Read                   :      5.133u      0.700s      0.413w     27 calls
JK: (Q|mn)^R Read                   :      4.733u      0.717s      0.404w     27 calls
JK: wK                              :     24.517u      0.050s      1.885w     27 calls
JK: wK1                             :     21.767u      0.000s      1.647w     54 calls
JK: wK2                             :      2.717u      0.050s      0.236w     27 calls
JK: AO2USO                          :      0.000u      0.000s      0.000w      9 calls
HF: Form F                          :      0.000u      0.000s      0.001w      9 calls
HF: Form D                          :      0.017u      0.000s      0.001w      9 calls
HF: DIIS                            :      0.317u      0.033s      0.025w      8 calls
DIISManager::add_entry              :      0.067u      0.033s      0.005w      8 calls
DIISManager::extrapolate            :      0.133u      0.000s      0.009w      8 calls
bMatrix setup                       :      0.050u      0.000s      0.004w      8 calls
bMatrix pseudoinverse               :      0.017u      0.000s      0.000w      8 calls
New vector                          :      0.067u      0.000s      0.005w      8 calls
HF: Form C                          :      0.683u      0.000s      0.052w      8 calls

--------------------------------------------------------------------------------------
V: Grid                             :      5.900u      0.100s      0.467w      1 calls
JK: (A|Q)^-1                        :      4.867u      0.433s      0.390w      1 calls
JK: (A|mn)                          :      5.750u      0.000s      0.432w      1 calls
JK: (Q|mn)                          :      5.183u      0.017s      0.391w      1 calls
JK: (Q|mn) Write                    :      0.883u      0.133s      0.074w      1 calls
JK: (A|mn)^L                        :      5.650u      0.000s      0.424w      1 calls
JK: (Q|mn)^L                        :      5.117u      0.000s      0.385w      1 calls
JK: (Q|mn)^L Write                  :      0.833u      0.117s      0.070w      1 calls
JK: (Q|mn)^R                        :      7.317u      0.000s      0.550w      1 calls
JK: (Q|mn)^R Write                  :      2.067u      0.300s      0.177w      1 calls
HF: Form core H                     :      0.067u      0.000s      0.005w      1 calls
HF: Form S/X                        :      0.133u      0.000s      0.010w      1 calls
HF: Guess                           :      3.333u      0.050s      0.253w      1 calls
| SAD Guess                         :      3.133u      0.033s      0.236w      1 calls
HF: Form G                          :    184.033u      5.533s     14.223w      9 calls
| RV: Form V                        :     89.733u      0.017s      6.736w      9 calls
| | Properties                      :     26.881p                          31554 calls
| | Functional                      :      5.596p                          31554 calls
| | V_xc                            :     21.209p                          31554 calls
| JK: D                             :      0.017u      0.000s      0.001w      9 calls
| JK: USO2AO                        :      0.000u      0.000s      0.001w      9 calls
| JK: JK                            :     94.283u      5.517s      7.483w      9 calls
| | JK: (Q|mn) Read                 :      4.800u      0.683s      0.402w     18 calls
| | JK: J                           :      2.283u      0.033s      0.170w     18 calls
| | | JK: J1                        :      0.783u      0.000s      0.076w     18 calls
| | | JK: J2                        :      1.217u      0.000s      0.090w     18 calls
| | JK: K                           :     26.783u      0.000s      2.036w     18 calls
| | | JK: K1                        :     24.217u      0.000s      1.818w     18 calls
| | | JK: K2                        :      2.533u      0.000s      0.217w     18 calls
| | JK: (Q|mn)^L Read               :      5.133u      0.700s      0.413w     27 calls
| | JK: (Q|mn)^R Read               :      4.733u      0.717s      0.404w     27 calls
| | JK: wK                          :     24.517u      0.050s      1.885w     27 calls
| | | JK: wK1                       :     21.767u      0.000s      1.647w     54 calls
| | | JK: wK2                       :      2.717u      0.050s      0.236w     27 calls
| JK: AO2USO                        :      0.000u      0.000s      0.000w      9 calls
HF: Form F                          :      0.000u      0.000s      0.001w      9 calls
HF: Form D                          :      0.017u      0.000s      0.001w      9 calls
HF: DIIS                            :      0.317u      0.033s      0.025w      8 calls
| DIISManager::add_entry            :      0.067u      0.033s      0.005w      8 calls
| DIISManager::extrapolate          :      0.133u      0.000s      0.009w      8 calls
| | bMatrix setup                   :      0.050u      0.000s      0.004w      8 calls
| | bMatrix pseudoinverse           :      0.017u      0.000s      0.000w      8 calls
| | New vector                      :      0.067u      0.000s      0.005w      8 calls
HF: Form C                          :      0.683u      0.000s      0.052w      8 calls

**************************************************************************************
