
    -----------------------------------------------------------------------
          Psi4: An Open-Source Ab Initio Electronic Structure Package
                               Psi4 1.3.2 release

                         Git: Rev {HEAD} ecbda83 


    R. M. Parrish, L. A. Burns, D. G. A. Smith, A. C. Simmonett,
    A. E. DePrince III, E. G. Hohenstein, U. Bozkaya, A. Yu. Sokolov,
    R. Di Remigio, R. M. Richard, J. F. Gonthier, A. M. James,
    H. R. McAlexander, A. Kumar, M. Saitow, X. Wang, B. P. Pritchard,
    P. Verma, H. F. Schaefer III, K. Patkowski, R. A. King, E. F. Valeev,
    F. A. Evangelista, J. M. Turney, T. D. Crawford, and C. D. Sherrill,
    J. Chem. Theory Comput. 13(7) pp 3185--3197 (2017).
    (doi: 10.1021/acs.jctc.7b00174)


                         Additional Contributions by
    P. Kraus, H. Kruse, M. H. Lechner, M. C. Schieber, R. A. Shaw,
    A. Alenaizan, R. Galvelis, Z. L. Glick, S. Lehtola, and J. P. Misiewicz

    -----------------------------------------------------------------------


    Psi4 started on: Sunday, 29 December 2019 02:06PM

    Process ID: 2157
    Host:       bme-nova.bme.utexas.edu
    PSIDATADIR: /home/bdw2292/miniconda3/envs/p4env/share/psi4
    Memory:     500.0 MiB
    Threads:    1
    
  ==> Input File <==

--------------------------------------------------------------------------
molecule { 
0 1
 N    0.904400    0.008800    0.092500
 H    0.592800    0.905700   -0.277200
 H    0.592800   -0.694200   -0.576100
 H    1.921700    0.019500    0.035200
}
memory 700MB
set_num_threads(1)
psi4_io.set_default_path("/scratch/bdw2292")
optimize('mp2/6-31G*')
clean()
--------------------------------------------------------------------------

  Memory set to 667.572 MiB by Python driver.
  Threads set to 1 by Python driver.
gradient() will perform analytic gradient computation.
    SCF Algorithm Type (re)set to DF.

*** tstart() called on bme-nova.bme.utexas.edu
*** at Sun Dec 29 14:06:08 2019

   => Loading Basis Set <=

    Name: 6-31G*
    Role: ORBITAL
    Keyword: BASIS
    atoms 1   entry N          line   128 file /home/bdw2292/miniconda3/envs/p4env/share/psi4/basis/6-31gs.gbs 
    atoms 2-4 entry H          line    44 file /home/bdw2292/miniconda3/envs/p4env/share/psi4/basis/6-31gs.gbs 


         ---------------------------------------------------------
                                   SCF
               by Justin Turney, Rob Parrish, Andy Simmonett
                          and Daniel G. A. Smith
                              RHF Reference
                        1 Threads,    667 MiB Core
         ---------------------------------------------------------

  ==> Geometry <==

    Molecular point group: c1
    Full point group: C1

    Geometry (in Angstrom), charge = 0, multiplicity = 1:

       Center              X                  Y                   Z               Mass       
    ------------   -----------------  -----------------  -----------------  -----------------
         N           -0.023327325041    -0.012110557481     0.064850081996    14.003074004430
         H           -0.334927325041     0.884789442519    -0.304849918004     1.007825032230
         H           -0.334927325041    -0.715110557481    -0.603749918004     1.007825032230
         H            0.993972674959    -0.001410557481     0.007550081996     1.007825032230

  Running in c1 symmetry.

  Rotational constants: A =      9.79560  B =      9.79519  C =      6.31438 [cm^-1]
  Rotational constants: A = 293664.68089  B = 293652.43655  C = 189300.46124 [MHz]
  Nuclear repulsion =   11.881360270727924

  Charge       = 0
  Multiplicity = 1
  Electrons    = 10
  Nalpha       = 5
  Nbeta        = 5

  ==> Algorithm <==

  SCF Algorithm Type is DF.
  DIIS enabled.
  MOM disabled.
  Fractional occupation disabled.
  Guess Type is SAD.
  Energy threshold   = 1.00e-10
  Density threshold  = 1.00e-10
  Integral threshold = 0.00e+00

  ==> Primary Basis <==

  Basis Set: 6-31G*
    Blend: 6-31G*
    Number of shells: 12
    Number of basis function: 21
    Number of Cartesian functions: 21
    Spherical Harmonics?: false
    Max angular momentum: 2

   => Loading Basis Set <=

    Name: (6-31G* AUX)
    Role: JKFIT
    Keyword: DF_BASIS_SCF
    atoms 1   entry N          line   171 file /home/bdw2292/miniconda3/envs/p4env/share/psi4/basis/cc-pvdz-jkfit.gbs 
    atoms 2-4 entry H          line    51 file /home/bdw2292/miniconda3/envs/p4env/share/psi4/basis/cc-pvdz-jkfit.gbs 

  ==> Pre-Iterations <==

   -------------------------------------------------------
    Irrep   Nso     Nmo     Nalpha   Nbeta   Ndocc  Nsocc
   -------------------------------------------------------
     A         21      21       0       0       0       0
   -------------------------------------------------------
    Total      21      21       5       5       5       0
   -------------------------------------------------------

  ==> Integral Setup <==

  DFHelper Memory: AOs need 0.001 GiB; user supplied 0.489 GiB. Using in-core AOs.

  ==> MemDFJK: Density-Fitted J/K Matrices <==

    J tasked:                   Yes
    K tasked:                   Yes
    wK tasked:                   No
    OpenMP threads:               1
    Memory [MiB]:               500
    Algorithm:                 Core
    Schwarz Cutoff:           1E-12
    Mask sparsity (%):       0.0000
    Fitting Condition:        1E-10

   => Auxiliary Basis Set <=

  Basis Set: (6-31G* AUX)
    Blend: CC-PVDZ-JKFIT
    Number of shells: 51
    Number of basis function: 156
    Number of Cartesian functions: 156
    Spherical Harmonics?: false
    Max angular momentum: 3

  Minimum eigenvalue in the overlap matrix is 2.2401238137E-02.
  Using Symmetric Orthogonalization.

  SCF Guess: Superposition of Atomic Densities via on-the-fly atomic UHF.

  ==> Iterations <==

                           Total Energy        Delta E     RMS |[F,P]|

   @DF-RHF iter SAD:   -55.69257113582185   -5.56926e+01   0.00000e+00 
   @DF-RHF iter   1:   -56.11250101053763   -4.19930e-01   1.80951e-02 DIIS
   @DF-RHF iter   2:   -56.16772736323091   -5.52264e-02   9.44966e-03 DIIS
   @DF-RHF iter   3:   -56.18322437187830   -1.54970e-02   1.02391e-03 DIIS
   @DF-RHF iter   4:   -56.18363678012104   -4.12408e-04   1.83993e-04 DIIS
   @DF-RHF iter   5:   -56.18364888172136   -1.21016e-05   3.61026e-05 DIIS
   @DF-RHF iter   6:   -56.18364970944062   -8.27719e-07   7.10119e-06 DIIS
   @DF-RHF iter   7:   -56.18364975776808   -4.83275e-08   1.52301e-06 DIIS
   @DF-RHF iter   8:   -56.18364975976924   -2.00116e-09   2.85546e-07 DIIS
   @DF-RHF iter   9:   -56.18364975982111   -5.18696e-11   2.76656e-08 DIIS
   @DF-RHF iter  10:   -56.18364975982127   -1.63425e-13   2.39928e-09 DIIS
   @DF-RHF iter  11:   -56.18364975982126    7.10543e-15   1.59900e-10 DIIS
   @DF-RHF iter  12:   -56.18364975982125    1.42109e-14   8.06920e-12 DIIS
  Energy and wave function converged.


  ==> Post-Iterations <==

    Orbital Energies [Eh]
    ---------------------

    Doubly Occupied:                                                      

       1A    -15.541430     2A     -1.134282     3A     -0.619473  
       4A     -0.619451     5A     -0.423095  

    Virtual:                                                              

       6A      0.218886     7A      0.320260     8A      0.320270  
       9A      0.896575    10A      0.896584    11A      0.970149  
      12A      1.204826    13A      1.216219    14A      1.216252  
      15A      1.376872    16A      1.966796    17A      1.966800  
      18A      2.253187    19A      2.747942    20A      2.747999  
      21A      4.082731  

    Final Occupation by Irrep:
              A 
    DOCC [     5 ]

  @DF-RHF Final Energy:   -56.18364975982125

   => Energetics <=

    Nuclear Repulsion Energy =             11.8813602707279244
    One-Electron Energy =                 -99.4545577326719155
    Two-Electron Energy =                  31.3895477021227407
    Total Energy =                        -56.1836497598212503

Computation Completed


Properties will be evaluated at   0.000000,   0.000000,   0.000000 [a0]

Properties computed using the SCF density matrix

  Nuclear Dipole Moment: [e a0]
     X:     0.3039      Y:     0.1578      Z:    -0.8449

  Electronic Dipole Moment: [e a0]
     X:    -0.0431      Y:    -0.0223      Z:     0.1199

  Dipole Moment: [e a0]
     X:     0.2608      Y:     0.1354      Z:    -0.7250     Total:     0.7823

  Dipole Moment: [D]
     X:     0.6628      Y:     0.3442      Z:    -1.8428     Total:     1.9884


*** tstop() called on bme-nova.bme.utexas.edu at Sun Dec 29 14:06:08 2019
Module time:
	user time   =       0.65 seconds =       0.01 minutes
	system time =       0.01 seconds =       0.00 minutes
	total time  =          0 seconds =       0.00 minutes
Total time:
	user time   =       0.65 seconds =       0.01 minutes
	system time =       0.01 seconds =       0.00 minutes
	total time  =          0 seconds =       0.00 minutes

*** tstart() called on bme-nova.bme.utexas.edu
*** at Sun Dec 29 14:06:08 2019


  //>>>>>>>>>>>>>>>>>>>>>>>>>>>>>>>>>>>//
  //               DFMP2               //
  //<<<<<<<<<<<<<<<<<<<<<<<<<<<<<<<<<<<//

   => Loading Basis Set <=

    Name: (6-31G* AUX)
    Role: RIFIT
    Keyword: DF_BASIS_MP2
    atoms 1   entry N          line   197 file /home/bdw2292/miniconda3/envs/p4env/share/psi4/basis/cc-pvdz-ri.gbs 
    atoms 2-4 entry H          line    19 file /home/bdw2292/miniconda3/envs/p4env/share/psi4/basis/cc-pvdz-ri.gbs 

	 --------------------------------------------------------
	                          DF-MP2                         
	      2nd-Order Density-Fitted Moller-Plesset Theory     
	              RMP2 Wavefunction,   1 Threads             
	                                                         
	        Rob Parrish, Justin Turney, Andy Simmonett,      
	           Ed Hohenstein, and C. David Sherrill          
	 --------------------------------------------------------

   => Auxiliary Basis Set <=

  Basis Set: (6-31G* AUX)
    Blend: CC-PVDZ-RI
    Number of shells: 36
    Number of basis function: 98
    Number of Cartesian functions: 111
    Spherical Harmonics?: true
    Max angular momentum: 3

	 --------------------------------------------------------
	                 NBF =    21, NAUX =    98
	 --------------------------------------------------------
	   CLASS    FOCC     OCC    AOCC    AVIR     VIR    FVIR
	   PAIRS       0       5       5      16      16       0
	 --------------------------------------------------------

  DFHelper Memory: AOs need 0.001 GiB; user supplied 0.489 GiB. Using in-core AOs.


         ------------------------------------------------------------
                                     CPHF                           
                                  Rob Parrish                       
         ------------------------------------------------------------

  ==> Geometry <==

    Molecular point group: c1
    Full point group: C1

    Geometry (in Angstrom), charge = 0, multiplicity = 1:

       Center              X                  Y                   Z               Mass       
    ------------   -----------------  -----------------  -----------------  -----------------
         N           -0.023327325041    -0.012110557481     0.064850081996    14.003074004430
         H           -0.334927325041     0.884789442519    -0.304849918004     1.007825032230
         H           -0.334927325041    -0.715110557481    -0.603749918004     1.007825032230
         H            0.993972674959    -0.001410557481     0.007550081996     1.007825032230

  Nuclear repulsion =   11.881360270727924
  Reference energy  =  -56.183649759821250

  ==> Basis Set <==

  Basis Set: 6-31G*
    Blend: 6-31G*
    Number of shells: 12
    Number of basis function: 21
    Number of Cartesian functions: 21
    Spherical Harmonics?: false
    Max angular momentum: 2

  ==> CGRSolver (by Rob Parrish) <==

   Number of roots    =         1
   Preconditioning    =    JACOBI
   Convergence cutoff =     1E-06
   Maximum iterations =       100

  ==> CPHFRHamiltonian (by Rob Parrish) <== 

  ==> MemDFJK: Density-Fitted J/K Matrices <==

    J tasked:                   Yes
    K tasked:                   Yes
    wK tasked:                   No
    OpenMP threads:               1
    Memory [MiB]:               500
    Algorithm:                 Core
    Schwarz Cutoff:           1E-12
    Mask sparsity (%):       0.0000
    Fitting Condition:        1E-10

   => Auxiliary Basis Set <=

  Basis Set: (6-31G* AUX)
    Blend: CC-PVDZ-JKFIT
    Number of shells: 51
    Number of basis function: 156
    Number of Cartesian functions: 156
    Spherical Harmonics?: false
    Max angular momentum: 3

  ==> CPHF Iterations <==

  => Iterations <=

             Iter  Converged  Remaining    Residual
  CGR           1          0          1   8.108E-02
  CGR           2          0          1   1.293E-02
  CGR           3          0          1   2.427E-03
  CGR           4          0          1   5.492E-04
  CGR           5          0          1   7.431E-05
  CGR           6          0          1   6.491E-06
  CGR           7          1          0   7.324E-07

    CGRSolver converged.

  ==> DFCorrGrad: Density-Fitted Correlated Gradients <==

    OpenMP threads:              1
    Integrals threads:           1
    Memory [GiB]:            0.489
    Schwarz Cutoff:          0E+00
    Fitting Condition:       1E-10

   => Auxiliary Basis Set <=

  Basis Set: (6-31G* AUX)
    Blend: CC-PVDZ-JKFIT
    Number of shells: 51
    Number of basis function: 156
    Number of Cartesian functions: 156
    Spherical Harmonics?: false
    Max angular momentum: 3

	-----------------------------------------------------------
	 ==================> DF-MP2 Energies <==================== 
	-----------------------------------------------------------
	 Reference Energy          =     -56.1836497598212503 [Eh]
	 Singles Energy            =      -0.0000000000000000 [Eh]
	 Same-Spin Energy          =      -0.0403845963255647 [Eh]
	 Opposite-Spin Energy      =      -0.1332661936354705 [Eh]
	 Correlation Energy        =      -0.1736507899610352 [Eh]
	 Total Energy              =     -56.3573005497822876 [Eh]
	-----------------------------------------------------------
	 ================> DF-SCS-MP2 Energies <================== 
	-----------------------------------------------------------
	 SCS Same-Spin Scale       =       0.3333333333333333 [-]
	 SCS Opposite-Spin Scale   =       1.2000000000000000 [-]
	 SCS Same-Spin Energy      =      -0.0134615321085216 [Eh]
	 SCS Opposite-Spin Energy  =      -0.1599194323625646 [Eh]
	 SCS Correlation Energy    =      -0.1733809644710862 [Eh]
	 SCS Total Energy          =     -56.3570307242923363 [Eh]
	-----------------------------------------------------------


  -Total Gradient:
     Atom            X                  Y                   Z
    ------   -----------------  -----------------  -----------------
       1       -0.000907651104    -0.000419313868     0.002485077503
       2       -0.000279697326     0.001229327055    -0.000820356580
       3       -0.000295364715    -0.000887749752    -0.001244505198
       4        0.001482713145     0.000077736565    -0.000420215724


*** tstop() called on bme-nova.bme.utexas.edu at Sun Dec 29 14:06:09 2019
Module time:
	user time   =       0.60 seconds =       0.01 minutes
	system time =       0.00 seconds =       0.00 minutes
	total time  =          1 seconds =       0.02 minutes
Total time:
	user time   =       1.25 seconds =       0.02 minutes
	system time =       0.01 seconds =       0.00 minutes
	total time  =          1 seconds =       0.02 minutes

			-----------------------------------------
			 OPTKING 2.0: for geometry optimizations 
			  - R.A. King,  Bethel University        
			-----------------------------------------

	Internal coordinates to be generated automatically.
	Detected frag 1 with atoms:  1 2 3 4
	---Fragment 1 Bond Connectivity---
	 1 : 2 3 4
	 2 : 1
	 3 : 1
	 4 : 1

	---Fragment 1 Geometry and Gradient---
	 N          -0.0440822556       -0.0228856369        0.1225488942
	 H          -0.6329209163        1.6720097251       -0.5760828544
	 H          -0.6329209163       -1.3513631031       -1.1409219933
	 H           1.8783361319       -0.0026655673        0.0142675872
	            -0.0009076511       -0.0004193139        0.0024850775
	            -0.0002796973        0.0012293271       -0.0008203566
	            -0.0002953647       -0.0008877498       -0.0012445052
	             0.0014827131        0.0000777366       -0.0004202157

	Previous optimization step data not found.  Starting new optimization.

	---Fragment 1 Intrafragment Coordinates---
	 - Coordinate -           - BOHR/RAD -       - ANG/DEG -
	 R(1,2)           =         1.925484	       1.018922
	 R(1,3)           =         1.925602	       1.018985
	 R(1,4)           =         1.925572	       1.018969
	 B(2,1,3)         =         1.850109	     106.003436
	 B(2,1,4)         =         1.850079	     106.001702
	 B(3,1,4)         =         1.850053	     106.000234

	Current energy   :       -56.3573005498

	Generating empirical Hessian (Schlegel '84) for each fragment.
	Taking RFO optimization step.
	Going to follow RFO solution 1.
	Using RFO vector 1.
	Norm of target step-size    0.00864
	Projected energy change by RFO approximation:        -0.0000227290

	Back-transformation to cartesian coordinates...
	Successfully converged to displaced geometry.

	--- Internal Coordinate Step in ANG or DEG, aJ/ANG or AJ/DEG ---
	 ---------------------------------------------------------------------------
	   Coordinate                Previous        Force       Change         New 
	   ----------                --------       ------       ------       ------
	    1 R(1,2)          =      1.018922    -0.012072    -0.001742     1.017180
	    2 R(1,3)          =      1.018985    -0.012518    -0.001807     1.017178
	    3 R(1,4)          =      1.018969    -0.012397    -0.001789     1.017179
	    4 B(2,1,3)        =    106.003436     0.000044     0.208415   106.211851
	    5 B(2,1,4)        =    106.001702     0.000045     0.210535   106.212237
	    6 B(3,1,4)        =    106.000234     0.000045     0.211160   106.211393
	 ---------------------------------------------------------------------------
	Successfully symmetrized geometry.

  ==> Convergence Check <==

  Measures of convergence in internal coordinates in au.
  Criteria marked as inactive (o), active & met (*), and active & unmet ( ).
  --------------------------------------------------------------------------------------------- ~
   Step     Total Energy     Delta E     MAX Force     RMS Force      MAX Disp      RMS Disp    ~
  --------------------------------------------------------------------------------------------- ~
    Convergence Criteria    1.00e-06 *    3.00e-04 *             o    1.20e-03 *             o  ~
  --------------------------------------------------------------------------------------------- ~
      1     -56.35730055   -5.64e+01      1.52e-03      1.14e-03 o    3.69e-03      3.52e-03 o  ~
  ---------------------------------------------------------------------------------------------

	Writing optimization data to binary file.
	Structure for next step:
	Cartesian Geometry (in Angstrom)
	    N    -0.0223697528  -0.0116366371   0.0622174402
	    H    -0.3350958932   0.8843302687  -0.3039806847
	    H    -0.3350742553  -0.7149729676  -0.6027523127
	    H     0.9933306000  -0.0015628946   0.0083158886
			--------------------------
			 OPTKING Finished Execution 
			--------------------------

    Structure for next step:
    Molecular point group: c1
    Full point group: C1

    Geometry (in Angstrom), charge = 0, multiplicity = 1:

    N           -0.023100604949    -0.011998349479     0.064226763186
    H           -0.335826746608     0.883968559892    -0.301971363168
    H           -0.335805108676    -0.715334682698    -0.600742992331
    H            0.992599751795    -0.001924606916     0.010325211353

gradient() will perform analytic gradient computation.
    SCF Algorithm Type (re)set to DF.

*** tstart() called on bme-nova.bme.utexas.edu
*** at Sun Dec 29 14:06:09 2019

   => Loading Basis Set <=

    Name: 6-31G*
    Role: ORBITAL
    Keyword: BASIS
    atoms 1   entry N          line   128 file /home/bdw2292/miniconda3/envs/p4env/share/psi4/basis/6-31gs.gbs 
    atoms 2-4 entry H          line    44 file /home/bdw2292/miniconda3/envs/p4env/share/psi4/basis/6-31gs.gbs 


         ---------------------------------------------------------
                                   SCF
               by Justin Turney, Rob Parrish, Andy Simmonett
                          and Daniel G. A. Smith
                              RHF Reference
                        1 Threads,    667 MiB Core
         ---------------------------------------------------------

  ==> Geometry <==

    Molecular point group: c1
    Full point group: C1

    Geometry (in Angstrom), charge = 0, multiplicity = 1:

       Center              X                  Y                   Z               Mass       
    ------------   -----------------  -----------------  -----------------  -----------------
         N           -0.023100604949    -0.011998349479     0.064226763186    14.003074004430
         H           -0.335826746608     0.883968559892    -0.301971363168     1.007825032230
         H           -0.335805108676    -0.715334682698    -0.600742992331     1.007825032230
         H            0.992599751795    -0.001924606916     0.010325211353     1.007825032230

  Running in c1 symmetry.

  Rotational constants: A =      9.84334  B =      9.84323  C =      6.31905 [cm^-1]
  Rotational constants: A = 295096.05560  B = 295092.54087  C = 189440.27873 [MHz]
  Nuclear repulsion =   11.900797282901415

  Charge       = 0
  Multiplicity = 1
  Electrons    = 10
  Nalpha       = 5
  Nbeta        = 5

  ==> Algorithm <==

  SCF Algorithm Type is DF.
  DIIS enabled.
  MOM disabled.
  Fractional occupation disabled.
  Guess Type is READ.
  Energy threshold   = 1.00e-10
  Density threshold  = 1.00e-10
  Integral threshold = 0.00e+00

  ==> Primary Basis <==

  Basis Set: 6-31G*
    Blend: 6-31G*
    Number of shells: 12
    Number of basis function: 21
    Number of Cartesian functions: 21
    Spherical Harmonics?: false
    Max angular momentum: 2

   => Loading Basis Set <=

    Name: (6-31G* AUX)
    Role: JKFIT
    Keyword: DF_BASIS_SCF
    atoms 1   entry N          line   171 file /home/bdw2292/miniconda3/envs/p4env/share/psi4/basis/cc-pvdz-jkfit.gbs 
    atoms 2-4 entry H          line    51 file /home/bdw2292/miniconda3/envs/p4env/share/psi4/basis/cc-pvdz-jkfit.gbs 

   => Loading Basis Set <=

    Name: 6-31G*
    Role: ORBITAL
    Keyword: BASIS
    atoms 1   entry N          line   128 file /home/bdw2292/miniconda3/envs/p4env/share/psi4/basis/6-31gs.gbs 
    atoms 2-4 entry H          line    44 file /home/bdw2292/miniconda3/envs/p4env/share/psi4/basis/6-31gs.gbs 

  Reading orbitals from file 180, no projection.

  ==> Pre-Iterations <==

   -------------------------------------------------------
    Irrep   Nso     Nmo     Nalpha   Nbeta   Ndocc  Nsocc
   -------------------------------------------------------
     A         21      21       0       0       0       0
   -------------------------------------------------------
    Total      21      21       5       5       5       0
   -------------------------------------------------------

  ==> Integral Setup <==

  DFHelper Memory: AOs need 0.001 GiB; user supplied 0.489 GiB. Using in-core AOs.

  ==> MemDFJK: Density-Fitted J/K Matrices <==

    J tasked:                   Yes
    K tasked:                   Yes
    wK tasked:                   No
    OpenMP threads:               1
    Memory [MiB]:               500
    Algorithm:                 Core
    Schwarz Cutoff:           1E-12
    Mask sparsity (%):       0.0000
    Fitting Condition:        1E-10

   => Auxiliary Basis Set <=

  Basis Set: (6-31G* AUX)
    Blend: CC-PVDZ-JKFIT
    Number of shells: 51
    Number of basis function: 156
    Number of Cartesian functions: 156
    Spherical Harmonics?: false
    Max angular momentum: 3

  Minimum eigenvalue in the overlap matrix is 2.2352666662E-02.
  Using Symmetric Orthogonalization.

  SCF Guess: Orbitals guess was supplied from a previous computation.

  ==> Iterations <==

                           Total Energy        Delta E     RMS |[F,P]|

   @DF-RHF iter   0:   -56.18638510098822   -5.61864e+01   1.94151e-04 
   @DF-RHF iter   1:   -56.18379383701217    2.59126e-03   3.43263e-05 DIIS
   @DF-RHF iter   2:   -56.18379434909217   -5.12080e-07   1.22001e-05 DIIS
   @DF-RHF iter   3:   -56.18379443770223   -8.86101e-08   3.46828e-06 DIIS
   @DF-RHF iter   4:   -56.18379444632358   -8.62135e-09   1.57016e-06 DIIS
   @DF-RHF iter   5:   -56.18379444791226   -1.58868e-09   3.72632e-07 DIIS
   @DF-RHF iter   6:   -56.18379444802480   -1.12536e-10   6.28751e-08 DIIS
   @DF-RHF iter   7:   -56.18379444802687   -2.06768e-12   8.53637e-09 DIIS
   @DF-RHF iter   8:   -56.18379444802692   -4.97380e-14   6.23846e-10 DIIS
   @DF-RHF iter   9:   -56.18379444802694   -2.84217e-14   4.98568e-11 DIIS
  Energy and wave function converged.


  ==> Post-Iterations <==

    Orbital Energies [Eh]
    ---------------------

    Doubly Occupied:                                                      

       1A    -15.540575     2A     -1.134738     3A     -0.620432  
       4A     -0.620430     5A     -0.422468  

    Virtual:                                                              

       6A      0.219370     7A      0.320815     8A      0.320815  
       9A      0.896824    10A      0.896828    11A      0.970146  
      12A      1.205779    13A      1.218053    14A      1.218053  
      15A      1.374267    16A      1.966600    17A      1.966601  
      18A      2.257713    19A      2.750299    20A      2.750302  
      21A      4.084377  

    Final Occupation by Irrep:
              A 
    DOCC [     5 ]

  @DF-RHF Final Energy:   -56.18379444802694

   => Energetics <=

    Nuclear Repulsion Energy =             11.9007972829014150
    One-Electron Energy =                 -99.4918974054741057
    Two-Electron Energy =                  31.4073056745457535
    Total Energy =                        -56.1837944480269442

Computation Completed


Properties will be evaluated at   0.000000,   0.000000,   0.000000 [a0]

Properties computed using the SCF density matrix

  Nuclear Dipole Moment: [e a0]
     X:     0.3010      Y:     0.1563      Z:    -0.8368

  Electronic Dipole Moment: [e a0]
     X:    -0.0417      Y:    -0.0217      Z:     0.1160

  Dipole Moment: [e a0]
     X:     0.2592      Y:     0.1347      Z:    -0.7208     Total:     0.7777

  Dipole Moment: [D]
     X:     0.6589      Y:     0.3423      Z:    -1.8321     Total:     1.9768


*** tstop() called on bme-nova.bme.utexas.edu at Sun Dec 29 14:06:09 2019
Module time:
	user time   =       0.32 seconds =       0.01 minutes
	system time =       0.01 seconds =       0.00 minutes
	total time  =          0 seconds =       0.00 minutes
Total time:
	user time   =       1.58 seconds =       0.03 minutes
	system time =       0.02 seconds =       0.00 minutes
	total time  =          1 seconds =       0.02 minutes

*** tstart() called on bme-nova.bme.utexas.edu
*** at Sun Dec 29 14:06:09 2019


  //>>>>>>>>>>>>>>>>>>>>>>>>>>>>>>>>>>>//
  //               DFMP2               //
  //<<<<<<<<<<<<<<<<<<<<<<<<<<<<<<<<<<<//

   => Loading Basis Set <=

    Name: (6-31G* AUX)
    Role: RIFIT
    Keyword: DF_BASIS_MP2
    atoms 1   entry N          line   197 file /home/bdw2292/miniconda3/envs/p4env/share/psi4/basis/cc-pvdz-ri.gbs 
    atoms 2-4 entry H          line    19 file /home/bdw2292/miniconda3/envs/p4env/share/psi4/basis/cc-pvdz-ri.gbs 

	 --------------------------------------------------------
	                          DF-MP2                         
	      2nd-Order Density-Fitted Moller-Plesset Theory     
	              RMP2 Wavefunction,   1 Threads             
	                                                         
	        Rob Parrish, Justin Turney, Andy Simmonett,      
	           Ed Hohenstein, and C. David Sherrill          
	 --------------------------------------------------------

   => Auxiliary Basis Set <=

  Basis Set: (6-31G* AUX)
    Blend: CC-PVDZ-RI
    Number of shells: 36
    Number of basis function: 98
    Number of Cartesian functions: 111
    Spherical Harmonics?: true
    Max angular momentum: 3

	 --------------------------------------------------------
	                 NBF =    21, NAUX =    98
	 --------------------------------------------------------
	   CLASS    FOCC     OCC    AOCC    AVIR     VIR    FVIR
	   PAIRS       0       5       5      16      16       0
	 --------------------------------------------------------

  DFHelper Memory: AOs need 0.001 GiB; user supplied 0.489 GiB. Using in-core AOs.


         ------------------------------------------------------------
                                     CPHF                           
                                  Rob Parrish                       
         ------------------------------------------------------------

  ==> Geometry <==

    Molecular point group: c1
    Full point group: C1

    Geometry (in Angstrom), charge = 0, multiplicity = 1:

       Center              X                  Y                   Z               Mass       
    ------------   -----------------  -----------------  -----------------  -----------------
         N           -0.023100604949    -0.011998349479     0.064226763186    14.003074004430
         H           -0.335826746608     0.883968559892    -0.301971363168     1.007825032230
         H           -0.335805108676    -0.715334682698    -0.600742992331     1.007825032230
         H            0.992599751795    -0.001924606916     0.010325211353     1.007825032230

  Nuclear repulsion =   11.900797282901415
  Reference energy  =  -56.183794448026944

  ==> Basis Set <==

  Basis Set: 6-31G*
    Blend: 6-31G*
    Number of shells: 12
    Number of basis function: 21
    Number of Cartesian functions: 21
    Spherical Harmonics?: false
    Max angular momentum: 2

  ==> CGRSolver (by Rob Parrish) <==

   Number of roots    =         1
   Preconditioning    =    JACOBI
   Convergence cutoff =     1E-06
   Maximum iterations =       100

  ==> CPHFRHamiltonian (by Rob Parrish) <== 

  ==> MemDFJK: Density-Fitted J/K Matrices <==

    J tasked:                   Yes
    K tasked:                   Yes
    wK tasked:                   No
    OpenMP threads:               1
    Memory [MiB]:               500
    Algorithm:                 Core
    Schwarz Cutoff:           1E-12
    Mask sparsity (%):       0.0000
    Fitting Condition:        1E-10

   => Auxiliary Basis Set <=

  Basis Set: (6-31G* AUX)
    Blend: CC-PVDZ-JKFIT
    Number of shells: 51
    Number of basis function: 156
    Number of Cartesian functions: 156
    Spherical Harmonics?: false
    Max angular momentum: 3

  ==> CPHF Iterations <==

  => Iterations <=

             Iter  Converged  Remaining    Residual
  CGR           1          0          1   8.083E-02
  CGR           2          0          1   1.274E-02
  CGR           3          0          1   2.402E-03
  CGR           4          0          1   5.470E-04
  CGR           5          0          1   7.460E-05
  CGR           6          0          1   6.489E-06
  CGR           7          1          0   7.320E-07

    CGRSolver converged.

  ==> DFCorrGrad: Density-Fitted Correlated Gradients <==

    OpenMP threads:              1
    Integrals threads:           1
    Memory [GiB]:            0.489
    Schwarz Cutoff:          0E+00
    Fitting Condition:       1E-10

   => Auxiliary Basis Set <=

  Basis Set: (6-31G* AUX)
    Blend: CC-PVDZ-JKFIT
    Number of shells: 51
    Number of basis function: 156
    Number of Cartesian functions: 156
    Spherical Harmonics?: false
    Max angular momentum: 3

	-----------------------------------------------------------
	 ==================> DF-MP2 Energies <==================== 
	-----------------------------------------------------------
	 Reference Energy          =     -56.1837944480269442 [Eh]
	 Singles Energy            =      -0.0000000000000000 [Eh]
	 Same-Spin Energy          =      -0.0403736791783520 [Eh]
	 Opposite-Spin Energy      =      -0.1331458033730745 [Eh]
	 Correlation Energy        =      -0.1735194825514265 [Eh]
	 Total Energy              =     -56.3573139305783712 [Eh]
	-----------------------------------------------------------
	 ================> DF-SCS-MP2 Energies <================== 
	-----------------------------------------------------------
	 SCS Same-Spin Scale       =       0.3333333333333333 [-]
	 SCS Opposite-Spin Scale   =       1.2000000000000000 [-]
	 SCS Same-Spin Energy      =      -0.0134578930594507 [Eh]
	 SCS Opposite-Spin Energy  =      -0.1597749640476894 [Eh]
	 SCS Correlation Energy    =      -0.1732328571071401 [Eh]
	 SCS Total Energy          =     -56.3570273051340820 [Eh]
	-----------------------------------------------------------


  -Total Gradient:
     Atom            X                  Y                   Z
    ------   -----------------  -----------------  -----------------
       1       -0.000228578901    -0.000118878590     0.000634222285
       2        0.000015834632     0.000151163745    -0.000212318543
       3        0.000017844928    -0.000062981238    -0.000251399184
       4        0.000194899341     0.000030696084    -0.000170504557


*** tstop() called on bme-nova.bme.utexas.edu at Sun Dec 29 14:06:10 2019
Module time:
	user time   =       0.62 seconds =       0.01 minutes
	system time =       0.00 seconds =       0.00 minutes
	total time  =          1 seconds =       0.02 minutes
Total time:
	user time   =       2.20 seconds =       0.04 minutes
	system time =       0.02 seconds =       0.00 minutes
	total time  =          2 seconds =       0.03 minutes

			-----------------------------------------
			 OPTKING 2.0: for geometry optimizations 
			  - R.A. King,  Bethel University        
			-----------------------------------------

	Previous internal coordinate definitions found.
	---Fragment 1 Geometry and Gradient---
	 N          -0.0436538167       -0.0226735945        0.1213709923
	 H          -0.6346205767        1.6704584817       -0.5706431741
	 H          -0.6345796869       -1.3517866383       -1.1352397273
	 H           1.8757416831       -0.0036369800        0.0195118216
	            -0.0002285789       -0.0001188786        0.0006342223
	             0.0000158346        0.0001511637       -0.0002123185
	             0.0000178449       -0.0000629812       -0.0002513992
	             0.0001948993        0.0000306961       -0.0001705046

	---Fragment 1 Intrafragment Coordinates---
	 - Coordinate -           - BOHR/RAD -       - ANG/DEG -
	 R(1,2)           =         1.922192	       1.017180
	 R(1,3)           =         1.922188	       1.017178
	 R(1,4)           =         1.922191	       1.017179
	 B(2,1,3)         =         1.853747	     106.211851
	 B(2,1,4)         =         1.853753	     106.212237
	 B(3,1,4)         =         1.853739	     106.211393

	Current energy   :       -56.3573139306

	Energy change for the previous step:
		Projected    :        -0.0000227290
		Actual       :        -0.0000133808

	Performing BFGS update.
	Previous computed or guess Hessian on step 1.
	Steps to be used in Hessian update: 1
	Taking RFO optimization step.
	Going to follow RFO solution 1.
	Using RFO vector 1.
	Norm of target step-size    0.00446
	Projected energy change by RFO approximation:        -0.0000031428

	Back-transformation to cartesian coordinates...
	Successfully converged to displaced geometry.

	--- Internal Coordinate Step in ANG or DEG, aJ/ANG or AJ/DEG ---
	 ---------------------------------------------------------------------------
	   Coordinate                Previous        Force       Change         New 
	   ----------                --------       ------       ------       ------
	    1 R(1,2)          =      1.017180    -0.001687    -0.000394     1.016787
	    2 R(1,3)          =      1.017178    -0.001668    -0.000393     1.016785
	    3 R(1,4)          =      1.017179    -0.001680    -0.000394     1.016785
	    4 B(2,1,3)        =    106.211851     0.000021     0.140850   106.352701
	    5 B(2,1,4)        =    106.212237     0.000021     0.140364   106.352601
	    6 B(3,1,4)        =    106.211393     0.000022     0.141632   106.353025
	 ---------------------------------------------------------------------------
	Successfully symmetrized geometry.

  ==> Convergence Check <==

  Measures of convergence in internal coordinates in au.
  Criteria marked as inactive (o), active & met (*), and active & unmet ( ).
  ---------------------------------------------------------------------------------------------
   Step     Total Energy     Delta E     MAX Force     RMS Force      MAX Disp      RMS Disp   
  ---------------------------------------------------------------------------------------------
    Convergence Criteria    1.00e-06 *    3.00e-04 *             o    1.20e-03 *             o
  ---------------------------------------------------------------------------------------------
      2     -56.35731393   -1.34e-05      2.83e-04 *    2.46e-04 o    2.47e-03      1.82e-03 o  ~
  ---------------------------------------------------------------------------------------------

	Writing optimization data to binary file.
	Structure for next step:
	Cartesian Geometry (in Angstrom)
	    N    -0.0225392249  -0.0117100510   0.0626677086
	    H    -0.3362468715   0.8843132401  -0.3014540012
	    H    -0.3362333819  -0.7158453713  -0.6003868576
	    H     0.9928867687  -0.0020468976   0.0110107724
			--------------------------
			 OPTKING Finished Execution 
			--------------------------

    Structure for next step:
    Molecular point group: c1
    Full point group: C1

    Geometry (in Angstrom), charge = 0, multiplicity = 1:

    N           -0.022967689517    -0.011930090337     0.063857632847
    H           -0.336675337392     0.884093204260    -0.300264078375
    H           -0.336661847712    -0.716065413442    -0.599196935949
    H            0.992458308051    -0.002266936967     0.012200696405

gradient() will perform analytic gradient computation.
    SCF Algorithm Type (re)set to DF.

*** tstart() called on bme-nova.bme.utexas.edu
*** at Sun Dec 29 14:06:10 2019

   => Loading Basis Set <=

    Name: 6-31G*
    Role: ORBITAL
    Keyword: BASIS
    atoms 1   entry N          line   128 file /home/bdw2292/miniconda3/envs/p4env/share/psi4/basis/6-31gs.gbs 
    atoms 2-4 entry H          line    44 file /home/bdw2292/miniconda3/envs/p4env/share/psi4/basis/6-31gs.gbs 


         ---------------------------------------------------------
                                   SCF
               by Justin Turney, Rob Parrish, Andy Simmonett
                          and Daniel G. A. Smith
                              RHF Reference
                        1 Threads,    667 MiB Core
         ---------------------------------------------------------

  ==> Geometry <==

    Molecular point group: c1
    Full point group: C1

    Geometry (in Angstrom), charge = 0, multiplicity = 1:

       Center              X                  Y                   Z               Mass       
    ------------   -----------------  -----------------  -----------------  -----------------
         N           -0.022967689517    -0.011930090337     0.063857632847    14.003074004430
         H           -0.336675337392     0.884093204260    -0.300264078375     1.007825032230
         H           -0.336661847712    -0.716065413442    -0.599196935949     1.007825032230
         H            0.992458308051    -0.002266936967     0.012200696405     1.007825032230

  Running in c1 symmetry.

  Rotational constants: A =      9.86007  B =      9.86003  C =      6.31229 [cm^-1]
  Rotational constants: A = 295597.43338  B = 295596.31366  C = 189237.65026 [MHz]
  Nuclear repulsion =   11.904504568552150

  Charge       = 0
  Multiplicity = 1
  Electrons    = 10
  Nalpha       = 5
  Nbeta        = 5

  ==> Algorithm <==

  SCF Algorithm Type is DF.
  DIIS enabled.
  MOM disabled.
  Fractional occupation disabled.
  Guess Type is READ.
  Energy threshold   = 1.00e-10
  Density threshold  = 1.00e-10
  Integral threshold = 0.00e+00

  ==> Primary Basis <==

  Basis Set: 6-31G*
    Blend: 6-31G*
    Number of shells: 12
    Number of basis function: 21
    Number of Cartesian functions: 21
    Spherical Harmonics?: false
    Max angular momentum: 2

   => Loading Basis Set <=

    Name: (6-31G* AUX)
    Role: JKFIT
    Keyword: DF_BASIS_SCF
    atoms 1   entry N          line   171 file /home/bdw2292/miniconda3/envs/p4env/share/psi4/basis/cc-pvdz-jkfit.gbs 
    atoms 2-4 entry H          line    51 file /home/bdw2292/miniconda3/envs/p4env/share/psi4/basis/cc-pvdz-jkfit.gbs 

   => Loading Basis Set <=

    Name: 6-31G*
    Role: ORBITAL
    Keyword: BASIS
    atoms 1   entry N          line   128 file /home/bdw2292/miniconda3/envs/p4env/share/psi4/basis/6-31gs.gbs 
    atoms 2-4 entry H          line    44 file /home/bdw2292/miniconda3/envs/p4env/share/psi4/basis/6-31gs.gbs 

  Reading orbitals from file 180, no projection.

  ==> Pre-Iterations <==

   -------------------------------------------------------
    Irrep   Nso     Nmo     Nalpha   Nbeta   Ndocc  Nsocc
   -------------------------------------------------------
     A         21      21       0       0       0       0
   -------------------------------------------------------
    Total      21      21       5       5       5       0
   -------------------------------------------------------

  ==> Integral Setup <==

  DFHelper Memory: AOs need 0.001 GiB; user supplied 0.489 GiB. Using in-core AOs.

  ==> MemDFJK: Density-Fitted J/K Matrices <==

    J tasked:                   Yes
    K tasked:                   Yes
    wK tasked:                   No
    OpenMP threads:               1
    Memory [MiB]:               500
    Algorithm:                 Core
    Schwarz Cutoff:           1E-12
    Mask sparsity (%):       0.0000
    Fitting Condition:        1E-10

   => Auxiliary Basis Set <=

  Basis Set: (6-31G* AUX)
    Blend: CC-PVDZ-JKFIT
    Number of shells: 51
    Number of basis function: 156
    Number of Cartesian functions: 156
    Spherical Harmonics?: false
    Max angular momentum: 3

  Minimum eigenvalue in the overlap matrix is 2.2359576413E-02.
  Using Symmetric Orthogonalization.

  SCF Guess: Orbitals guess was supplied from a previous computation.

  ==> Iterations <==

                           Total Energy        Delta E     RMS |[F,P]|

   @DF-RHF iter   0:   -56.18452340503293   -5.61845e+01   8.06395e-05 
   @DF-RHF iter   1:   -56.18382771114385    6.95694e-04   1.67129e-05 DIIS
   @DF-RHF iter   2:   -56.18382782845712   -1.17313e-07   5.82765e-06 DIIS
   @DF-RHF iter   3:   -56.18382785238519   -2.39281e-08   1.67648e-06 DIIS
   @DF-RHF iter   4:   -56.18382785417529   -1.79010e-09   6.15548e-07 DIIS
   @DF-RHF iter   5:   -56.18382785446214   -2.86853e-10   9.45193e-08 DIIS
   @DF-RHF iter   6:   -56.18382785446781   -5.66303e-12   1.86070e-08 DIIS
   @DF-RHF iter   7:   -56.18382785446794   -1.35003e-13   2.92360e-09 DIIS
   @DF-RHF iter   8:   -56.18382785446795   -7.10543e-15   2.09660e-10 DIIS
   @DF-RHF iter   9:   -56.18382785446794    1.42109e-14   2.20274e-11 DIIS
  Energy and wave function converged.


  ==> Post-Iterations <==

    Orbital Energies [Eh]
    ---------------------

    Doubly Occupied:                                                      

       1A    -15.540284     2A     -1.134632     3A     -0.620754  
       4A     -0.620753     5A     -0.422022  

    Virtual:                                                              

       6A      0.219529     7A      0.320973     8A      0.320974  
       9A      0.897170    10A      0.897172    11A      0.970159  
      12A      1.205219    13A      1.218593    14A      1.218595  
      15A      1.372437    16A      1.966670    17A      1.966670  
      18A      2.260271    19A      2.750653    20A      2.750654  
      21A      4.084941  

    Final Occupation by Irrep:
              A 
    DOCC [     5 ]

  @DF-RHF Final Energy:   -56.18382785446794

   => Energetics <=

    Nuclear Repulsion Energy =             11.9045045685521504
    One-Electron Energy =                 -99.4997726200781898
    Two-Electron Energy =                  31.4114401970581021
    Total Energy =                        -56.1838278544679355

Computation Completed


Properties will be evaluated at   0.000000,   0.000000,   0.000000 [a0]

Properties computed using the SCF density matrix

  Nuclear Dipole Moment: [e a0]
     X:     0.2992      Y:     0.1554      Z:    -0.8320

  Electronic Dipole Moment: [e a0]
     X:    -0.0410      Y:    -0.0213      Z:     0.1140

  Dipole Moment: [e a0]
     X:     0.2582      Y:     0.1341      Z:    -0.7179     Total:     0.7747

  Dipole Moment: [D]
     X:     0.6563      Y:     0.3409      Z:    -1.8248     Total:     1.9690


*** tstop() called on bme-nova.bme.utexas.edu at Sun Dec 29 14:06:10 2019
Module time:
	user time   =       0.32 seconds =       0.01 minutes
	system time =       0.01 seconds =       0.00 minutes
	total time  =          0 seconds =       0.00 minutes
Total time:
	user time   =       2.53 seconds =       0.04 minutes
	system time =       0.03 seconds =       0.00 minutes
	total time  =          2 seconds =       0.03 minutes

*** tstart() called on bme-nova.bme.utexas.edu
*** at Sun Dec 29 14:06:10 2019


  //>>>>>>>>>>>>>>>>>>>>>>>>>>>>>>>>>>>//
  //               DFMP2               //
  //<<<<<<<<<<<<<<<<<<<<<<<<<<<<<<<<<<<//

   => Loading Basis Set <=

    Name: (6-31G* AUX)
    Role: RIFIT
    Keyword: DF_BASIS_MP2
    atoms 1   entry N          line   197 file /home/bdw2292/miniconda3/envs/p4env/share/psi4/basis/cc-pvdz-ri.gbs 
    atoms 2-4 entry H          line    19 file /home/bdw2292/miniconda3/envs/p4env/share/psi4/basis/cc-pvdz-ri.gbs 

	 --------------------------------------------------------
	                          DF-MP2                         
	      2nd-Order Density-Fitted Moller-Plesset Theory     
	              RMP2 Wavefunction,   1 Threads             
	                                                         
	        Rob Parrish, Justin Turney, Andy Simmonett,      
	           Ed Hohenstein, and C. David Sherrill          
	 --------------------------------------------------------

   => Auxiliary Basis Set <=

  Basis Set: (6-31G* AUX)
    Blend: CC-PVDZ-RI
    Number of shells: 36
    Number of basis function: 98
    Number of Cartesian functions: 111
    Spherical Harmonics?: true
    Max angular momentum: 3

	 --------------------------------------------------------
	                 NBF =    21, NAUX =    98
	 --------------------------------------------------------
	   CLASS    FOCC     OCC    AOCC    AVIR     VIR    FVIR
	   PAIRS       0       5       5      16      16       0
	 --------------------------------------------------------

  DFHelper Memory: AOs need 0.001 GiB; user supplied 0.489 GiB. Using in-core AOs.


         ------------------------------------------------------------
                                     CPHF                           
                                  Rob Parrish                       
         ------------------------------------------------------------

  ==> Geometry <==

    Molecular point group: c1
    Full point group: C1

    Geometry (in Angstrom), charge = 0, multiplicity = 1:

       Center              X                  Y                   Z               Mass       
    ------------   -----------------  -----------------  -----------------  -----------------
         N           -0.022967689517    -0.011930090337     0.063857632847    14.003074004430
         H           -0.336675337392     0.884093204260    -0.300264078375     1.007825032230
         H           -0.336661847712    -0.716065413442    -0.599196935949     1.007825032230
         H            0.992458308051    -0.002266936967     0.012200696405     1.007825032230

  Nuclear repulsion =   11.904504568552150
  Reference energy  =  -56.183827854467935

  ==> Basis Set <==

  Basis Set: 6-31G*
    Blend: 6-31G*
    Number of shells: 12
    Number of basis function: 21
    Number of Cartesian functions: 21
    Spherical Harmonics?: false
    Max angular momentum: 2

  ==> CGRSolver (by Rob Parrish) <==

   Number of roots    =         1
   Preconditioning    =    JACOBI
   Convergence cutoff =     1E-06
   Maximum iterations =       100

  ==> CPHFRHamiltonian (by Rob Parrish) <== 

  ==> MemDFJK: Density-Fitted J/K Matrices <==

    J tasked:                   Yes
    K tasked:                   Yes
    wK tasked:                   No
    OpenMP threads:               1
    Memory [MiB]:               500
    Algorithm:                 Core
    Schwarz Cutoff:           1E-12
    Mask sparsity (%):       0.0000
    Fitting Condition:        1E-10

   => Auxiliary Basis Set <=

  Basis Set: (6-31G* AUX)
    Blend: CC-PVDZ-JKFIT
    Number of shells: 51
    Number of basis function: 156
    Number of Cartesian functions: 156
    Spherical Harmonics?: false
    Max angular momentum: 3

  ==> CPHF Iterations <==

  => Iterations <=

             Iter  Converged  Remaining    Residual
  CGR           1          0          1   8.074E-02
  CGR           2          0          1   1.266E-02
  CGR           3          0          1   2.392E-03
  CGR           4          0          1   5.473E-04
  CGR           5          0          1   7.453E-05
  CGR           6          0          1   6.484E-06
  CGR           7          1          0   7.324E-07

    CGRSolver converged.

  ==> DFCorrGrad: Density-Fitted Correlated Gradients <==

    OpenMP threads:              1
    Integrals threads:           1
    Memory [GiB]:            0.489
    Schwarz Cutoff:          0E+00
    Fitting Condition:       1E-10

   => Auxiliary Basis Set <=

  Basis Set: (6-31G* AUX)
    Blend: CC-PVDZ-JKFIT
    Number of shells: 51
    Number of basis function: 156
    Number of Cartesian functions: 156
    Spherical Harmonics?: false
    Max angular momentum: 3

	-----------------------------------------------------------
	 ==================> DF-MP2 Energies <==================== 
	-----------------------------------------------------------
	 Reference Energy          =     -56.1838278544679355 [Eh]
	 Singles Energy            =      -0.0000000000000000 [Eh]
	 Same-Spin Energy          =      -0.0403728558622683 [Eh]
	 Opposite-Spin Energy      =      -0.1331144451126478 [Eh]
	 Correlation Energy        =      -0.1734873009749162 [Eh]
	 Total Energy              =     -56.3573151554428549 [Eh]
	-----------------------------------------------------------
	 ================> DF-SCS-MP2 Energies <================== 
	-----------------------------------------------------------
	 SCS Same-Spin Scale       =       0.3333333333333333 [-]
	 SCS Opposite-Spin Scale   =       1.2000000000000000 [-]
	 SCS Same-Spin Energy      =      -0.0134576186207561 [Eh]
	 SCS Opposite-Spin Energy  =      -0.1597373341351774 [Eh]
	 SCS Correlation Energy    =      -0.1731949527559335 [Eh]
	 SCS Total Energy          =     -56.3570228072238706 [Eh]
	-----------------------------------------------------------


  -Total Gradient:
     Atom            X                  Y                   Z
    ------   -----------------  -----------------  -----------------
       1        0.000003021553    -0.000000402565    -0.000006306321
       2       -0.000010334962     0.000018174445     0.000001597911
       3       -0.000010589863    -0.000016640201    -0.000004198459
       4        0.000017903272    -0.000001131679     0.000008906868


*** tstop() called on bme-nova.bme.utexas.edu at Sun Dec 29 14:06:11 2019
Module time:
	user time   =       0.62 seconds =       0.01 minutes
	system time =       0.00 seconds =       0.00 minutes
	total time  =          1 seconds =       0.02 minutes
Total time:
	user time   =       3.15 seconds =       0.05 minutes
	system time =       0.03 seconds =       0.00 minutes
	total time  =          3 seconds =       0.05 minutes

			-----------------------------------------
			 OPTKING 2.0: for geometry optimizations 
			  - R.A. King,  Bethel University        
			-----------------------------------------

	Previous internal coordinate definitions found.
	---Fragment 1 Geometry and Gradient---
	 N          -0.0434026429       -0.0225446034        0.1206734371
	 H          -0.6362241809        1.6706940254       -0.5674168734
	 H          -0.6361986891       -1.3531675193       -1.1323181042
	 H           1.8754743932       -0.0042838900        0.0230559747
	             0.0000030216       -0.0000004026       -0.0000063063
	            -0.0000103350        0.0000181744        0.0000015979
	            -0.0000105899       -0.0000166402       -0.0000041985
	             0.0000179033       -0.0000011317        0.0000089069

	---Fragment 1 Intrafragment Coordinates---
	 - Coordinate -           - BOHR/RAD -       - ANG/DEG -
	 R(1,2)           =         1.921448	       1.016787
	 R(1,3)           =         1.921445	       1.016785
	 R(1,4)           =         1.921445	       1.016785
	 B(2,1,3)         =         1.856205	     106.352701
	 B(2,1,4)         =         1.856203	     106.352601
	 B(3,1,4)         =         1.856210	     106.353025

	Current energy   :       -56.3573151554

	Energy change for the previous step:
		Projected    :        -0.0000031428
		Actual       :        -0.0000012249

	Performing BFGS update.
	Previous computed or guess Hessian on step 1.
	Steps to be used in Hessian update: 2 1
	Taking RFO optimization step.
	Going to follow RFO solution 1.
	Using RFO vector 1.
	Norm of target step-size    0.00021
	Projected energy change by RFO approximation:        -0.0000000043

	Back-transformation to cartesian coordinates...
	Successfully converged to displaced geometry.

	--- Internal Coordinate Step in ANG or DEG, aJ/ANG or AJ/DEG ---
	 ---------------------------------------------------------------------------
	   Coordinate                Previous        Force       Change         New 
	   ----------                --------       ------       ------       ------
	    1 R(1,2)          =      1.016787    -0.000154    -0.000015     1.016772
	    2 R(1,3)          =      1.016785    -0.000144    -0.000013     1.016772
	    3 R(1,4)          =      1.016785    -0.000143    -0.000013     1.016772
	    4 B(2,1,3)        =    106.352701    -0.000001    -0.006558   106.346143
	    5 B(2,1,4)        =    106.352601    -0.000001    -0.006462   106.346139
	    6 B(3,1,4)        =    106.353025    -0.000001    -0.006883   106.346142
	 ---------------------------------------------------------------------------
	Successfully symmetrized geometry.

  ==> Convergence Check <==

  Measures of convergence in internal coordinates in au.
  Criteria marked as inactive (o), active & met (*), and active & unmet ( ).
  ---------------------------------------------------------------------------------------------
   Step     Total Energy     Delta E     MAX Force     RMS Force      MAX Disp      RMS Disp   
  ---------------------------------------------------------------------------------------------
    Convergence Criteria    1.00e-06 *    3.00e-04 *             o    1.20e-03 *             o
  ---------------------------------------------------------------------------------------------
      3     -56.35731516   -1.22e-06      1.86e-05 *    1.75e-05 o    1.20e-04 *    8.40e-05 o  ~
  ---------------------------------------------------------------------------------------------


  **** Optimization is complete! (in 3 steps) ****

  ==> Optimization Summary <==

  Measures of convergence in internal coordinates in au.
  --------------------------------------------------------------------------------------------------------------- ~
   Step         Total Energy             Delta E       MAX Force       RMS Force        MAX Disp        RMS Disp  ~
  --------------------------------------------------------------------------------------------------------------- ~
      1     -56.357300549782    -56.357300549782      0.00151936      0.00113732      0.00368543      0.00351757  ~
      2     -56.357313930578     -0.000013380796      0.00028346      0.00024605      0.00247194      0.00181729  ~
      3     -56.357315155443     -0.000001224864      0.00001863      0.00001750      0.00012013      0.00008398  ~
  --------------------------------------------------------------------------------------------------------------- ~

	Writing optimization data to binary file.
	Final energy is    -56.3573151554429
	Final (previous) structure:
	Cartesian Geometry (in Angstrom)
	    N    -0.0229676894  -0.0119300903   0.0638576326
	    H    -0.3366753361   0.8840932008  -0.3002640772
	    H    -0.3366618464  -0.7160654106  -0.5991969336
	    H     0.9924583041  -0.0022669370   0.0122006964
	Saving final (previous) structure.
			--------------------------
			 OPTKING Finished Execution 
			--------------------------

    Final optimized geometry and variables:
    Molecular point group: c1
    Full point group: C1

    Geometry (in Angstrom), charge = 0, multiplicity = 1:

    N           -0.022967689517    -0.011930090337     0.063857632847
    H           -0.336675337392     0.884093204260    -0.300264078375
    H           -0.336661847712    -0.716065413442    -0.599196935949
    H            0.992458308051    -0.002266936967     0.012200696405

	Removing binary optimization data file.
	Cleaning optimization helper files.

    Psi4 stopped on: Sunday, 29 December 2019 02:06PM
    Psi4 wall time for execution: 0:00:03.24

*** Psi4 exiting successfully. Buy a developer a beer!
