Generated by Psi4
        SP                        DF-MP2                      6-311G**
Number of atoms                            I                4
Charge                                     I                0
Multiplicity                               I                1
Number of electrons                        I               10
Number of alpha electrons                  I                5
Number of beta electrons                   I                5
Number of basis functions                  I               36
Number of independent functions            I               36
Atomic numbers                             I   N=           4
           7           1           1           1
Nuclear charges                            R   N=           4
  7.00000000e+00  1.00000000e+00  1.00000000e+00  1.00000000e+00
Current cartesian coordinates              R   N=          12
 -4.34026429e-02 -2.25446034e-02  1.20673437e-01 -6.36224181e-01  1.67069403e+00
 -5.67416873e-01 -6.36198689e-01 -1.35316752e+00 -1.13231810e+00  1.87547439e+00
 -4.28389001e-03  2.30559747e-02
Integer atomic weights                     I   N=           4
          14           1           1           1
Real atomic weights                        R   N=           4
  1.40030740e+01  1.00782503e+00  1.00782503e+00  1.00782503e+00
Number of primitive shells                 I               35
Number of contracted shells                I               20
Pure/Cartesian d shells                    I                0
Pure/Cartesian f shells                    I                0
Highest angular momentum                   I                2
Largest degree of contraction              I                6
Shell types                                I   N=          20
           0           0           1           0           1           0
           1          -2           0           0           0           1
           0           0           0           1           0           0
           0           1
Number of primitives per shell             I   N=          20
           6           3           3           1           1           1
           1           1           3           1           1           1
           3           1           1           1           3           1
           1           1
Shell to atom map                          I   N=          20
           1           1           1           1           1           1
           1           1           2           2           2           2
           3           3           3           3           4           4
           4           4
Primitive exponents                        R   N=          35
  6.29348000e+03  9.49044000e+02  2.18776000e+02  6.36916000e+01  1.88282000e+01
  2.72023000e+00  3.06331000e+01  7.02614000e+00  2.11205000e+00  3.06331000e+01
  7.02614000e+00  2.11205000e+00  6.84009000e-01  6.84009000e-01  2.00878000e-01
  2.00878000e-01  9.13000000e-01  3.38650000e+01  5.09479000e+00  1.15879000e+00
  3.25840000e-01  1.02741000e-01  7.50000000e-01  3.38650000e+01  5.09479000e+00
  1.15879000e+00  3.25840000e-01  1.02741000e-01  7.50000000e-01  3.38650000e+01
  5.09479000e+00  1.15879000e+00  3.25840000e-01  1.02741000e-01  7.50000000e-01
Contraction coefficients                   R   N=          35
  1.96978815e-03  1.49612859e-02  7.35005308e-02  2.48936766e-01  6.02459433e-01
  2.56201759e-01  1.11906080e-01  9.21666655e-01 -2.56919183e-03  3.83119186e-02
  2.37403116e-01  8.17592398e-01  1.00000000e+00  1.00000000e+00  1.00000000e+00
  1.00000000e+00  1.00000000e+00  2.54938145e-02  1.90373109e-01  8.52161486e-01
  1.00000000e+00  1.00000000e+00  1.00000000e+00  2.54938145e-02  1.90373109e-01
  8.52161486e-01  1.00000000e+00  1.00000000e+00  1.00000000e+00  2.54938145e-02
  1.90373109e-01  8.52161486e-01  1.00000000e+00  1.00000000e+00  1.00000000e+00
Coordinates of each shell                  R   N=          60
 -4.34026429e-02 -2.25446034e-02  1.20673437e-01 -4.34026429e-02 -2.25446034e-02
  1.20673437e-01 -4.34026429e-02 -2.25446034e-02  1.20673437e-01 -4.34026429e-02
 -2.25446034e-02  1.20673437e-01 -4.34026429e-02 -2.25446034e-02  1.20673437e-01
 -4.34026429e-02 -2.25446034e-02  1.20673437e-01 -4.34026429e-02 -2.25446034e-02
  1.20673437e-01 -4.34026429e-02 -2.25446034e-02  1.20673437e-01 -6.36224181e-01
  1.67069403e+00 -5.67416873e-01 -6.36224181e-01  1.67069403e+00 -5.67416873e-01
 -6.36224181e-01  1.67069403e+00 -5.67416873e-01 -6.36224181e-01  1.67069403e+00
 -5.67416873e-01 -6.36198689e-01 -1.35316752e+00 -1.13231810e+00 -6.36198689e-01
 -1.35316752e+00 -1.13231810e+00 -6.36198689e-01 -1.35316752e+00 -1.13231810e+00
 -6.36198689e-01 -1.35316752e+00 -1.13231810e+00  1.87547439e+00 -4.28389001e-03
  2.30559747e-02  1.87547439e+00 -4.28389001e-03  2.30559747e-02  1.87547439e+00
 -4.28389001e-03  2.30559747e-02  1.87547439e+00 -4.28389001e-03  2.30559747e-02
Total Energy                               R     -5.640872931297935e+01
Alpha Orbital Energies                     R   N=          36
 -1.55304665e+01 -1.13394649e+00 -6.19712235e-01 -6.19710724e-01 -4.23866956e-01
  1.55680871e-01  2.29620925e-01  2.29621012e-01  5.16573615e-01  5.16574934e-01
  6.65249760e-01  8.19118979e-01  9.54766542e-01  9.54766733e-01  1.11930727e+00
  1.35381429e+00  1.35381680e+00  1.79693106e+00  1.81365317e+00  1.90367635e+00
  1.90367767e+00  2.16735607e+00  2.16735851e+00  2.45340200e+00  2.68253435e+00
  2.68253783e+00  2.86129104e+00  2.98679026e+00  2.98679102e+00  3.12841497e+00
  3.44895231e+00  3.44895316e+00  4.42388136e+00  5.20670217e+00  5.20670926e+00
  3.70308793e+01
Alpha MO coefficients                      R   N=        1296
  5.57652324e-01  4.68275035e-01  6.54120911e-04  3.39760718e-04 -1.81866142e-03
  4.87130714e-03 -2.54968868e-04 -1.32436926e-04  7.08896287e-04 -8.19764338e-04
  3.87732534e-06  2.01303326e-06 -1.07795430e-05  9.47182592e-05 -6.42864884e-05
 -3.33899864e-05  8.44323799e-06  1.20111140e-05  2.57717122e-04  2.53713573e-04
  9.44614318e-05  6.62458798e-05 -1.07324663e-04 -1.87128985e-05  2.57717587e-04
  2.53710186e-04  9.44629725e-05  6.62443158e-05  1.06841737e-04  2.12950231e-05
  2.57717708e-04  2.53710296e-04  9.44629335e-05 -1.11645280e-04  1.13067021e-05
 -6.05344219e-05  1.07225415e-01  1.77382264e-01 -1.15560476e-02 -6.00231925e-03
  3.21292618e-02 -4.73247002e-01 -1.86050958e-02 -9.66370618e-03  5.17277871e-02
 -3.25482906e-01 -6.19256984e-03 -3.21648189e-03  1.72172182e-02  3.17927919e-03
 -2.15784431e-03 -1.12080965e-03  2.83327017e-04  4.03046402e-04 -8.98145478e-02
 -9.66427381e-02 -2.30315935e-03 -8.59373785e-03  2.12035787e-02 -6.07286077e-03
 -8.98147970e-02 -9.66428537e-02 -2.30311606e-03 -8.59342800e-03 -1.75811472e-02
 -1.33184267e-02 -8.98148395e-02 -9.66428942e-02 -2.30312103e-03  2.36218960e-02
 -2.80045799e-04  1.50067462e-03  3.74607412e-08  6.34141848e-08  1.60035105e-01
  1.03950257e-01  7.69798857e-02 -1.76936709e-07  2.49925297e-01  1.62338130e-01
  1.20218766e-01 -2.96098116e-07  1.62072946e-01  1.05273936e-01  7.79601564e-02
 -1.67622077e-02 -1.36280029e-02 -1.74741506e-02  1.82174984e-02 -2.13893270e-03
  1.28863872e-02  1.94582786e-02  7.12741347e-03  1.36920237e-02  5.46753937e-03
  6.93811667e-03 -1.50789642e-01 -2.27689632e-01 -8.34012984e-02  1.18092788e-04
 -1.79526242e-02 -1.49198055e-02  1.37903330e-01  2.08231609e-01  7.62738995e-02
 -2.00891933e-02  8.40651733e-03  4.96132777e-03 -6.48182233e-08 -1.08458843e-07
  1.09666620e-01 -1.73976491e-01  6.94204017e-03  3.08969687e-07  1.71265352e-01
 -2.71697493e-01  1.08413187e-02  3.24066689e-07  1.11063550e-01 -1.76192578e-01
  7.03042942e-03  7.49279540e-04 -7.52512745e-03  2.45201778e-02  1.95476405e-02
  8.24348377e-03 -1.66676832e-01 -2.51679599e-01 -9.21893305e-02 -5.17300524e-03
  2.16117752e-02 -1.06545826e-02  7.21783700e-02  1.08988033e-01  3.99219707e-02
  1.46361500e-02 -1.20484383e-03  1.05957121e-02  9.44981974e-02  1.42690594e-01
  5.22671106e-02 -1.37658191e-02 -1.35810772e-02 -2.13513360e-04  3.48516175e-02
  5.91271483e-02  8.36866583e-02  4.34677441e-02 -2.32674909e-01 -1.78144654e-01
  1.25312739e-01  6.50887771e-02 -3.48408355e-01 -2.33087260e-01  1.53038874e-01
  7.94901684e-02 -4.25495679e-01  1.26075198e-02 -8.55689461e-03 -4.44456576e-03
  1.12368661e-03  1.59862537e-03  4.45258665e-02  4.01963392e-02  2.89526867e-02
  1.04398311e-02 -4.52113545e-03 -1.74168452e-02  4.45260647e-02  4.01965773e-02
  2.89527190e-02  1.04396891e-02  1.05043945e-02 -1.46098552e-02  4.45259978e-02
  4.01964447e-02  2.89526376e-02 -2.04076603e-03  3.80182136e-03 -2.03508998e-02
  4.17653315e-02  6.74415763e-02 -1.82898297e-02 -9.50036479e-03  5.08518627e-02
 -9.79964974e-02 -3.05365876e-02 -1.58615551e-02  8.49016838e-02 -1.28893631e+00
 -7.95215352e-02 -4.13061279e-02  2.21096366e-01  1.45649100e-03 -9.88570216e-04
 -5.13457294e-04  1.29777855e-04  1.84598134e-04  2.16851702e-02 -1.14465898e-02
  7.01841980e-01  4.89141571e-04 -3.99768731e-03  3.60390515e-03  2.16851239e-02
 -1.14460249e-02  7.01840464e-01  4.89098560e-04  2.42698652e-03  4.80419833e-03
  2.16850926e-02 -1.14461114e-02  7.01840365e-01 -4.84742480e-03 -4.38961235e-04
  2.34939085e-03  3.13957880e-08  5.03590679e-08  8.74786418e-02  8.28663305e-02
  4.69445654e-02 -8.15681406e-08  7.77334035e-02  7.36350092e-02  4.17149025e-02
 -8.75687669e-07  4.75804421e-01  4.50717365e-01  2.55335722e-01 -2.89888759e-03
 -3.13164196e-03 -9.80614780e-04 -2.48067505e-03  5.11674038e-03 -5.11549545e-03
  3.88264095e-02 -4.65706728e-01  1.91085979e-03 -3.15602405e-03  2.19021712e-03
  2.01282390e-02 -1.52774235e-01  1.83246021e+00 -4.07967703e-03 -1.07629414e-02
 -1.17117593e-02 -1.50126828e-02  1.13947826e-01 -1.36675234e+00 -1.21200238e-02
  3.83601576e-04  1.85359948e-03 -7.96149176e-08 -1.24003294e-07  8.49264025e-02
 -9.67214614e-02  1.24762879e-02  1.03201949e-07  7.54656728e-02 -8.59468691e-02
  1.10864133e-02  2.96082740e-06  4.61921844e-01 -5.26075954e-01  6.78597381e-02
 -1.39502385e-03 -4.67708354e-03  3.28100822e-03 -1.58876049e-03 -3.79439322e-03
  2.02890155e-02 -1.53991403e-01  1.84706664e+00 -4.13827131e-03  1.43650095e-02
 -7.10410444e-03 -5.71438959e-03  4.33710729e-02 -5.20220575e-01  2.03265627e-03
  2.47233076e-03  3.53044347e-03 -1.45746329e-02  1.10620618e-01 -1.32684986e+00
 -1.17661403e-02 -1.03910435e-03  1.53579640e-03 -5.28374864e-08 -1.05666146e-07
  4.09733804e-02 -6.46921518e-02  2.65135928e-03  1.82876645e-07  6.89339515e-02
 -1.08838463e-01  4.46053917e-03  6.85501976e-06  7.13423405e-01 -1.12640885e+00
  4.61622904e-02 -1.46583886e-03 -7.29990407e-03  7.04448870e-03 -8.90975050e-04
 -7.30236191e-03  8.13377028e-02  1.54360091e+00 -4.86672097e-01  1.75504560e-02
 -3.77307692e-02  9.38725635e-03 -3.50589038e-02 -6.65336599e-01  2.09768515e-01
  5.07126992e-03 -2.21320383e-02 -6.67444758e-03 -4.62792437e-02 -8.78272323e-01
  2.76903253e-01  2.40919663e-02 -1.38921902e-02  3.09520495e-04  4.63392214e-08
  8.24572072e-08  5.94959044e-02  3.88568712e-02  2.86582188e-02 -1.89732704e-07
  1.00097075e-01  6.53735320e-02  4.82151407e-02 -1.59066735e-06  1.03594372e+00
  6.76576061e-01  4.98997377e-01 -6.11139004e-03 -7.25126470e-03 -1.64983265e-03
 -3.59330912e-03  7.32246349e-03 -6.47791085e-03 -1.22937715e-01  3.87595449e-02
  1.21268557e-02  1.02684278e-02  5.47380364e-03  7.36792428e-02  1.39827607e+00
 -4.40844108e-01  2.07213767e-02  2.55874321e-02  2.14036754e-02 -6.72010537e-02
 -1.27533452e+00  4.02083280e-01  3.49837427e-02  8.44527050e-03  5.79618684e-03
  4.91531209e-02  8.92820739e-02 -5.91974129e-03 -3.07549639e-03  1.64592952e-02
 -1.99627533e-01 -1.00319348e-02 -5.21207318e-03  2.78927107e-02 -2.07289837e+00
 -3.60723096e-01 -1.87370502e-01  1.00292168e+00 -1.52972422e-02  1.03824836e-02
  5.39276386e-03 -1.36347817e-03 -1.93967738e-03  4.23252350e-02  1.56875739e+00
 -3.44619900e-01  3.48792424e-03 -3.33439237e-02  3.13465130e-02  4.23251430e-02
  1.56874917e+00 -3.44616563e-01  3.48658616e-03  1.97780002e-02  4.12708873e-02
  4.23251735e-02  1.56875332e+00 -3.44616597e-01 -4.06370154e-02 -3.91806949e-03
  2.09739083e-02  6.38427381e-04  7.63024510e-04 -8.03999610e-02 -4.17610024e-02
  2.23537148e-01 -7.05282091e-02 -2.80689344e-01 -1.45794058e-01  7.80404371e-01
  6.87977422e-01  4.32314837e-01  2.24552847e-01 -1.20197295e+00 -2.37255336e-02
  1.61029252e-02  8.36394396e-03 -2.11459493e-03 -3.00817859e-03  1.28814551e-02
 -1.13441660e-01 -1.87266653e-01 -4.84770817e-02  8.00208544e-02  1.19614234e-02
  1.28814045e-02 -1.13440122e-01 -1.87265604e-01 -4.84755946e-02 -7.89428124e-02
 -1.77348650e-02  1.28814031e-02 -1.13440080e-01 -1.87265810e-01  8.35621422e-02
 -8.03258792e-03  4.30027252e-02 -3.25214739e-08 -8.49057974e-08 -9.44548635e-02
  2.41065948e-01  1.10628839e-02  1.78828273e-06 -3.01377216e-01  7.69167893e-01
  3.52987665e-02 -9.21037655e-06  6.27597455e-01 -1.60174686e+00 -7.35037608e-02
  8.93790480e-03  2.60732229e-03  4.15058660e-02  3.22879111e-02  3.61691528e-02
 -2.71568734e-02  5.69084269e-03  1.22023034e+00  5.43476022e-02 -1.52258774e-01
  7.82664443e-02  1.65734409e-02 -3.46624104e-03 -7.44697740e-01 -6.57144180e-02
 -4.77049374e-02 -8.57425604e-02  1.05831668e-02 -2.21129179e-03 -4.75532954e-01
  6.93792821e-02  5.19028337e-02  6.82375347e-04 -1.08610537e-08 -1.84027122e-08
  2.25329289e-01  8.38508078e-02  9.67094606e-02  5.36376963e-08  7.18956213e-01
  2.67541713e-01  3.08570036e-01 -8.11830891e-08 -1.49718547e+00 -5.57141535e-01
 -6.42579832e-01  2.01834607e-02  1.23381571e-02  2.47793778e-02 -5.30659217e-02
  1.30589868e-02  3.45859178e-03 -7.24115734e-04 -1.55402533e-01  3.87237324e-02
  4.39041641e-02  1.10292270e-02  2.17888709e-02 -4.56318455e-03 -9.79049701e-01
 -1.16018981e-02 -1.12595558e-01 -9.51432466e-02 -2.52473994e-02  5.28661612e-03
  1.13445265e+00 -1.65518507e-01  1.71899179e-02  2.47152089e-02  1.02196690e-01
  2.10724678e-01 -1.11806090e-02 -5.80685657e-03  3.10851285e-02 -1.68113330e+00
  6.16126679e-02  3.20033295e-02 -1.71302092e-01  4.29070876e+00  2.21820514e-01
  1.15219979e-01 -6.16731217e-01 -1.06012443e-02  7.19524783e-03  3.73782947e-03
 -9.44428118e-04 -1.34388034e-03  1.93891864e-02 -9.28739144e-01 -4.22440246e-01
 -5.64066507e-02  2.41528691e-01 -1.59359317e-01  1.93889432e-02 -9.28734818e-01
 -4.22446034e-01 -5.64008557e-02 -1.67706275e-01 -2.35812667e-01  1.93889545e-02
 -9.28736513e-01 -4.22445460e-01  2.83516234e-01  1.48441005e-02 -7.94497338e-02
 -1.13661004e-07 -2.60247125e-07  1.49224094e-02  1.07255052e-02  7.37075591e-03
  2.11156318e-06  5.76506932e-02  4.14365923e-02  2.84760219e-02 -3.76885842e-06
  2.58292476e-01  1.85647764e-01  1.27583056e-01  9.44231671e-02  1.15734262e-01
  1.42734507e-02  8.86885113e-02 -1.47843245e-01  4.70789364e-03 -3.64449417e-02
  2.46469608e-03 -4.40707479e-01 -2.07594188e-01 -1.39599935e-01 -3.58995060e-02
  2.77924567e-01 -1.87910594e-02  6.48063637e-02  3.37402890e-01 -3.53597766e-01
  3.11921615e-02 -2.41478036e-01  1.63275815e-02  4.02543848e-02 -3.71054995e-01
  3.27408416e-01  2.87435582e-07  6.52619759e-07  1.12161862e-02 -1.62867285e-02
  9.91802341e-04 -5.24075467e-06  4.33316031e-02 -6.29203049e-02  3.83096493e-03
  1.02021936e-05  1.94142408e-01 -2.81905033e-01  1.71624673e-02  3.26676905e-02
  1.34430462e-01 -1.03521997e-01  4.45397150e-02  1.42822447e-01 -3.87356603e-02
  2.99873186e-01 -2.02766584e-02  1.95020103e-01 -1.34578395e-01 -4.29695315e-01
  1.52901873e-02 -1.18376437e-01  8.00278569e-03 -4.77550750e-01  1.56350903e-01
  4.48297877e-02  2.34441223e-02 -1.81501681e-01  1.22707679e-02  3.02470163e-02
  3.44561527e-01  3.62556886e-01 -1.02505148e-12 -2.22233915e-12  1.74088689e-08
 -5.25767998e-09  5.28052561e-09  1.74009173e-11 -2.94456973e-06 -5.40197363e-07
 -1.15999423e-06 -3.66460211e-11  1.20941643e-05  2.27135417e-06  4.77428377e-06
 -5.57402643e-07 -2.45981097e-07 -7.07895720e-07  2.09133597e-06 -3.58772533e-07
 -5.58632632e-07  2.76995024e-06 -1.02822298e-07  5.05634318e-01  2.71550110e-01
  2.32594922e-01 -1.60149967e-06  7.17828471e-06 -5.36890467e-07 -5.05653269e-01
  3.37199902e-01 -1.18869597e-01  2.16012717e-06 -9.94818214e-06  6.39708962e-07
  3.24664082e-06 -6.08752996e-01 -1.13731532e-01  3.75258020e-02  8.60759406e-02
  2.26926205e-02  1.17865566e-02 -6.30922286e-02 -8.06495180e-01  1.97724460e-02
  1.02698036e-02 -5.49724048e-02  2.26536223e+00  3.72095742e-01  1.93270607e-01
 -1.03454116e+00 -2.64372128e-01  1.79433702e-01  9.31999039e-02 -2.35625984e-02
 -3.35202194e-02  4.97431154e-02 -9.33113555e-01 -1.49080190e-02 -2.50735287e-01
  4.86423243e-02  4.88287416e-01  4.97439519e-02 -9.33117271e-01 -1.49084300e-02
 -2.50736274e-01 -2.21651227e-01  4.37794560e-01  4.97434949e-02 -9.33116714e-01
 -1.49088293e-02 -2.62226687e-02 -1.01076824e-01  5.41070289e-01  1.21030398e-08
  2.50649010e-08  1.22467282e-03  9.66599441e-04  6.20981788e-04 -4.93186016e-07
 -3.17847886e-02 -2.50877740e-02 -1.61192743e-02  2.93352442e-06  7.79965990e-01
  6.15621590e-01  3.95539710e-01 -6.64681133e-02 -3.07707947e-02 -1.25348003e-01
  1.60788374e-01 -1.02026896e-01  4.95566375e-02 -1.72411078e-01  2.48755895e-02
 -4.13047195e-01 -2.84984749e-01 -2.92663816e-01 -2.86079578e-01  9.95288184e-01
 -1.43599963e-01 -4.79398288e-01 -2.34281040e-01  3.08339089e-01  2.36523040e-01
 -8.22881151e-01  1.18724338e-01 -1.14451640e-01 -2.75472696e-01 -5.26298159e-01
 -5.07099810e-08 -1.13129798e-07  1.00322940e-03 -1.34186472e-03  1.10267777e-04
  1.24491680e-06 -2.60411438e-02  3.48298972e-02 -2.85861887e-03 -2.41205874e-06
  6.39020866e-01 -8.54692210e-01  7.01674832e-02  1.48403109e-02  1.44753699e-02
  1.03989944e-01  1.71736274e-01  1.28852648e-01 -3.01728468e-01  1.04972078e+00
 -1.51458456e-01 -4.06088564e-01  1.66463864e-01  4.38254140e-01  1.07946565e-01
 -3.75546375e-01  5.41859156e-02 -3.25085063e-01  4.25821822e-01 -2.35291805e-01
  1.93781631e-01 -6.74170098e-01  9.72719411e-02 -9.37784119e-02  5.11092280e-01
 -2.93545823e-01  8.55396376e-08  2.38769529e-07  7.92490538e-02 -1.25984988e-01
  4.96742247e-03 -1.07653712e-06  1.98088764e-01 -3.14909873e-01  1.24178191e-02
 -9.48012284e-06  6.13639187e-02 -9.75548123e-02  3.84925902e-03 -1.54265865e-02
  8.30195003e-02 -3.24371862e-01 -2.78796443e-01 -1.39832421e-01  5.71751178e-01
 -6.45169890e-01  5.16598053e-01 -4.93999534e-02 -3.34362193e-01  4.29167575e-01
 -2.48102413e-01  2.79967270e-01 -2.24168036e-01 -2.36961401e-01  1.04253374e-01
 -2.86795397e-01 -3.23653997e-01  3.65221575e-01 -2.92431496e-01  2.35117314e-01
  3.11571279e-01 -1.45583043e-01 -2.66430426e-08 -8.21330014e-08  1.15900146e-01
  7.51022322e-02  5.57165853e-02  7.48882099e-07  2.89698139e-01  1.87721848e-01
  1.39265828e-01  5.08491380e-07  8.97391027e-02  5.81502908e-02  4.31401274e-02
  2.17439146e-01  1.69575154e-01  2.41437535e-01 -2.69184807e-01  5.33198176e-02
 -4.36193058e-02  4.92205101e-02 -3.94115549e-02 -2.73522702e-01 -1.23408934e-01
 -1.60296413e-01  5.16966890e-01 -5.83360217e-01  4.67094022e-01 -1.45284553e-01
  2.08927609e-01  4.47358585e-01 -4.73345806e-01  5.34136432e-01 -4.27681658e-01
  3.43867673e-01 -1.34078209e-01 -3.23088672e-01  2.27555637e-02  3.08230685e-02
 -5.87733724e-02 -3.05284206e-02  1.63408733e-01 -9.85733580e-03  3.85775325e-03
  1.99697974e-03 -1.07182732e-02  5.67405778e-01  2.38628546e-02  1.23935614e-02
 -6.63422281e-02 -3.11447624e-01  2.11385206e-01  1.09795318e-01 -2.77567279e-02
 -3.94861693e-02  7.66413413e-01 -1.10338625e+00  2.96187871e-01  1.28192216e-01
 -8.26860360e-02 -1.82144321e-01  7.66416351e-01 -1.10339945e+00  2.96189667e-01
  1.28189196e-01  1.42863495e-01 -1.40016174e-01  7.66416679e-01 -1.10340058e+00
  2.96189655e-01 -5.91496385e-02  4.22536199e-02 -2.26191764e-01  1.07095569e-07
  3.01085148e-07  1.11688546e-02  7.46485863e-03  5.41176909e-03 -1.89774530e-06
 -9.62140682e-01 -6.43060920e-01 -4.66188751e-01 -7.77227681e-06 -4.36820187e-01
 -2.91955592e-01 -2.11651292e-01  1.64241663e-01  1.04430656e-01  2.33115592e-01
 -3.02142941e-01  1.24181120e-01 -7.62258288e-02  2.15479358e-01 -4.75694487e-02
  5.34339645e-02 -9.53626228e-02  5.33502493e-02  7.75035981e-01 -2.19091673e+00
  4.83677471e-01 -3.54346311e-01 -8.34389074e-01 -8.11523247e-01 -6.98815108e-01
  1.97545393e+00 -4.36109249e-01 -1.09398204e+00 -2.54665972e-03  8.22981553e-02
 -1.32752702e-07 -3.51595647e-07  7.85526341e-03 -1.21550725e-02  5.54740118e-04
 -1.94916040e-07 -6.76681750e-01  1.04707532e+00 -4.77735126e-02  1.88316688e-05
 -3.07214122e-01  4.75378255e-01 -2.16951848e-02 -2.68160725e-02  1.83194294e-02
 -2.60562662e-01 -2.94665497e-01 -2.07749862e-01  8.50941384e-01 -2.40546632e+00
  5.31045426e-01 -3.95742308e-01  1.17238567e+00 -5.03226011e-01 -3.59447812e-01
  1.01610391e+00 -2.24323395e-01  1.84083942e-01  3.73807790e-01  3.81012558e-01
 -4.91471619e-01  1.38931565e+00 -3.06716004e-01 -7.69389630e-01 -2.81547958e-02
  5.29560053e-02  3.17439454e-02  8.98710257e-02 -2.75229224e-02 -1.42957374e-02
  7.65225431e-02 -5.91487933e-01 -1.45914326e-01 -7.57795271e-02  4.05680785e-01
 -2.54938161e+00 -3.75947532e-01 -1.95276647e-01  1.04525550e+00 -4.61356885e-01
  3.13119923e-01  1.62651353e-01 -4.11221735e-02 -5.85178239e-02 -4.99083266e-01
  1.75757472e+00 -1.19505983e-01  4.22105969e-01 -6.24262488e-01 -1.88798787e-01
 -4.99090915e-01  1.75760016e+00 -1.19512398e-01  4.22090733e-01  6.50340752e-01
  4.93313928e-02 -4.99088076e-01  1.75759317e+00 -1.19510403e-01 -6.36618689e-01
  8.17645413e-02 -4.37680935e-01 -1.23409410e-06 -3.23233632e-06  4.28159062e-02
 -5.25488467e-02  5.57945329e-03  2.11270213e-05  4.00038340e-02 -4.90918138e-02
  5.20249660e-03  7.38240586e-05  3.21010589e-01 -3.93978479e-01  4.18276676e-02
 -2.03124404e-01 -7.32284339e-01  5.70988876e-01 -1.79716271e-01 -6.03943517e-01
  1.27989810e-02  2.98095246e-01  9.51975174e-02  9.68863537e-02 -2.13562709e-01
 -2.80996635e-01 -4.05150784e-03 -9.47578427e-02 -3.02381760e-02 -5.14239443e-01
  2.26884630e-01 -5.49148213e-02 -8.71514551e-03 -2.03480049e-01 -6.49530322e-02
  9.15381482e-02  3.86569091e-01  2.93428276e-01  5.14462447e-07  1.35248540e-06
  4.77332101e-02  4.15398316e-02  2.49298643e-02 -8.88333713e-06  4.45893256e-02
  3.88048770e-02  2.32930386e-02 -3.06573812e-05  3.57879567e-01  3.11443427e-01
  1.86914230e-01 -5.01055772e-01 -5.47421346e-01 -1.82384721e-01 -3.58938292e-01
  7.66647737e-01 -2.69761279e-03 -6.27503755e-02 -2.00438522e-02 -5.06703818e-01
 -2.16209372e-01 -1.64539811e-01  1.24184348e-02  2.89595276e-01  9.24625979e-02
  4.14135810e-02  3.27142579e-01 -1.92015683e-01 -9.73516785e-03 -2.26784642e-01
 -7.24216982e-02  1.02031748e-01 -4.27054830e-01  1.66846409e-01  7.29442338e-02
  1.69224962e-01 -8.10240614e-02 -4.20890196e-02  2.25275573e-01 -9.63258342e-01
 -1.65654701e-01 -8.60422343e-02  4.60569403e-01 -3.17263447e+00 -2.70585959e-01
 -1.40560537e-01  7.52324278e-01  7.12813040e-01 -4.83802737e-01 -2.51278513e-01
  6.35333763e-02  9.03717520e-02  6.05218305e-02  1.54582378e+00  7.28149283e-02
  2.75189293e-01 -8.67578824e-01  4.14651330e-01  6.05170564e-02  1.54582048e+00
  7.28086699e-02  2.75169131e-01  6.59364832e-01  6.99908253e-01  6.05184333e-02
  1.54582114e+00  7.28099745e-02 -9.93130973e-01 -2.17689966e-02  1.16487585e-01
  2.13011179e-07  4.65022093e-07  3.44580177e-01  4.44692351e-01  2.07013459e-01
 -3.07890775e-06  1.89547021e-02  2.44610307e-02  1.13879967e-02 -4.67354097e-06
  4.67865807e-01  6.03796021e-01  2.81078688e-01 -4.28735722e-01 -2.45006006e-01
 -7.81601945e-01  5.23631207e-01 -4.71309478e-01 -2.42991462e-01 -1.40651462e-01
 -1.67956441e-01 -3.51962978e-02  2.82220948e-01 -7.21647955e-02  6.31255141e-01
  3.65390773e-01  4.36323164e-01  2.43370187e-01  5.14703868e-01  4.75245612e-01
 -3.88259124e-01 -2.24735453e-01 -2.68365225e-01  4.55851600e-01  6.00245063e-02
 -4.15094623e-03 -4.32123993e-07 -9.59816972e-07  4.47972240e-01 -3.88351557e-01
  8.85697274e-02  6.64288266e-06  2.46415473e-02 -2.13606794e-02  4.87057580e-03
  9.89018832e-06  6.08247935e-01 -5.27296516e-01  1.20259708e-01 -6.02321396e-02
 -1.25369578e-01  4.66688036e-01  9.67738593e-01  4.21199380e-01  5.88611391e-01
  3.40707811e-01  4.06849814e-01  2.42462099e-01 -5.99213726e-01  2.47124471e-01
 -8.38713494e-02 -4.85497789e-02 -5.79709663e-02  2.81818574e-02 -1.08743705e-01
 -4.89195765e-02 -5.04749090e-01 -2.92167073e-01 -3.48881737e-01  5.92627187e-01
 -4.04199872e-02 -2.75296064e-02  3.46603757e-02  7.05241624e-02  4.29352369e-01
  2.23010611e-01 -1.19373369e+00 -3.90584983e-01 -5.94756214e-01 -3.08921524e-01
  1.65360588e+00 -1.52482175e+00  6.95094803e-03  3.60908497e-03 -1.93254718e-02
  1.14669927e-01 -7.78290363e-02 -4.04256998e-02  1.02191321e-02  1.45369192e-02
  1.21310928e-01  7.14826344e-01  9.96509138e-03  2.21678272e-01 -4.24866136e-01
  1.41165079e-02  1.21312649e-01  7.14830002e-01  9.96474666e-03  2.21673146e-01
  3.91120432e-01  1.66556166e-01  1.21312709e-01  7.14829497e-01  9.96501223e-03
 -4.56102388e-01  2.71235293e-02 -1.45222092e-01  9.11497396e-08  2.31240012e-07
  6.58596824e-01 -1.07868050e+00  3.53628331e-02 -3.82961989e-06 -1.30777665e+00
  2.14193583e+00 -7.02187490e-02  2.60656754e-06  4.40151429e-02 -7.20893063e-02
  2.36255763e-03 -5.70730396e-02  9.56471274e-02 -6.46616061e-01 -6.20961653e-01
 -3.99209383e-01 -6.02218145e-01 -9.07126257e-01  2.28477787e-01 -3.03760534e-01
  9.43527251e-01 -4.16973578e-01  2.68862736e-01  4.04987714e-01 -1.02004559e-01
  2.46723562e-01  2.51521701e-01  3.51805716e-01  3.33357890e-01  5.02136945e-01
 -1.26473621e-01 -5.92802047e-01 -1.30713467e-01  3.02764152e-02  2.44590719e-08
  3.95257661e-08  9.93571406e-01  6.22158904e-01  4.73589837e-01 -1.08362734e-07
 -1.97294179e+00 -1.23542500e+00 -9.40410704e-01 -1.21068264e-06  6.63999444e-02
  4.15785402e-02  3.16500368e-02  4.11524584e-01  2.93762791e-01  5.08723482e-01
 -6.49523944e-01  1.97867594e-01  3.72364578e-02  5.60890944e-02 -1.41268864e-02
  1.39423951e-01  6.45014644e-03  8.12775428e-02 -5.40159770e-01 -8.13639423e-01
  2.04930448e-01 -2.25453284e-01 -6.85526474e-01 -6.43266860e-01  5.02924122e-01
  7.57551396e-01 -1.90803345e-01 -8.94337233e-01  6.51862018e-02  9.46934578e-02
  2.14960930e+00 -2.28331474e+00 -9.81031070e-03 -5.09552356e-03  2.72755495e-02
  4.31266479e-01  4.43098162e-02  2.30143128e-02 -1.23193793e-01  9.33424823e-02
  1.89396886e-02  9.83758130e-03 -5.26581033e-02 -3.47157495e-02  2.35622371e-02
  1.22386844e-02 -3.09375544e-03 -4.40122540e-03 -3.37561357e-03 -1.78187711e-01
  3.32785457e-02 -4.48011198e-02  1.14294437e-01 -3.60434700e-02 -3.37592937e-03
 -1.78189173e-01  3.32789752e-02 -4.47998506e-02 -9.35744796e-02 -7.48770483e-02
 -3.37599470e-03 -1.78189239e-01  3.32789382e-02  1.27860859e-01 -8.47786543e-04
  4.54713698e-03
Total SCF Density                          R   N=         666
  6.47376078e-01  5.64430450e-01  5.08483992e-01  4.08456866e-03  6.40924461e-03
  8.95508586e-02  2.12160709e-03  3.32909139e-03  2.52706426e-03  8.59981267e-02
 -1.13564037e-02 -1.78197445e-02 -1.35269367e-02 -7.02598859e-03  1.22294610e-01
 -1.08472479e-01 -1.84395397e-01 -1.88725478e-02 -9.80276742e-03  5.24716872e-02
  5.11443944e-01  4.46045362e-03  7.97954520e-03  1.38961505e-01  3.48460603e-03
 -1.86525654e-02 -2.70404441e-02  2.15687944e-01  2.31684838e-03  4.14473310e-03
  3.48460762e-03  1.34062577e-01 -9.68827281e-03 -1.40453110e-02  4.75263883e-03
  2.09006299e-01 -1.24014797e-02 -2.21856712e-02 -1.86525648e-02 -9.68826807e-03
  1.84112513e-01  7.51810020e-02 -2.54402668e-02 -1.32138385e-02  2.77269469e-01
 -8.69613020e-02 -1.43801110e-01 -3.14910920e-02 -1.63569815e-02  8.75550038e-02
  3.91106130e-01 -4.63059437e-02 -2.40520422e-02  1.28744850e-01  3.20538929e-01
  9.34362496e-03  1.59042280e-02  1.01992402e-01  8.42900690e-03 -4.51198225e-02
 -4.86648350e-02  1.57640800e-01  1.23117736e-02 -6.59041250e-02 -6.73117025e-02
  1.24123993e-01  4.85322054e-03  8.26089714e-03  8.42903723e-03  9.01423689e-02
 -2.34357498e-02 -2.52772427e-02  1.23118180e-02  1.40332113e-01 -3.42313521e-02
 -3.49626512e-02  1.93569760e-02  9.69109176e-02 -2.59781961e-02 -4.42187212e-02
 -4.51198326e-02 -2.34356707e-02  2.11211068e-01  1.35303439e-01 -6.59041401e-02
 -3.42312364e-02  3.17170687e-01  1.87147400e-01 -1.03615883e-01 -5.38192781e-02
  3.74940438e-01  1.66622234e-03  2.70749497e-03 -3.16393492e-03 -2.68764649e-03
 -8.23325839e-03 -7.50016400e-03 -5.08053244e-03 -4.26970189e-03 -1.24700995e-02
 -7.94705144e-03 -1.44745930e-03 -1.80938622e-03 -1.32224489e-02  9.01198742e-04
 -1.13089380e-03 -1.83762378e-03 -7.39483596e-03 -9.32915622e-04  1.64087961e-03
  5.09049061e-03 -1.14538018e-02 -1.40776552e-03  2.29940700e-03  5.39379771e-03
 -8.68134620e-03 -1.56410071e-03  4.97684838e-03  2.16098588e-04  6.40461751e-04
 -5.87403665e-04 -9.54491434e-04 -9.32906129e-04 -1.25377121e-02 -3.53498362e-04
  2.64408690e-03 -1.40774961e-03 -1.95544950e-02 -6.88733164e-04  2.80163306e-03
 -1.56407970e-03 -1.30190804e-02  1.36389306e-03  5.03352657e-04  1.88145342e-04
  1.85519310e-03  1.48499919e-04  2.41300730e-04  1.02998638e-02 -2.91993978e-03
  2.57143101e-03 -6.68436954e-04  1.60727720e-02 -4.56650003e-03  4.05033488e-03
 -7.08282228e-04  1.05876144e-02 -2.87582135e-03  2.16884309e-03 -5.51300737e-04
 -8.11187586e-04  3.11328349e-04  1.43066103e-03  2.11257817e-04  3.43277836e-04
  1.38172906e-03 -3.17888295e-03 -9.32920945e-04 -9.50931258e-04  2.14015221e-03
 -4.97361630e-03 -1.40777368e-03 -1.00762093e-03  1.62208685e-03 -3.10367178e-03
 -1.56413055e-03  1.26934287e-04 -9.48672747e-05  4.63900769e-04  2.48170607e-04
  1.50496503e-04 -1.58697516e-02 -2.63562379e-02 -2.29046395e-02  6.56240314e-02
 -2.68225608e-02  6.91472440e-02 -3.61494627e-02  1.02287342e-01 -4.08334403e-02
  3.77088373e-02 -1.81056271e-02  6.91041548e-02 -4.13182164e-02 -1.30104415e-04
  1.78286956e-03 -8.81873191e-03 -5.99758530e-03 -2.73315406e-03  7.59929950e-02
 -1.76402984e-02 -2.92943531e-02 -4.00119439e-02  9.62728748e-02 -2.54149493e-02
  7.71525556e-02 -6.28115660e-02  1.50179521e-01 -3.87859281e-02  4.41720186e-02