
    -----------------------------------------------------------------------
          Psi4: An Open-Source Ab Initio Electronic Structure Package
                               Psi4 1.3.2 release

                         Git: Rev {HEAD} ecbda83 


    R. M. Parrish, L. A. Burns, D. G. A. Smith, A. C. Simmonett,
    A. E. DePrince III, E. G. Hohenstein, U. Bozkaya, A. Yu. Sokolov,
    R. Di Remigio, R. M. Richard, J. F. Gonthier, A. M. James,
    H. R. McAlexander, A. Kumar, M. Saitow, X. Wang, B. P. Pritchard,
    P. Verma, H. F. Schaefer III, K. Patkowski, R. A. King, E. F. Valeev,
    F. A. Evangelista, J. M. Turney, T. D. Crawford, and C. D. Sherrill,
    J. Chem. Theory Comput. 13(7) pp 3185--3197 (2017).
    (doi: 10.1021/acs.jctc.7b00174)


                         Additional Contributions by
    P. Kraus, H. Kruse, M. H. Lechner, M. C. Schieber, R. A. Shaw,
    A. Alenaizan, R. Galvelis, Z. L. Glick, S. Lehtola, and J. P. Misiewicz

    -----------------------------------------------------------------------


    Psi4 started on: Sunday, 29 December 2019 02:06PM

    Process ID: 2193
    Host:       bme-nova.bme.utexas.edu
    PSIDATADIR: /home/bdw2292/miniconda3/envs/p4env/share/psi4
    Memory:     500.0 MiB
    Threads:    1
    
  ==> Input File <==

--------------------------------------------------------------------------
molecule { 
0 1
N           -0.022967689517    -0.011930090337     0.063857632847
H           -0.336675337392     0.884093204260    -0.300264078375
H           -0.336661847712    -0.716065413442    -0.599196935949
H            0.992458308051    -0.002266936967     0.012200696405
}
memory 700MB
set_num_threads(1)
psi4_io.set_default_path("/scratch/bdw2292")
set freeze_core True
E, wfn = energy('mp2/6-311++G(2d,2p)',return_wfn=True)
oeprop(wfn,"DIPOLE","GRID_ESP")
clean()
--------------------------------------------------------------------------

  Memory set to 667.572 MiB by Python driver.
  Threads set to 1 by Python driver.
    SCF Algorithm Type (re)set to DF.

*** tstart() called on bme-nova.bme.utexas.edu
*** at Sun Dec 29 14:06:15 2019

   => Loading Basis Set <=

    Name: 6-311++G(2D,2P)
    Role: ORBITAL
    Keyword: BASIS
    atoms 1   entry N          line   153 file /home/bdw2292/miniconda3/envs/p4env/share/psi4/basis/6-311ppg_2d_2p_.gbs 
    atoms 2-4 entry H          line    45 file /home/bdw2292/miniconda3/envs/p4env/share/psi4/basis/6-311ppg_2d_2p_.gbs 


         ---------------------------------------------------------
                                   SCF
               by Justin Turney, Rob Parrish, Andy Simmonett
                          and Daniel G. A. Smith
                              RHF Reference
                        1 Threads,    667 MiB Core
         ---------------------------------------------------------

  ==> Geometry <==

    Molecular point group: c1
    Full point group: C1

    Geometry (in Angstrom), charge = 0, multiplicity = 1:

       Center              X                  Y                   Z               Mass       
    ------------   -----------------  -----------------  -----------------  -----------------
         N           -0.022967689517    -0.011930090337     0.063857632847    14.003074004430
         H           -0.336675337392     0.884093204260    -0.300264078375     1.007825032230
         H           -0.336661847712    -0.716065413442    -0.599196935949     1.007825032230
         H            0.992458308051    -0.002266936967     0.012200696405     1.007825032230

  Running in c1 symmetry.

  Rotational constants: A =      9.86007  B =      9.86003  C =      6.31229 [cm^-1]
  Rotational constants: A = 295597.43338  B = 295596.31366  C = 189237.65026 [MHz]
  Nuclear repulsion =   11.904504568548624

  Charge       = 0
  Multiplicity = 1
  Electrons    = 10
  Nalpha       = 5
  Nbeta        = 5

  ==> Algorithm <==

  SCF Algorithm Type is DF.
  DIIS enabled.
  MOM disabled.
  Fractional occupation disabled.
  Guess Type is SAD.
  Energy threshold   = 1.00e-08
  Density threshold  = 1.00e-08
  Integral threshold = 0.00e+00

  ==> Primary Basis <==

  Basis Set: 6-311++G(2D,2P)
    Blend: 6-311++G(2D,2P)
    Number of shells: 29
    Number of basis function: 57
    Number of Cartesian functions: 59
    Spherical Harmonics?: true
    Max angular momentum: 2

   => Loading Basis Set <=

    Name: (6-311++G(2D,2P) AUX)
    Role: JKFIT
    Keyword: DF_BASIS_SCF
    atoms 1   entry N          line   224 file /home/bdw2292/miniconda3/envs/p4env/share/psi4/basis/aug-cc-pvtz-jkfit.gbs 
    atoms 2-4 entry H          line    70 file /home/bdw2292/miniconda3/envs/p4env/share/psi4/basis/aug-cc-pvtz-jkfit.gbs 

  ==> Pre-Iterations <==

   -------------------------------------------------------
    Irrep   Nso     Nmo     Nalpha   Nbeta   Ndocc  Nsocc
   -------------------------------------------------------
     A         57      57       0       0       0       0
   -------------------------------------------------------
    Total      57      57       5       5       5       0
   -------------------------------------------------------

  ==> Integral Setup <==

  DFHelper Memory: AOs need 0.007 GiB; user supplied 0.489 GiB. Using in-core AOs.

  ==> MemDFJK: Density-Fitted J/K Matrices <==

    J tasked:                   Yes
    K tasked:                   Yes
    wK tasked:                   No
    OpenMP threads:               1
    Memory [MiB]:               500
    Algorithm:                 Core
    Schwarz Cutoff:           1E-12
    Mask sparsity (%):       0.0000
    Fitting Condition:        1E-10

   => Auxiliary Basis Set <=

  Basis Set: (6-311++G(2D,2P) AUX)
    Blend: AUG-CC-PVTZ-JKFIT
    Number of shells: 72
    Number of basis function: 242
    Number of Cartesian functions: 296
    Spherical Harmonics?: true
    Max angular momentum: 4

  Minimum eigenvalue in the overlap matrix is 1.7432635558E-03.
  Using Symmetric Orthogonalization.

  SCF Guess: Superposition of Atomic Densities via on-the-fly atomic UHF.

  ==> Iterations <==

                           Total Energy        Delta E     RMS |[F,P]|

   @DF-RHF iter SAD:   -55.63092820826334   -5.56309e+01   0.00000e+00 
   @DF-RHF iter   1:   -56.11932623944973   -4.88398e-01   8.13966e-03 DIIS
   @DF-RHF iter   2:   -56.18842010034834   -6.90939e-02   4.67981e-03 DIIS
   @DF-RHF iter   3:   -56.21665969051001   -2.82396e-02   4.25776e-04 DIIS
   @DF-RHF iter   4:   -56.21728938159864   -6.29691e-04   7.99890e-05 DIIS
   @DF-RHF iter   5:   -56.21731000605818   -2.06245e-05   1.46666e-05 DIIS
   @DF-RHF iter   6:   -56.21731110625976   -1.10020e-06   3.33674e-06 DIIS
   @DF-RHF iter   7:   -56.21731117047641   -6.42166e-08   7.01140e-07 DIIS
   @DF-RHF iter   8:   -56.21731117335192   -2.87552e-09   1.05990e-07 DIIS
   @DF-RHF iter   9:   -56.21731117341399   -6.20659e-11   2.79428e-08 DIIS
   @DF-RHF iter  10:   -56.21731117341872   -4.73221e-12   5.60664e-09 DIIS
  Energy and wave function converged.


  ==> Post-Iterations <==

    Orbital Energies [Eh]
    ---------------------

    Doubly Occupied:                                                      

       1A    -15.542232     2A     -1.141114     3A     -0.627076  
       4A     -0.627075     5A     -0.429998  

    Virtual:                                                              

       6A      0.043100     7A      0.073035     8A      0.073035  
       9A      0.178929    10A      0.217647    11A      0.217647  
      12A      0.241910    13A      0.302266    14A      0.302266  
      15A      0.316032    16A      0.638470    17A      0.638472  
      18A      0.733825    19A      0.733826    20A      0.794243  
      21A      0.836843    22A      0.885913    23A      0.885913  
      24A      1.055635    25A      1.101295    26A      1.197815  
      27A      1.197815    28A      1.302408    29A      1.512520  
      30A      1.512521    31A      1.638732    32A      1.780062  
      33A      1.780063    34A      1.874620    35A      2.055206  
      36A      2.055207    37A      2.966988    38A      2.966988  
      39A      3.112812    40A      4.060126    41A      4.060130  
      42A      4.066591    43A      4.121295    44A      4.166037  
      45A      4.166039    46A      4.209448    47A      4.209451  
      48A      4.442573    49A      4.831979    50A      5.387338  
      51A      5.387341    52A      5.555331    53A      5.555333  
      54A      5.661977    55A      6.366415    56A      6.366420  
      57A     36.984408  

    Final Occupation by Irrep:
              A 
    DOCC [     5 ]

  @DF-RHF Final Energy:   -56.21731117341872

   => Energetics <=

    Nuclear Repulsion Energy =             11.9045045685486244
    One-Electron Energy =                 -99.5086421835261490
    Two-Electron Energy =                  31.3868264415588065
    Total Energy =                        -56.2173111734187216

Computation Completed


Properties will be evaluated at   0.000000,   0.000000,   0.000000 [a0]

Properties computed using the SCF density matrix

  Nuclear Dipole Moment: [e a0]
     X:     0.2992      Y:     0.1554      Z:    -0.8320

  Electronic Dipole Moment: [e a0]
     X:    -0.0766      Y:    -0.0398      Z:     0.2130

  Dipole Moment: [e a0]
     X:     0.2226      Y:     0.1156      Z:    -0.6189     Total:     0.6678

  Dipole Moment: [D]
     X:     0.5658      Y:     0.2939      Z:    -1.5732     Total:     1.6975


*** tstop() called on bme-nova.bme.utexas.edu at Sun Dec 29 14:06:15 2019
Module time:
	user time   =       0.71 seconds =       0.01 minutes
	system time =       0.01 seconds =       0.00 minutes
	total time  =          0 seconds =       0.00 minutes
Total time:
	user time   =       0.71 seconds =       0.01 minutes
	system time =       0.01 seconds =       0.00 minutes
	total time  =          0 seconds =       0.00 minutes

*** tstart() called on bme-nova.bme.utexas.edu
*** at Sun Dec 29 14:06:15 2019


  //>>>>>>>>>>>>>>>>>>>>>>>>>>>>>>>>>>>//
  //               DFMP2               //
  //<<<<<<<<<<<<<<<<<<<<<<<<<<<<<<<<<<<//

   => Loading Basis Set <=

    Name: (6-311++G(2D,2P) AUX)
    Role: RIFIT
    Keyword: DF_BASIS_MP2
    atoms 1   entry N          line   206 file /home/bdw2292/miniconda3/envs/p4env/share/psi4/basis/aug-cc-pvtz-ri.gbs 
    atoms 2-4 entry H          line    30 file /home/bdw2292/miniconda3/envs/p4env/share/psi4/basis/aug-cc-pvtz-ri.gbs 

	 --------------------------------------------------------
	                          DF-MP2                         
	      2nd-Order Density-Fitted Moller-Plesset Theory     
	              RMP2 Wavefunction,   1 Threads             
	                                                         
	        Rob Parrish, Justin Turney, Andy Simmonett,      
	           Ed Hohenstein, and C. David Sherrill          
	 --------------------------------------------------------

   => Auxiliary Basis Set <=

  Basis Set: (6-311++G(2D,2P) AUX)
    Blend: AUG-CC-PVTZ-RI
    Number of shells: 70
    Number of basis function: 244
    Number of Cartesian functions: 301
    Spherical Harmonics?: true
    Max angular momentum: 4

	 --------------------------------------------------------
	                 NBF =    57, NAUX =   244
	 --------------------------------------------------------
	   CLASS    FOCC     OCC    AOCC    AVIR     VIR    FVIR
	   PAIRS       1       5       4      52      52       0
	 --------------------------------------------------------

	-----------------------------------------------------------
	 ==================> DF-MP2 Energies <==================== 
	-----------------------------------------------------------
	 Reference Energy          =     -56.2173111734187216 [Eh]
	 Singles Energy            =      -0.0000000000000000 [Eh]
	 Same-Spin Energy          =      -0.0495096700068029 [Eh]
	 Opposite-Spin Energy      =      -0.1665423182741015 [Eh]
	 Correlation Energy        =      -0.2160519882809043 [Eh]
	 Total Energy              =     -56.4333631616996243 [Eh]
	-----------------------------------------------------------
	 ================> DF-SCS-MP2 Energies <================== 
	-----------------------------------------------------------
	 SCS Same-Spin Scale       =       0.3333333333333333 [-]
	 SCS Opposite-Spin Scale   =       1.2000000000000000 [-]
	 SCS Same-Spin Energy      =      -0.0165032233356010 [Eh]
	 SCS Opposite-Spin Energy  =      -0.1998507819289218 [Eh]
	 SCS Correlation Energy    =      -0.2163540052645227 [Eh]
	 SCS Total Energy          =     -56.4336651786832419 [Eh]
	-----------------------------------------------------------


*** tstop() called on bme-nova.bme.utexas.edu at Sun Dec 29 14:06:16 2019
Module time:
	user time   =       0.19 seconds =       0.00 minutes
	system time =       0.01 seconds =       0.00 minutes
	total time  =          1 seconds =       0.02 minutes
Total time:
	user time   =       0.90 seconds =       0.02 minutes
	system time =       0.02 seconds =       0.00 minutes
	total time  =          1 seconds =       0.02 minutes


Properties will be evaluated at   0.000000,   0.000000,   0.000000 [a0]
OEProp: No title given, name of density matrix used for the following properties is 'SCF density'
  Nuclear Dipole Moment: [e a0]
     X:     0.2992      Y:     0.1554      Z:    -0.8320

  Electronic Dipole Moment: [e a0]
     X:    -0.0766      Y:    -0.0398      Z:     0.2130

  Dipole Moment: [e a0]
     X:     0.2226      Y:     0.1156      Z:    -0.6189     Total:     0.6678

  Dipole Moment: [D]
     X:     0.5658      Y:     0.2939      Z:    -1.5732     Total:     1.6975


 Electrostatic potential computed on the grid and written to grid_esp.dat

    Psi4 stopped on: Sunday, 29 December 2019 02:06PM
    Psi4 wall time for execution: 0:00:04.05

*** Psi4 exiting successfully. Buy a developer a beer!
