methylamine Gaussian SP Calculation on bme-nova.bme.utexas.edu          
SP        RMP2-FC                                                     6-311++G(2d,2p)     
Number of atoms                            I                7
Info1-9                                    I   N=           9
          18          18           0           0           0         110
           1           2           1
Charge                                     I                0
Multiplicity                               I                1
Number of electrons                        I               18
Number of alpha electrons                  I                9
Number of beta electrons                   I                9
Number of basis functions                  I              104
Number of independent functions            I              104
Number of point charges in /Mol/           I                0
Number of translation vectors              I                0
Atomic numbers                             I   N=           7
           7           6           1           1           1           1
           1
Nuclear charges                            R   N=           7
  7.00000000E+00  6.00000000E+00  1.00000000E+00  1.00000000E+00  1.00000000E+00
  1.00000000E+00  1.00000000E+00
Current cartesian coordinates              R   N=          21
  1.41291610E+00  3.84296737E-07 -2.35926639E-01 -1.32838487E+00  2.49760575E-07
  3.09782805E-02 -1.98469243E+00 -6.99198669E-05  1.98100746E+00 -2.10486578E+00
 -1.65207039E+00 -8.97449838E-01 -2.10485067E+00  1.65214598E+00 -8.97325116E-01
  2.13715175E+00 -1.50858916E+00  6.39696862E-01  2.13714987E+00  1.50858916E+00
  6.39698752E-01
Force Field                                I                0
Int Atom Types                             I   N=           7
           0           0           0           0           0           0
           0
MM charges                                 R   N=           7
  0.00000000E+00  0.00000000E+00  0.00000000E+00  0.00000000E+00  0.00000000E+00
  0.00000000E+00  0.00000000E+00
Integer atomic weights                     I   N=           7
          14          12           1           1           1           1
           1
Real atomic weights                        R   N=           7
  1.40030740E+01  1.20000000E+01  1.00782504E+00  1.00782504E+00  1.00782504E+00
  1.00782504E+00  1.00782504E+00
Atom fragment info                         I   N=           7
           0           0           0           0           0           0
           0
Atom residue num                           I   N=           7
           0           0           0           0           0           0
           0
Nuclear spins                              I   N=           7
           2           0           1           1           1           1
           1
Nuclear ZEff                               R   N=           7
 -4.55000000E+00 -3.60000000E+00 -1.00000000E+00 -1.00000000E+00 -1.00000000E+00
 -1.00000000E+00 -1.00000000E+00
Nuclear QMom                               R   N=           7
  2.04400000E+00  0.00000000E+00  0.00000000E+00  0.00000000E+00  0.00000000E+00
  0.00000000E+00  0.00000000E+00
Nuclear GFac                               R   N=           7
  4.03761000E-01  0.00000000E+00  2.79284600E+00  2.79284600E+00  2.79284600E+00
  2.79284600E+00  2.79284600E+00
MicOpt                                     I   N=           7
          -1          -1          -1          -1          -1          -1
          -1
Number of contracted shells                I               44
Number of primitive shells                 I               68
Pure/Cartesian d shells                    I                0
Pure/Cartesian f shells                    I                0
Highest angular momentum                   I                2
Largest degree of contraction              I                6
Shell types                                I   N=          44
           0          -1          -1          -1          -1          -2
          -2           0          -1          -1          -1          -1
          -2          -2           0           0           0           0
           1           1           0           0           0           0
           1           1           0           0           0           0
           1           1           0           0           0           0
           1           1           0           0           0           0
           1           1
Number of primitives per shell             I   N=          44
           6           3           1           1           1           1
           1           6           3           1           1           1
           1           1           3           1           1           1
           1           1           3           1           1           1
           1           1           3           1           1           1
           1           1           3           1           1           1
           1           1           3           1           1           1
           1           1
Shell to atom map                          I   N=          44
           1           1           1           1           1           1
           1           2           2           2           2           2
           2           2           3           3           3           3
           3           3           4           4           4           4
           4           4           5           5           5           5
           5           5           6           6           6           6
           6           6           7           7           7           7
           7           7
Primitive exponents                        R   N=          68
  6.29348000E+03  9.49044000E+02  2.18776000E+02  6.36916000E+01  1.88282000E+01
  2.72023000E+00  3.06331000E+01  7.02614000E+00  2.11205000E+00  6.84009000E-01
  2.00878000E-01  6.39000000E-02  1.82600000E+00  4.56500000E-01  4.56324000E+03
  6.82024000E+02  1.54973000E+02  4.44553000E+01  1.30290000E+01  1.82773000E+00
  2.09642000E+01  4.80331000E+00  1.45933000E+00  4.83456000E-01  1.45585000E-01
  4.38000000E-02  1.25200000E+00  3.13000000E-01  3.38650000E+01  5.09479000E+00
  1.15879000E+00  3.25840000E-01  1.02741000E-01  3.60000000E-02  1.50000000E+00
  3.75000000E-01  3.38650000E+01  5.09479000E+00  1.15879000E+00  3.25840000E-01
  1.02741000E-01  3.60000000E-02  1.50000000E+00  3.75000000E-01  3.38650000E+01
  5.09479000E+00  1.15879000E+00  3.25840000E-01  1.02741000E-01  3.60000000E-02
  1.50000000E+00  3.75000000E-01  3.38650000E+01  5.09479000E+00  1.15879000E+00
  3.25840000E-01  1.02741000E-01  3.60000000E-02  1.50000000E+00  3.75000000E-01
  3.38650000E+01  5.09479000E+00  1.15879000E+00  3.25840000E-01  1.02741000E-01
  3.60000000E-02  1.50000000E+00  3.75000000E-01
Contraction coefficients                   R   N=          68
  1.96978815E-03  1.49612859E-02  7.35005308E-02  2.48936766E-01  6.02459433E-01
  2.56201759E-01  1.11906080E-01  9.21666655E-01 -2.56919183E-03  1.00000000E+00
  1.00000000E+00  1.00000000E+00  1.00000000E+00  1.00000000E+00  1.96665025E-03
  1.52306019E-02  7.61269097E-02  2.60801033E-01  6.16462078E-01  2.21006028E-01
  1.14660081E-01  9.19999648E-01 -3.03068213E-03  1.00000000E+00  1.00000000E+00
  1.00000000E+00  1.00000000E+00  1.00000000E+00  2.54938145E-02  1.90373109E-01
  8.52161486E-01  1.00000000E+00  1.00000000E+00  1.00000000E+00  1.00000000E+00
  1.00000000E+00  2.54938145E-02  1.90373109E-01  8.52161486E-01  1.00000000E+00
  1.00000000E+00  1.00000000E+00  1.00000000E+00  1.00000000E+00  2.54938145E-02
  1.90373109E-01  8.52161486E-01  1.00000000E+00  1.00000000E+00  1.00000000E+00
  1.00000000E+00  1.00000000E+00  2.54938145E-02  1.90373109E-01  8.52161486E-01
  1.00000000E+00  1.00000000E+00  1.00000000E+00  1.00000000E+00  1.00000000E+00
  2.54938145E-02  1.90373109E-01  8.52161486E-01  1.00000000E+00  1.00000000E+00
  1.00000000E+00  1.00000000E+00  1.00000000E+00
P(S=P) Contraction coefficients            R   N=          68
  0.00000000E+00  0.00000000E+00  0.00000000E+00  0.00000000E+00  0.00000000E+00
  0.00000000E+00  3.83119186E-02  2.37403116E-01  8.17592398E-01  1.00000000E+00
  1.00000000E+00  1.00000000E+00  0.00000000E+00  0.00000000E+00  0.00000000E+00
  0.00000000E+00  0.00000000E+00  0.00000000E+00  0.00000000E+00  0.00000000E+00
  4.02486927E-02  2.37593957E-01  8.15853851E-01  1.00000000E+00  1.00000000E+00
  1.00000000E+00  0.00000000E+00  0.00000000E+00  0.00000000E+00  0.00000000E+00
  0.00000000E+00  0.00000000E+00  0.00000000E+00  0.00000000E+00  0.00000000E+00
  0.00000000E+00  0.00000000E+00  0.00000000E+00  0.00000000E+00  0.00000000E+00
  0.00000000E+00  0.00000000E+00  0.00000000E+00  0.00000000E+00  0.00000000E+00
  0.00000000E+00  0.00000000E+00  0.00000000E+00  0.00000000E+00  0.00000000E+00
  0.00000000E+00  0.00000000E+00  0.00000000E+00  0.00000000E+00  0.00000000E+00
  0.00000000E+00  0.00000000E+00  0.00000000E+00  0.00000000E+00  0.00000000E+00
  0.00000000E+00  0.00000000E+00  0.00000000E+00  0.00000000E+00  0.00000000E+00
  0.00000000E+00  0.00000000E+00  0.00000000E+00
Coordinates of each shell                  R   N=         132
  1.41291631E+00  0.00000000E+00 -2.35927268E-01  1.41291631E+00  0.00000000E+00
 -2.35927268E-01  1.41291631E+00  0.00000000E+00 -2.35927268E-01  1.41291631E+00
  0.00000000E+00 -2.35927268E-01  1.41291631E+00  0.00000000E+00 -2.35927268E-01
  1.41291631E+00  0.00000000E+00 -2.35927268E-01  1.41291631E+00  0.00000000E+00
 -2.35927268E-01 -1.32838466E+00  0.00000000E+00  3.09776506E-02 -1.32838466E+00
  0.00000000E+00  3.09776506E-02 -1.32838466E+00  0.00000000E+00  3.09776506E-02
 -1.32838466E+00  0.00000000E+00  3.09776506E-02 -1.32838466E+00  0.00000000E+00
  3.09776506E-02 -1.32838466E+00  0.00000000E+00  3.09776506E-02 -1.32838466E+00
  0.00000000E+00  3.09776506E-02 -1.98469222E+00 -7.01374176E-05  1.98100683E+00
 -1.98469222E+00 -7.01374176E-05  1.98100683E+00 -1.98469222E+00 -7.01374176E-05
  1.98100683E+00 -1.98469222E+00 -7.01374176E-05  1.98100683E+00 -1.98469222E+00
 -7.01374176E-05  1.98100683E+00 -1.98469222E+00 -7.01374176E-05  1.98100683E+00
 -2.10486566E+00 -1.65207061E+00 -8.97450468E-01 -2.10486566E+00 -1.65207061E+00
 -8.97450468E-01 -2.10486566E+00 -1.65207061E+00 -8.97450468E-01 -2.10486566E+00
 -1.65207061E+00 -8.97450468E-01 -2.10486566E+00 -1.65207061E+00 -8.97450468E-01
 -2.10486566E+00 -1.65207061E+00 -8.97450468E-01 -2.10485038E+00  1.65214577E+00
 -8.97325746E-01 -2.10485038E+00  1.65214577E+00 -8.97325746E-01 -2.10485038E+00
  1.65214577E+00 -8.97325746E-01 -2.10485038E+00  1.65214577E+00 -8.97325746E-01
 -2.10485038E+00  1.65214577E+00 -8.97325746E-01 -2.10485038E+00  1.65214577E+00
 -8.97325746E-01  2.13715189E+00 -1.50858958E+00  6.39696233E-01  2.13715189E+00
 -1.50858958E+00  6.39696233E-01  2.13715189E+00 -1.50858958E+00  6.39696233E-01
  2.13715189E+00 -1.50858958E+00  6.39696233E-01  2.13715189E+00 -1.50858958E+00
  6.39696233E-01  2.13715189E+00 -1.50858958E+00  6.39696233E-01  2.13715015E+00
  1.50858874E+00  6.39698122E-01  2.13715015E+00  1.50858874E+00  6.39698122E-01
  2.13715015E+00  1.50858874E+00  6.39698122E-01  2.13715015E+00  1.50858874E+00
  6.39698122E-01  2.13715015E+00  1.50858874E+00  6.39698122E-01  2.13715015E+00
  1.50858874E+00  6.39698122E-01
Constraint Structure                       R   N=          21
  1.41291631E+00  0.00000000E+00 -2.35927268E-01 -1.32838466E+00  0.00000000E+00
  3.09776506E-02 -1.98469222E+00 -7.01374176E-05  1.98100683E+00 -2.10486566E+00
 -1.65207061E+00 -8.97450468E-01 -2.10485038E+00  1.65214577E+00 -8.97325746E-01
  2.13715189E+00 -1.50858958E+00  6.39696233E-01  2.13715015E+00  1.50858874E+00
  6.39698122E-01
Num ILSW                                   I              100
ILSW                                       I   N=         100
           0           0           0           0           2           0
           0           0           0           0           0  2684354560
           0           0           0           0           0           0
           0           0           0           0           0           0
           1           0           0           0           0           0
           0           0      100000           0          -1           0
           0           0           0           0           0           0
           0           0           0           1           0           0
           0           0           1           0           0           0
           0           0           4          40           0           0
           0           0           0           0           0           0
           0           0           0           0           0           0
           0           0           0           0           0           0
           0           0           0           0           0           0
           0           0           0           0           0           0
           0           0           0           0           0           0
           0           0           0           0
Num RLSW                                   I               40
RLSW                                       R   N=          40
  1.00000000E+00  1.00000000E+00  1.00000000E+00  1.00000000E+00  1.00000000E+00
  0.00000000E+00  0.00000000E+00  1.00000000E+00  0.00000000E+00  0.00000000E+00
  0.00000000E+00  0.00000000E+00  1.00000000E+00  0.00000000E+00  0.00000000E+00
  0.00000000E+00  0.00000000E+00  1.00000000E+00  0.00000000E+00  0.00000000E+00
  0.00000000E+00  0.00000000E+00  1.00000000E+00  0.00000000E+00  0.00000000E+00
  0.00000000E+00  0.00000000E+00  1.00000000E+00  0.00000000E+00  0.00000000E+00
  0.00000000E+00  0.00000000E+00  0.00000000E+00  0.00000000E+00  0.00000000E+00
  0.00000000E+00  0.00000000E+00  0.00000000E+00  1.00000000E+00  1.00000000E+00
MxBond                                     I                4
NBond                                      I   N=           7
           3           4           1           1           1           1
           1
IBond                                      I   N=          28
           2           6           7           0           1           3
           4           5           2           0           0           0
           2           0           0           0           2           0
           0           0           1           0           0           0
           1           0           0           0
RBond                                      R   N=          28
  1.00000000E+00  1.00000000E+00  1.00000000E+00  0.00000000E+00  1.00000000E+00
  1.00000000E+00  1.00000000E+00  1.00000000E+00  1.00000000E+00  0.00000000E+00
  0.00000000E+00  0.00000000E+00  1.00000000E+00  0.00000000E+00  0.00000000E+00
  0.00000000E+00  1.00000000E+00  0.00000000E+00  0.00000000E+00  0.00000000E+00
  1.00000000E+00  0.00000000E+00  0.00000000E+00  0.00000000E+00  1.00000000E+00
  0.00000000E+00  0.00000000E+00  0.00000000E+00
Virial Ratio                               R      2.000104364649627E+00
SCF Energy                                 R     -9.525101345777065E+01
MP2 Energy                                 R     -9.562056029271318E+01
Total Energy                               R     -9.562056029271318E+01
Post-SCF wavefunction norm                 R      1.054341852067789E+00
RMS Density                                R      9.397713621299888E-09
External E-field                           R   N=          35
  0.00000000E+00  0.00000000E+00  0.00000000E+00  0.00000000E+00  0.00000000E+00
  0.00000000E+00  0.00000000E+00  0.00000000E+00  0.00000000E+00  0.00000000E+00
  0.00000000E+00  0.00000000E+00  0.00000000E+00  0.00000000E+00  0.00000000E+00
  0.00000000E+00  0.00000000E+00  0.00000000E+00  0.00000000E+00  0.00000000E+00
  0.00000000E+00  0.00000000E+00  0.00000000E+00  0.00000000E+00  0.00000000E+00
  0.00000000E+00  0.00000000E+00  0.00000000E+00  0.00000000E+00  0.00000000E+00
  0.00000000E+00  0.00000000E+00  0.00000000E+00  0.00000000E+00  0.00000000E+00
IOpCl                                      I                0
IROHF                                      I                0
Alpha Orbital Energies                     R   N=         104
 -1.55349907E+01 -1.12374214E+01 -1.17642110E+00 -8.99160068E-01 -6.67980222E-01
 -6.06251618E-01 -5.59278771E-01 -5.19682063E-01 -3.92056059E-01  4.00873911E-02
  6.19601554E-02  6.62739389E-02  7.57283962E-02  9.84390798E-02  1.26208320E-01
  1.60386608E-01  1.60440988E-01  1.85077886E-01  2.13856298E-01  2.40702257E-01
  2.48715112E-01  2.97634542E-01  3.02466339E-01  3.13696968E-01  3.25106932E-01
  3.58464284E-01  3.59428145E-01  4.49070589E-01  5.71423823E-01  5.79416740E-01
  6.50888655E-01  6.81159859E-01  7.28585324E-01  7.51034737E-01  7.63580112E-01
  7.76882747E-01  7.96009193E-01  8.19842321E-01  8.44794692E-01  8.57031201E-01
  9.24155512E-01  9.65866273E-01  1.04903545E+00  1.05638708E+00  1.11512076E+00
  1.12439216E+00  1.21102863E+00  1.29006276E+00  1.29120985E+00  1.33783871E+00
  1.38594275E+00  1.40145980E+00  1.45391978E+00  1.49409648E+00  1.51041232E+00
  1.58606886E+00  1.64363270E+00  1.68858099E+00  1.70204079E+00  1.74777974E+00
  1.78747512E+00  1.89448416E+00  1.90281884E+00  1.99514836E+00  2.15039591E+00
  2.18177172E+00  2.86052718E+00  2.90802102E+00  3.07460065E+00  3.23275268E+00
  3.24899512E+00  3.53733810E+00  3.57821020E+00  3.68087344E+00  3.72688038E+00
  3.73540211E+00  3.85658519E+00  3.96090604E+00  3.98203811E+00  4.12375320E+00
  4.18557169E+00  4.20624474E+00  4.20943288E+00  4.29986179E+00  4.30320261E+00
  4.32703001E+00  4.42451665E+00  4.43773720E+00  4.49099713E+00  4.49494812E+00
  4.58690420E+00  4.65473841E+00  4.85321154E+00  5.38236617E+00  5.44735808E+00
  5.51004688E+00  5.57143711E+00  5.60194413E+00  5.63124654E+00  5.65781808E+00
  6.07157546E+00  6.46192475E+00  2.51602950E+01  3.70448732E+01
Alpha MO coefficients                      R   N=       10816
  5.57639730E-01  4.68242191E-01 -4.73503228E-04 -3.53207815E-09  1.70471627E-03
  5.20806900E-03  1.74396929E-04  2.72923694E-09 -7.38562500E-04 -2.12136348E-03
  4.71904826E-04  7.58735497E-10  1.12803256E-04  1.39297036E-03 -2.18344732E-04
  3.13438053E-09 -7.75432223E-05  1.79077670E-06  1.73812098E-05  5.04156920E-11
 -1.51972993E-05 -3.57516202E-11  2.32500357E-04 -6.82657240E-05 -4.51908880E-11
 -7.69723568E-05  4.08951043E-10  9.74584791E-06 -4.07713416E-05  2.78937113E-05
 -4.99928533E-14 -5.74588391E-06  1.86881647E-04  4.76002824E-04 -6.97640841E-10
 -4.27234300E-05  7.91161729E-04  5.27756331E-04  1.81681616E-09 -2.08231757E-04
 -1.08107288E-03 -3.60923542E-04  4.73214462E-10  1.68521520E-04 -4.74853193E-05
 -1.98795164E-05  1.11239914E-10  8.05253171E-05 -2.75186070E-11 -1.00510217E-04
  4.70730641E-05  1.29262680E-11  1.65162220E-04 -3.81940451E-10  5.89526418E-06
  7.24809417E-05  3.36098626E-05 -6.27035477E-05  6.85040143E-06  1.62033957E-10
 -1.02745225E-05 -5.47608929E-05  3.02710099E-09 -3.99093857E-05  6.60013232E-06
 -5.50514115E-05 -9.90379832E-06  1.37955043E-04  1.38432925E-06  8.80108923E-06
 -9.54853354E-08 -7.70379774E-07  2.42683451E-06  4.48468875E-05  6.59989758E-06
 -5.50453743E-05 -9.90703938E-06  1.37947494E-04  1.38438988E-06 -8.80117044E-06
 -9.60125685E-08 -7.72038313E-07 -2.43060899E-06  4.48477500E-05  2.63044131E-04
  3.83366370E-04 -1.21998118E-04  3.27300332E-05 -4.83836607E-05  8.74841801E-05
 -3.34892806E-05 -3.90593169E-05  4.75129693E-05 -2.27858834E-05  2.63044164E-04
  3.83363831E-04 -1.22004643E-04  3.27257779E-05 -4.83837050E-05 -8.74841011E-05
 -3.34890800E-05 -3.90577671E-05 -4.75113235E-05 -2.27848801E-05 -8.90284424E-05
 -1.48298314E-04 -1.08002342E-04 -2.00956482E-11  1.35210768E-05  3.38546457E-04
 -4.95385295E-04 -2.93980291E-10  3.59629098E-05  5.92331500E-04 -1.73820094E-04
 -3.21843154E-09  1.21523901E-04  9.78780275E-04 -2.87770442E-04 -4.75461137E-10
  8.99429092E-05 -6.50055977E-05 -2.92929348E-05 -1.10373215E-10  1.24079632E-04
  8.83365376E-11 -2.14085545E-05 -2.56069695E-05  4.89445134E-10  4.04991480E-05
  2.20956206E-10  5.63379097E-01  4.66522184E-01  6.01541517E-04  9.85446511E-10
 -1.29243549E-05  4.73956518E-03 -7.03375652E-04  4.09879537E-09 -4.32291810E-06
  3.87969132E-04 -8.29587728E-04  2.64966751E-09 -9.26433831E-06 -8.50815855E-04
 -6.69473227E-05 -4.45601411E-09  2.94939257E-05 -1.64793310E-06  5.37977936E-06
 -2.39025968E-10 -3.41470728E-05 -2.03222551E-10  1.92500979E-04  5.01066987E-05
  7.11481369E-10 -3.59635701E-04  3.68213641E-10  4.29630541E-04 -5.52760171E-04
 -1.20488901E-04  6.16959657E-05  4.20874683E-05  4.03590965E-09 -1.12682046E-04
 -8.13768867E-05 -1.43140528E-08  3.96311423E-04  4.36225507E-04 -6.31593823E-04
 -1.33012227E-04  1.36489611E-04  4.57933942E-05  9.44025872E-05  5.27488043E-05
 -1.09883177E-04 -3.63159931E-04 -1.97667076E-04  4.36226418E-04 -6.31596735E-04
 -1.33008133E-04  1.36494911E-04  4.57924153E-05 -9.44065880E-05  5.27413947E-05
 -1.09879561E-04  3.63176624E-04 -1.97640127E-04 -6.79313184E-06 -4.37371512E-05
 -1.38946561E-04  1.75615276E-05  1.16917656E-05  9.33909282E-06 -1.42265533E-06
 -1.99544100E-05  3.04635813E-06 -2.31222639E-05 -6.79344972E-06 -4.37348958E-05
 -1.38943994E-04  1.75631101E-05  1.16920077E-05 -9.33962841E-06 -1.42174287E-06
 -1.99554393E-05 -3.04444017E-06 -2.31258096E-05 -9.93965457E-02 -1.64673591E-01
 -1.36080361E-02  2.53925428E-08  2.89109323E-02  4.37449415E-01 -3.40408109E-02
  1.93949462E-08  4.66317655E-02  2.83408522E-01 -3.96395102E-02  6.70209594E-08
 -3.84241340E-04 -5.44536169E-02  2.57172537E-02  1.02516191E-08  4.08643653E-03
 -3.63421552E-03  1.75701216E-03  8.84068678E-09  3.90911704E-04 -6.23449784E-09
 -4.20318616E-03 -4.04055595E-03  6.40394022E-09  8.98554838E-03  3.21638634E-08
 -5.00543868E-02 -8.23198554E-02  3.92358191E-02  7.56772330E-08 -1.62726929E-03
  2.04122167E-01  6.93369480E-02  1.53660375E-07 -3.97306103E-03  4.61282003E-02
  1.22416039E-02  1.19749599E-07  5.54710195E-03  7.83862360E-02  1.74362929E-02
 -5.35820515E-08 -5.48155263E-03 -4.95115832E-03 -1.04134860E-03 -3.14149176E-09
  8.24660050E-03 -4.72214448E-09 -8.02840718E-03  5.34612588E-04  1.40734161E-08
  1.11531616E-02 -1.09689939E-08  2.50083215E-02  4.41683135E-02 -9.30149679E-04
 -1.62362292E-03  1.43987563E-03  1.13859447E-07 -3.10430212E-03  4.06935320E-03
  2.75459996E-07 -8.07143487E-03  2.52455794E-02  4.27310841E-02  1.55910058E-03
 -8.63341584E-03  1.80921666E-03  2.56242238E-03  1.56634222E-03  2.94871035E-03
  5.64427093E-03  2.52797131E-03  2.52458074E-02  4.27311716E-02  1.55888179E-03
 -8.63292604E-03  1.80921287E-03 -2.56256238E-03  1.56616214E-03  2.94862045E-03
 -5.64448356E-03  2.52753282E-03  8.03034170E-02  9.96031085E-02  3.86399233E-03
 -6.43060636E-03 -4.99193498E-03  8.81071115E-03 -4.79083454E-03 -7.85950688E-03
  1.71607856E-02 -6.17514670E-03  8.03034992E-02  9.96030619E-02  3.86396951E-03
 -6.43056838E-03 -4.99193371E-03 -8.81071060E-03 -4.79085509E-03 -7.85947145E-03
 -1.71607837E-02 -6.17511089E-03  4.02232089E-02  6.71051902E-02 -7.04798576E-02
  8.21884596E-08 -2.44295667E-02 -1.83044230E-01 -1.12292385E-01  1.33393287E-07
 -3.79755654E-02 -1.24312317E-01 -5.86266129E-02  3.98044369E-08 -7.92392126E-03
 -4.05132125E-02  1.26903900E-02  6.42404035E-08 -5.03990057E-03 -8.52803677E-04
 -3.83775331E-03  2.06082454E-09  6.34477459E-03  6.90783045E-09 -5.10807580E-03
 -7.15911734E-03 -4.35999596E-09  9.91417376E-03 -2.40804212E-08 -8.91137501E-02
 -1.48126172E-01 -4.00599968E-02  2.68778259E-07 -2.32224631E-03  3.75659155E-01
 -5.27414049E-02  4.30476489E-07 -6.00371582E-03  2.05820967E-01 -1.74094564E-02
  1.90101365E-07 -7.06001016E-04  2.28659196E-02  1.00285317E-02 -3.12614009E-07
  5.03797696E-03  2.69414821E-03 -1.97323905E-04  5.91296815E-09 -4.90037181E-03
  1.81150137E-08 -8.41495209E-04 -5.92095287E-04  1.50433691E-07 -6.61826594E-03
 -8.89623667E-08  8.14635606E-02  1.20221956E-01  1.64639051E-02 -2.29214250E-03
  2.32851405E-03  3.15798330E-07 -8.61263590E-03  3.95346989E-03  5.61529271E-07
 -1.50605309E-02  8.51620222E-02  1.20118640E-01  2.04320107E-02  3.46557250E-03
  2.89023223E-03  7.40828802E-03  4.15732357E-03  3.49603077E-03  1.32744356E-02
  6.76539631E-03  8.51621895E-02  1.20118612E-01  2.04321632E-02  3.46587002E-03
  2.89016288E-03 -7.40863909E-03  4.15677417E-03  3.49601624E-03 -1.32748913E-02
  6.76437021E-03 -6.31615306E-02 -8.30299544E-02 -6.74641674E-03 -5.37986728E-03
  1.16759649E-03 -6.26459478E-03  3.35965907E-03  2.03051234E-03 -1.09583028E-02
  4.04813063E-03 -6.31614246E-02 -8.30297492E-02 -6.74643429E-03 -5.37979515E-03
  1.16758024E-03  6.26458630E-03  3.35965913E-03  2.03048611E-03  1.09582797E-02
  4.04809503E-03  1.75852421E-09  5.95591462E-09 -6.34021756E-08  1.82168424E-01
  2.01497725E-08 -3.38779493E-08 -4.58494583E-08  2.79002728E-01  1.22532598E-08
 -1.05132193E-08 -1.13226487E-07  1.58100884E-01 -1.41734998E-07 -2.53958045E-07
 -5.86221033E-08 -5.14960740E-03 -1.20726514E-07  5.66319794E-09 -4.96279185E-09
  1.23416455E-02 -7.68253845E-09  5.22700226E-03  4.23424473E-08  5.79189288E-08
  2.01067264E-02  3.08821668E-08 -5.50151095E-03  1.23070087E-07  2.13120608E-07
  2.09404299E-07  9.71245838E-02 -2.23611110E-07 -5.83870578E-07  3.44753022E-07
  1.50974947E-01 -2.66561865E-07 -1.00401065E-06  1.85221949E-07  8.26683828E-02
  2.39726461E-07 -3.98740503E-07  1.53809820E-08 -1.14366133E-03 -1.45748158E-08
 -6.52822089E-07 -4.15068293E-08 -6.48498250E-03 -4.13096533E-07  6.81612255E-04
 -1.03987783E-06 -9.03907200E-10 -1.00165677E-02 -4.95245581E-07  1.06152103E-02
 -2.95093550E-06 -4.45020906E-06 -1.46784932E-06  7.71033233E-08 -1.12331382E-07
  2.07475001E-03  2.73539603E-07 -5.52049873E-08  6.58781981E-03  5.75338746E-07
 -6.09699154E-02 -9.00613187E-02 -2.51099168E-02 -4.91562012E-03 -2.72754924E-03
 -2.85446749E-03 -2.72219796E-03 -6.93349188E-04 -3.49371275E-03 -6.93378406E-03
  6.09726653E-02  9.00658084E-02  2.51117447E-02  4.91570034E-03  2.72764110E-03
 -2.85490386E-03  2.72194692E-03  6.93619624E-04 -3.49471623E-03  6.93330993E-03
 -1.22455800E-01 -1.85645501E-01 -6.17187772E-02 -8.02977467E-03  5.85721457E-03
 -6.84379963E-03  7.20359867E-03  1.12852706E-02 -1.30274286E-02  1.37227493E-02
  1.22455778E-01  1.85645359E-01  6.17192253E-02  8.02981005E-03 -5.85721068E-03
 -6.84377562E-03 -7.20361995E-03 -1.12852706E-02 -1.30274074E-02 -1.37227641E-02
  1.67861894E-02  2.85294196E-02  1.08130125E-01  4.54059683E-07  9.98529886E-02
 -8.05627691E-02  1.72801765E-01  7.13938079E-07  1.54980888E-01 -1.53988036E-01
  1.15123019E-01  4.17683914E-07  1.05975147E-01  7.24634723E-02 -2.00517018E-02
 -1.59786251E-07  1.95829356E-02  4.11370898E-03  1.93428868E-03  1.58818633E-08
 -7.60958983E-03  6.25062273E-09  1.55131111E-02  6.60889208E-04  6.85059543E-08
 -1.24108998E-02 -7.50825702E-09 -3.01027248E-03 -5.05255820E-03 -9.21692271E-02
 -4.69388497E-08  1.35871083E-01  1.09044520E-02 -1.45815967E-01  8.76814377E-10
  2.09793791E-01  4.21080912E-02 -7.08381688E-02  4.38569315E-07  1.07337711E-01
 -7.13872251E-02 -1.99565597E-02  5.36776262E-07 -1.06044782E-02  1.43836743E-02
 -1.25422344E-03 -1.02350408E-06 -6.19603947E-03 -3.09216836E-08  1.88031252E-02
  7.73173618E-03 -1.34369257E-06 -8.72939463E-03 -5.00345079E-08  1.37376616E-01
  2.09335602E-01  8.07773019E-02  2.18270556E-02  2.95423653E-03  4.52605667E-07
 -9.75378674E-03 -9.34764928E-04  8.36848599E-07 -1.48542665E-02 -1.67978801E-02
 -3.54054525E-02 -1.77765651E-02 -1.35157790E-03 -2.65096369E-03 -1.46996206E-03
  2.03951878E-03 -4.51594426E-03 -5.91637041E-03  6.15225672E-03 -1.67915924E-02
 -3.53958364E-02 -1.77736017E-02 -1.35149053E-03 -2.65068155E-03  1.46953620E-03
  2.03990691E-03 -4.51585192E-03  5.91562803E-03  6.15344436E-03  5.55711015E-02
  9.93007170E-02  1.77460947E-02  6.71222863E-03  4.66134618E-04  5.05083130E-03
  1.62686878E-04 -3.31199489E-04  1.48077979E-02  2.01354719E-04  5.55717113E-02
  9.93016260E-02  1.77463267E-02  6.71237383E-03  4.66117274E-04 -5.05086691E-03
  1.62639712E-04 -3.31158970E-04 -1.48078070E-02  2.01261451E-04 -1.58433773E-03
 -2.52358915E-03  1.48709356E-01 -6.32413117E-08 -2.88747722E-02  9.57141244E-03
  2.41288405E-01 -1.10865239E-07 -4.86545633E-02  1.75460853E-02  1.84783960E-01
  2.18696106E-08 -4.39472238E-02  2.40025563E-02 -5.33004760E-03 -9.77647377E-08
 -9.95675353E-04  1.25925953E-03  7.77973204E-03  1.47687298E-08 -8.09937790E-03
 -9.99828444E-09  1.15632390E-03  2.59513541E-02  3.05903081E-08 -1.57736773E-02
 -5.99553139E-08  3.08448898E-03  5.32321700E-03 -1.34517979E-01  9.66629320E-08
 -1.15270396E-01 -1.55462376E-02 -2.14694027E-01 -1.26763874E-08 -1.71803382E-01
  1.38737384E-03 -1.24938987E-01 -4.99256118E-07 -1.06013825E-01 -4.63214259E-02
 -8.31011545E-03 -1.95691566E-07  1.36840814E-03 -1.28094420E-03  7.98518040E-03
  1.04599153E-06 -1.74403059E-02  9.26428383E-08  2.70239286E-03  1.10161441E-02
  1.07729226E-06 -2.35609367E-02  5.23338474E-08 -6.26491286E-02 -1.06395981E-01
 -4.58583215E-02 -4.60376916E-03 -5.03802959E-03 -2.36027635E-07  3.69190888E-03
 -1.00440886E-02 -3.49517726E-07  5.39606710E-03  9.03211851E-02  1.39422181E-01
  5.75882836E-02  1.13142602E-02  5.19121468E-04  7.14788319E-03  1.28295609E-03
  7.63937886E-04  1.06433015E-02  9.98223630E-04  9.03144248E-02  1.39411972E-01
  5.75848100E-02  1.13136543E-02  5.18778268E-04 -7.14765255E-03  1.28211356E-03
  7.63633773E-04 -1.06430992E-02  9.96791059E-04  4.46489093E-02  6.04224278E-02
  2.91455459E-02  6.59574484E-03  3.35501451E-03  3.51911480E-03 -3.53060823E-03
  5.23040045E-03  2.38503609E-03 -4.40448305E-03  4.46487570E-02  6.04222228E-02
  2.91458459E-02  6.59586273E-03  3.35503404E-03 -3.51909212E-03 -3.53060618E-03
  5.23028518E-03 -2.38506289E-03 -4.40443563E-03  1.04137191E-07  1.79115205E-07
  2.89123322E-07 -1.06040648E-01  2.05096047E-07 -5.20725766E-07  5.12778983E-07
 -1.61699035E-01  2.92016136E-07 -1.35049726E-06  3.68602385E-07 -1.14138887E-01