methylamine Gaussian Optimization on bme-nova.bme.utexas.edu            
SP        RMP2-FC                                                     6-311G(d,p)         
Number of atoms                            I                7
Info1-9                                    I   N=           9
          18          18           0           0           0         110
           1           2           1
Charge                                     I                0
Multiplicity                               I                1
Number of electrons                        I               18
Number of alpha electrons                  I                9
Number of beta electrons                   I                9
Number of basis functions                  I               66
Number of independent functions            I               66
Number of point charges in /Mol/           I                0
Number of translation vectors              I                0
Atomic numbers                             I   N=           7
           7           6           1           1           1           1
           1
Nuclear charges                            R   N=           7
  7.00000000E+00  6.00000000E+00  1.00000000E+00  1.00000000E+00  1.00000000E+00
  1.00000000E+00  1.00000000E+00
Current cartesian coordinates              R   N=          21
  1.41291610E+00  3.84296737E-07 -2.35926639E-01 -1.32838487E+00  2.49760575E-07
  3.09782805E-02 -1.98469243E+00 -6.99198669E-05  1.98100746E+00 -2.10486578E+00
 -1.65207039E+00 -8.97449838E-01 -2.10485067E+00  1.65214598E+00 -8.97325116E-01
  2.13715175E+00 -1.50858916E+00  6.39696862E-01  2.13714987E+00  1.50858916E+00
  6.39698752E-01
Force Field                                I                0
Int Atom Types                             I   N=           7
           0           0           0           0           0           0
           0
MM charges                                 R   N=           7
  0.00000000E+00  0.00000000E+00  0.00000000E+00  0.00000000E+00  0.00000000E+00
  0.00000000E+00  0.00000000E+00
Integer atomic weights                     I   N=           7
          14          12           1           1           1           1
           1
Real atomic weights                        R   N=           7
  1.40030740E+01  1.20000000E+01  1.00782504E+00  1.00782504E+00  1.00782504E+00
  1.00782504E+00  1.00782504E+00
Atom fragment info                         I   N=           7
           0           0           0           0           0           0
           0
Atom residue num                           I   N=           7
           0           0           0           0           0           0
           0
Nuclear spins                              I   N=           7
           2           0           1           1           1           1
           1
Nuclear ZEff                               R   N=           7
 -4.55000000E+00 -3.60000000E+00 -1.00000000E+00 -1.00000000E+00 -1.00000000E+00
 -1.00000000E+00 -1.00000000E+00
Nuclear QMom                               R   N=           7
  2.04400000E+00  0.00000000E+00  0.00000000E+00  0.00000000E+00  0.00000000E+00
  0.00000000E+00  0.00000000E+00
Nuclear GFac                               R   N=           7
  4.03761000E-01  0.00000000E+00  2.79284600E+00  2.79284600E+00  2.79284600E+00
  2.79284600E+00  2.79284600E+00
MicOpt                                     I   N=           7
          -1          -1          -1          -1          -1          -1
          -1
Number of contracted shells                I               30
Number of primitive shells                 I               54
Pure/Cartesian d shells                    I                0
Pure/Cartesian f shells                    I                0
Highest angular momentum                   I                2
Largest degree of contraction              I                6
Shell types                                I   N=          30
           0          -1          -1          -1          -2           0
          -1          -1          -1          -2           0           0
           0           1           0           0           0           1
           0           0           0           1           0           0
           0           1           0           0           0           1
Number of primitives per shell             I   N=          30
           6           3           1           1           1           6
           3           1           1           1           3           1
           1           1           3           1           1           1
           3           1           1           1           3           1
           1           1           3           1           1           1
Shell to atom map                          I   N=          30
           1           1           1           1           1           2
           2           2           2           2           3           3
           3           3           4           4           4           4
           5           5           5           5           6           6
           6           6           7           7           7           7
Primitive exponents                        R   N=          54
  6.29348000E+03  9.49044000E+02  2.18776000E+02  6.36916000E+01  1.88282000E+01
  2.72023000E+00  3.06331000E+01  7.02614000E+00  2.11205000E+00  6.84009000E-01
  2.00878000E-01  9.13000000E-01  4.56324000E+03  6.82024000E+02  1.54973000E+02
  4.44553000E+01  1.30290000E+01  1.82773000E+00  2.09642000E+01  4.80331000E+00
  1.45933000E+00  4.83456000E-01  1.45585000E-01  6.26000000E-01  3.38650000E+01
  5.09479000E+00  1.15879000E+00  3.25840000E-01  1.02741000E-01  7.50000000E-01
  3.38650000E+01  5.09479000E+00  1.15879000E+00  3.25840000E-01  1.02741000E-01
  7.50000000E-01  3.38650000E+01  5.09479000E+00  1.15879000E+00  3.25840000E-01
  1.02741000E-01  7.50000000E-01  3.38650000E+01  5.09479000E+00  1.15879000E+00
  3.25840000E-01  1.02741000E-01  7.50000000E-01  3.38650000E+01  5.09479000E+00
  1.15879000E+00  3.25840000E-01  1.02741000E-01  7.50000000E-01
Contraction coefficients                   R   N=          54
  1.96978815E-03  1.49612859E-02  7.35005308E-02  2.48936766E-01  6.02459433E-01
  2.56201759E-01  1.11906080E-01  9.21666655E-01 -2.56919183E-03  1.00000000E+00
  1.00000000E+00  1.00000000E+00  1.96665025E-03  1.52306019E-02  7.61269097E-02
  2.60801033E-01  6.16462078E-01  2.21006028E-01  1.14660081E-01  9.19999648E-01
 -3.03068213E-03  1.00000000E+00  1.00000000E+00  1.00000000E+00  2.54938145E-02
  1.90373109E-01  8.52161486E-01  1.00000000E+00  1.00000000E+00  1.00000000E+00
  2.54938145E-02  1.90373109E-01  8.52161486E-01  1.00000000E+00  1.00000000E+00
  1.00000000E+00  2.54938145E-02  1.90373109E-01  8.52161486E-01  1.00000000E+00
  1.00000000E+00  1.00000000E+00  2.54938145E-02  1.90373109E-01  8.52161486E-01
  1.00000000E+00  1.00000000E+00  1.00000000E+00  2.54938145E-02  1.90373109E-01
  8.52161486E-01  1.00000000E+00  1.00000000E+00  1.00000000E+00
P(S=P) Contraction coefficients            R   N=          54
  0.00000000E+00  0.00000000E+00  0.00000000E+00  0.00000000E+00  0.00000000E+00
  0.00000000E+00  3.83119186E-02  2.37403116E-01  8.17592398E-01  1.00000000E+00
  1.00000000E+00  0.00000000E+00  0.00000000E+00  0.00000000E+00  0.00000000E+00
  0.00000000E+00  0.00000000E+00  0.00000000E+00  4.02486927E-02  2.37593957E-01
  8.15853851E-01  1.00000000E+00  1.00000000E+00  0.00000000E+00  0.00000000E+00
  0.00000000E+00  0.00000000E+00  0.00000000E+00  0.00000000E+00  0.00000000E+00
  0.00000000E+00  0.00000000E+00  0.00000000E+00  0.00000000E+00  0.00000000E+00
  0.00000000E+00  0.00000000E+00  0.00000000E+00  0.00000000E+00  0.00000000E+00
  0.00000000E+00  0.00000000E+00  0.00000000E+00  0.00000000E+00  0.00000000E+00
  0.00000000E+00  0.00000000E+00  0.00000000E+00  0.00000000E+00  0.00000000E+00
  0.00000000E+00  0.00000000E+00  0.00000000E+00  0.00000000E+00
Coordinates of each shell                  R   N=          90
  1.41291631E+00  0.00000000E+00 -2.35927268E-01  1.41291631E+00  0.00000000E+00
 -2.35927268E-01  1.41291631E+00  0.00000000E+00 -2.35927268E-01  1.41291631E+00
  0.00000000E+00 -2.35927268E-01  1.41291631E+00  0.00000000E+00 -2.35927268E-01
 -1.32838466E+00  0.00000000E+00  3.09776506E-02 -1.32838466E+00  0.00000000E+00
  3.09776506E-02 -1.32838466E+00  0.00000000E+00  3.09776506E-02 -1.32838466E+00
  0.00000000E+00  3.09776506E-02 -1.32838466E+00  0.00000000E+00  3.09776506E-02
 -1.98469222E+00 -7.01374176E-05  1.98100683E+00 -1.98469222E+00 -7.01374176E-05
  1.98100683E+00 -1.98469222E+00 -7.01374176E-05  1.98100683E+00 -1.98469222E+00
 -7.01374176E-05  1.98100683E+00 -2.10486566E+00 -1.65207061E+00 -8.97450468E-01
 -2.10486566E+00 -1.65207061E+00 -8.97450468E-01 -2.10486566E+00 -1.65207061E+00
 -8.97450468E-01 -2.10486566E+00 -1.65207061E+00 -8.97450468E-01 -2.10485038E+00
  1.65214577E+00 -8.97325746E-01 -2.10485038E+00  1.65214577E+00 -8.97325746E-01
 -2.10485038E+00  1.65214577E+00 -8.97325746E-01 -2.10485038E+00  1.65214577E+00
 -8.97325746E-01  2.13715189E+00 -1.50858958E+00  6.39696233E-01  2.13715189E+00
 -1.50858958E+00  6.39696233E-01  2.13715189E+00 -1.50858958E+00  6.39696233E-01
  2.13715189E+00 -1.50858958E+00  6.39696233E-01  2.13715015E+00  1.50858874E+00
  6.39698122E-01  2.13715015E+00  1.50858874E+00  6.39698122E-01  2.13715015E+00
  1.50858874E+00  6.39698122E-01  2.13715015E+00  1.50858874E+00  6.39698122E-01
Constraint Structure                       R   N=          21
  1.41291631E+00  0.00000000E+00 -2.35927268E-01 -1.32838466E+00  0.00000000E+00
  3.09776506E-02 -1.98469222E+00 -7.01374176E-05  1.98100683E+00 -2.10486566E+00
 -1.65207061E+00 -8.97450468E-01 -2.10485038E+00  1.65214577E+00 -8.97325746E-01
  2.13715189E+00 -1.50858958E+00  6.39696233E-01  2.13715015E+00  1.50858874E+00
  6.39698122E-01
Num ILSW                                   I              100
ILSW                                       I   N=         100
           0           0           0           0           2           0
           0           0           0           0           0  2684354560
           0           0           0           0           0           0
           0           0           0           0           0           0
           1           0           0           0           0           0
           0           0      100000           0          -1           0
           0           0           0           0           0           0
           0           0           0           1           0           0
           0           0           1           0           0           0
           0           0           4          40           0           0
           0           0           0           0           0           0
           0           0           0           0           0           0
           0           0           0           0           0           0
           0           0           0           0           0           0
           0           0           0           0           0           0
           0           0           0           0           0           0
           0           0           0           0
Num RLSW                                   I               40
RLSW                                       R   N=          40
  1.00000000E+00  1.00000000E+00  1.00000000E+00  1.00000000E+00  1.00000000E+00
  0.00000000E+00  0.00000000E+00  1.00000000E+00  0.00000000E+00  0.00000000E+00
  0.00000000E+00  0.00000000E+00  1.00000000E+00  0.00000000E+00  0.00000000E+00
  0.00000000E+00  0.00000000E+00  1.00000000E+00  0.00000000E+00  0.00000000E+00
  0.00000000E+00  0.00000000E+00  1.00000000E+00  0.00000000E+00  0.00000000E+00
  0.00000000E+00  0.00000000E+00  1.00000000E+00  0.00000000E+00  0.00000000E+00
  0.00000000E+00  0.00000000E+00  0.00000000E+00  0.00000000E+00  0.00000000E+00
  0.00000000E+00  0.00000000E+00  0.00000000E+00  1.00000000E+00  1.00000000E+00
MxBond                                     I                4
NBond                                      I   N=           7
           3           4           1           1           1           1
           1
IBond                                      I   N=          28
           2           6           7           0           1           3
           4           5           2           0           0           0
           2           0           0           0           2           0
           0           0           1           0           0           0
           1           0           0           0
RBond                                      R   N=          28
  1.00000000E+00  1.00000000E+00  1.00000000E+00  0.00000000E+00  1.00000000E+00
  1.00000000E+00  1.00000000E+00  1.00000000E+00  1.00000000E+00  0.00000000E+00
  0.00000000E+00  0.00000000E+00  1.00000000E+00  0.00000000E+00  0.00000000E+00
  0.00000000E+00  1.00000000E+00  0.00000000E+00  0.00000000E+00  0.00000000E+00
  1.00000000E+00  0.00000000E+00  0.00000000E+00  0.00000000E+00  1.00000000E+00
  0.00000000E+00  0.00000000E+00  0.00000000E+00
Virial Ratio                               R      1.999743970897854E+00
SCF Energy                                 R     -9.524242688158623E+01
MP2 Energy                                 R     -9.558684424590915E+01
Total Energy                               R     -9.558684424590915E+01
Post-SCF wavefunction norm                 R      1.050651427664940E+00
RMS Density                                R      7.397725969162323E-09
External E-field                           R   N=          35
  0.00000000E+00  0.00000000E+00  0.00000000E+00  0.00000000E+00  0.00000000E+00
  0.00000000E+00  0.00000000E+00  0.00000000E+00  0.00000000E+00  0.00000000E+00
  0.00000000E+00  0.00000000E+00  0.00000000E+00  0.00000000E+00  0.00000000E+00
  0.00000000E+00  0.00000000E+00  0.00000000E+00  0.00000000E+00  0.00000000E+00
  0.00000000E+00  0.00000000E+00  0.00000000E+00  0.00000000E+00  0.00000000E+00
  0.00000000E+00  0.00000000E+00  0.00000000E+00  0.00000000E+00  0.00000000E+00
  0.00000000E+00  0.00000000E+00  0.00000000E+00  0.00000000E+00  0.00000000E+00
IOpCl                                      I                0
IROHF                                      I                0
Alpha Orbital Energies                     R   N=          66
 -1.55256622E+01 -1.12363144E+01 -1.17142620E+00 -8.96569387E-01 -6.63152208E-01
 -6.02491146E-01 -5.55661153E-01 -5.16994021E-01 -3.88173482E-01  1.57654960E-01
  1.94474488E-01  2.10786098E-01  2.32467396E-01  2.58937537E-01  3.77484335E-01
  4.66484421E-01  4.83345931E-01  5.52743974E-01  5.64550687E-01  7.12087705E-01
  7.67506904E-01  8.11310750E-01  8.13323747E-01  8.51051113E-01  9.32989924E-01
  9.58026141E-01  9.74763478E-01  1.25957223E+00  1.29559631E+00  1.29682721E+00
  1.58877915E+00  1.64596539E+00  1.73448123E+00  1.74588519E+00  1.76311141E+00
  1.83632125E+00  1.90428858E+00  1.92424356E+00  1.99783460E+00  2.04522369E+00
  2.16204446E+00  2.26908269E+00  2.33256289E+00  2.45951864E+00  2.49242722E+00
  2.65006140E+00  2.65393163E+00  2.70681536E+00  2.79244810E+00  2.81602099E+00
  2.86705312E+00  2.87759681E+00  2.95700863E+00  3.10419370E+00  3.11201110E+00
  3.21124430E+00  3.34457736E+00  3.53389812E+00  3.83836516E+00  4.17756115E+00
  4.23318345E+00  4.50991171E+00  5.26453144E+00  5.35930831E+00  2.50732297E+01
  3.70331989E+01
Alpha MO coefficients                      R   N=        4356
  5.57631948E-01  4.68248277E-01 -4.99853720E-04 -3.50146577E-09  1.82302940E-03
  5.10468304E-03  2.15508906E-04  2.58167477E-09 -7.05263877E-04 -1.27625151E-03
  2.79993964E-04 -7.39890981E-10  1.16931210E-05  1.49458792E-04 -3.04130423E-05
  4.39312421E-11 -5.92026645E-05  3.78828893E-10  8.59872180E-06 -3.48089662E-05
  4.22192271E-05  2.65132463E-10 -2.70532037E-05  1.37387712E-04  3.60317447E-04
 -1.58121939E-09  5.34260090E-05  7.26717553E-04  2.80509929E-04  4.25423823E-09
 -7.26234000E-05 -6.69641527E-05  3.24776731E-05 -1.48266434E-09  1.60187345E-04
 -2.63346823E-10  3.12032308E-06 -6.91918430E-05 -1.83653670E-05 -3.49904615E-05
  2.88542819E-11 -7.63027653E-06  2.12314798E-05 -6.87984480E-05 -1.93269020E-05
  8.79695188E-06  1.76547219E-05  1.74890157E-05  2.12322092E-05 -6.87999838E-05
 -1.93325344E-05  8.79500640E-06 -1.76562397E-05  1.74872319E-05  2.65025764E-04
  2.45731038E-04  6.41242621E-05 -8.25188501E-05  8.02226339E-05  2.18811512E-05
  2.65025754E-04  2.45729380E-04  6.41248817E-05 -8.25179744E-05 -8.02219731E-05
  2.18817248E-05 -8.88039834E-05 -1.41778478E-04 -9.75065999E-05  5.07648478E-11
  1.85926050E-05  2.83486122E-04 -5.12350371E-04 -4.83674999E-10  7.38600517E-06
  1.99681785E-04 -1.18844893E-04 -4.14107492E-10 -1.99890186E-05 -8.24833057E-05
 -6.87382021E-05 -1.24621436E-10  1.96106348E-04  3.97788600E-10  5.63393926E-01
  4.66550281E-01  5.24943585E-04  1.98298546E-09 -7.03872001E-06  4.28008103E-03
 -5.10964318E-04  2.87131199E-09  1.39518866E-08 -1.25509806E-03  7.12451313E-05
 -1.91641059E-10  3.02627351E-05  7.79541087E-05  4.46668490E-05  2.42750268E-10
 -1.94555021E-04 -3.42731489E-10  3.54666012E-04  9.02448310E-05  2.44880669E-04
  2.98086501E-05 -3.96562888E-10  1.30344928E-05  3.50884793E-04  6.87897896E-05
  2.67684131E-04  1.99775143E-05 -2.63685530E-05 -1.83281357E-05  3.50885453E-04
  6.87869237E-05  2.67684491E-04  1.99771860E-05  2.63707433E-05 -1.83267492E-05
  2.31710339E-06  7.96187871E-05 -1.63600576E-05 -2.80986192E-05  5.15980548E-05
 -2.30762406E-05  2.31707113E-06  7.96196774E-05 -1.63609307E-05 -2.80986927E-05
 -5.15981325E-05 -2.30764248E-05 -9.90921761E-02 -1.63844138E-01 -1.48409337E-02
  2.63415800E-08  2.86200351E-02  4.34903060E-01 -3.11263487E-02  1.65302899E-08
  4.70119288E-02  3.18231171E-01 -2.37495290E-02  4.32100763E-08  1.77093753E-02
 -5.19592057E-03  9.89026698E-04  1.47869921E-08  2.34234652E-03 -1.46915478E-09
 -5.05127260E-02 -8.29440228E-02  3.80377651E-02  8.41082708E-08 -1.75134503E-03
  2.10025726E-01  7.86554377E-02  8.63027767E-08 -2.63234256E-03  5.50530580E-02
 -3.02298883E-04 -4.44743979E-08  5.24196615E-03 -1.11850558E-02 -1.34395320E-03
 -3.22928529E-08  1.86605610E-02 -1.71979397E-08  2.64274408E-02  3.95343990E-02
 -2.39644132E-03  4.08826786E-03  3.19828663E-07 -9.15819982E-03  2.63955974E-02
  4.23040413E-02 -1.20543047E-03  4.62536363E-03  7.92112662E-03  4.30955480E-03
  2.63958274E-02  4.23042603E-02 -1.20545247E-03  4.62531249E-03 -7.92149238E-03
  4.30896371E-03  8.07115625E-02  8.06419508E-02  4.00909865E-04 -9.45749483E-03
  1.73333718E-02 -7.82970639E-03  8.07116428E-02  8.06419896E-02  4.00903595E-04
 -9.45748862E-03 -1.73333768E-02 -7.82972172E-03  4.05320597E-02  6.73486297E-02
 -6.84885542E-02  8.20284749E-08 -2.38948982E-02 -1.80808549E-01 -1.13131044E-01
  1.21343566E-07 -3.84121940E-02 -1.56841474E-01 -5.00552952E-02  1.48409028E-07
 -1.43863531E-02 -3.86053003E-03 -8.38305581E-03  6.08394134E-09  1.32596156E-02
  3.68278952E-09 -8.90415719E-02 -1.47534526E-01 -3.98028115E-02  2.77331408E-07
 -2.33500526E-03  3.79308420E-01 -5.15226048E-02  3.84809461E-07 -4.28220896E-03
  2.48262394E-01 -2.40854519E-02 -1.68383498E-07  7.24195820E-03  3.37707005E-03
 -3.94451666E-04  1.48624852E-08 -8.09413821E-03  1.11162727E-08  8.19495968E-02
  1.09516829E-01  5.19061991E-03  3.86688947E-03  6.36406534E-07 -1.73187376E-02
  8.52274015E-02  1.17894885E-01  9.13391161E-03  5.13856460E-03  1.56765154E-02
  8.55114673E-03  8.52275716E-02  1.17895193E-01  9.13412587E-03  5.13848146E-03
 -1.56771950E-02  8.54996265E-03 -6.34971800E-02 -7.83965379E-02 -1.14224016E-02
  1.50702871E-03 -1.19556856E-02  4.47911175E-03 -6.34970828E-02 -7.83964051E-02
 -1.14224269E-02  1.50698165E-03  1.19556786E-02  4.47910287E-03  2.65100547E-09
  6.60795310E-09 -6.34377702E-08  1.78292635E-01  1.15563064E-08 -2.89036838E-09
 -8.66842985E-08  2.81258375E-01  5.50917854E-09 -2.97218512E-07 -2.17094263E-07
  1.66358687E-01 -3.44019587E-07  1.66190182E-08  6.45076245E-09  2.60447980E-02
  1.13965327E-08  4.23043381E-03  1.25915501E-07  2.15970313E-07  2.11614982E-07
  9.69943549E-02 -2.21234200E-07 -5.70103668E-07  3.87385408E-07  1.59670216E-01
 -3.06747423E-07 -8.97857322E-07  3.02296890E-07  1.01354391E-01  6.58069136E-07
 -1.36061076E-06 -9.15147129E-08 -1.27588960E-02 -8.10673796E-07  6.29462913E-03
 -2.97763641E-06 -4.36609227E-06 -1.59993509E-06 -1.58837639E-07  4.09946176E-03
  4.40507336E-07 -6.22465630E-02 -8.22024954E-02 -2.09709570E-02 -2.49525493E-03
 -3.47501151E-03 -4.89194030E-03  6.22492973E-02  8.22069563E-02  2.09725154E-02
  2.49548102E-03 -3.47577976E-03  4.89151214E-03 -1.21304576E-01 -1.80383543E-01
 -4.78717917E-02  1.24739744E-02 -9.88180770E-03  1.14077021E-02  1.21304506E-01
  1.80383872E-01  4.78718362E-02 -1.24739978E-02 -9.88184688E-03 -1.14077362E-02
  1.67843949E-02  2.85149091E-02  1.03900362E-01  4.62757715E-07  9.97336339E-02
 -8.67465980E-02  1.67726666E-01  7.91374147E-07  1.57001136E-01 -9.83158544E-02
  1.04852655E-01  4.29833430E-07  1.27245431E-01  1.11115220E-02  1.81928620E-03
  5.97623223E-08 -1.35830032E-02  1.69367673E-08 -2.54013347E-03 -3.87030809E-03
 -8.80867783E-02 -4.16810095E-08  1.37148475E-01  3.16680864E-03 -1.52296176E-01
 -1.86307376E-08  2.20314309E-01  2.21959490E-02 -6.77370460E-02  6.46867159E-07
  1.16057321E-01  2.71609073E-02  9.12702906E-04 -1.90976094E-06 -1.18089148E-02
 -9.37143605E-08  1.37066781E-01  2.10259548E-01  8.54269757E-02  2.66256441E-03
  7.69010329E-07 -1.46792224E-02 -1.96558930E-02 -3.30955911E-02 -1.47906158E-02
 -5.31761524E-03 -4.23751032E-03  5.50780098E-03 -1.96494656E-02 -3.30863087E-02
 -1.47874864E-02 -5.31731460E-03  4.23681016E-03  5.50869913E-03  5.58026041E-02
  7.71460528E-02  2.82665761E-02  2.41597991E-03  1.03319050E-02  3.38784690E-03
  5.58032797E-02  7.71468203E-02  2.82668884E-02  2.41604138E-03 -1.03319114E-02
  3.38777278E-03 -1.32545348E-03 -2.20571482E-03  1.51299454E-01 -7.40874155E-08
 -2.61586176E-02  6.79359124E-03  2.39999556E-01 -1.57036284E-07 -4.55545367E-02
 -1.02517081E-02  1.78056472E-01 -2.14203939E-07 -4.64007662E-02  1.27000892E-03
  2.05361348E-02  8.46983042E-09 -1.48179682E-02 -4.96719317E-08  3.39551382E-03
  6.09179499E-03 -1.36215620E-01  1.23081965E-07 -1.09934546E-01 -2.11217409E-02
 -2.27624923E-01  1.05356164E-07 -1.74675313E-01  3.19086364E-03 -1.23234325E-01
 -2.15638410E-07 -1.19960570E-01 -6.62012043E-04  1.28965601E-02  1.90845930E-06
 -3.42003359E-02  1.81924153E-07 -5.93129135E-02 -9.12289747E-02 -4.30278023E-02
 -8.73370606E-03 -3.26899872E-07  3.74192671E-03  8.82964085E-02  1.35948631E-01
  5.32451546E-02 -1.28155634E-03  1.07516169E-02  6.48958792E-04  8.82899384E-02
  1.35939235E-01  5.32413469E-02 -1.28191917E-03 -1.07513438E-02  6.47610251E-04
  4.65546142E-02  8.04816885E-02  3.46367575E-02  7.99195687E-03  8.34141206E-03
 -6.62877354E-03  4.65544113E-02  8.04817445E-02  3.46368760E-02  7.99185613E-03
 -8.34142708E-03 -6.62877146E-03  1.06965222E-07  1.83614234E-07  2.60326876E-07
 -1.06358831E-01  2.40884684E-07 -5.04212667E-07  4.07865089E-07 -1.63141223E-01
  3.38434186E-07 -1.31258494E-06  1.50251370E-07 -1.19464812E-01  1.71690969E-08
 -7.14845467E-08 -2.01266120E-08 -1.65321080E-02 -5.62808768E-08 -1.70512449E-02
  7.30862793E-08  1.31509722E-07  7.30632254E-08  1.67711412E-01  2.58847270E-07
 -4.07315335E-07  1.74449482E-07  2.63611562E-01  4.77604913E-07 -6.28808097E-07
  2.97883668E-07  1.79472728E-01  6.10314096E-07 -2.34347985E-06 -1.82020128E-07
 -2.38267616E-02 -1.53968450E-06 -2.79625287E-02 -5.32934826E-06 -8.71487419E-06
 -4.25234073E-06 -2.51865738E-07  9.87944101E-03  8.61713407E-07 -1.28303392E-01
 -2.08323585E-01 -9.38936865E-02 -7.63964064E-03 -7.03232806E-03 -1.05165165E-02
  1.28308997E-01  2.08333040E-01  9.38981286E-02  7.63990599E-03 -7.03393739E-03
  1.05157180E-02  8.35422898E-02  1.36043282E-01  6.84946059E-02 -6.72058518E-03
  6.34583638E-03 -7.16551031E-03 -8.35420759E-02 -1.36041996E-01 -6.84944377E-02
  6.72043160E-03  6.34573548E-03  7.16545383E-03  2.93088199E-02  4.99638216E-02
 -5.68034395E-02 -2.45960064E-07  2.29861498E-01 -1.51499423E-01 -8.26966845E-02
 -4.33700753E-07  3.45795588E-01 -2.00661926E-01 -1.26375575E-01 -1.06909320E-06
  4.28897137E-01  1.13189344E-02 -1.87522620E-03  3.14188255E-08  4.38699490E-04
  1.62292996E-08 -5.61702575E-03 -9.45820497E-03  2.94315414E-02 -2.08341343E-07
 -7.58021241E-02  2.73582485E-02  4.64442262E-02 -3.18473406E-07 -1.15354371E-01
 -3.19919911E-02  5.10189081E-03 -7.57905898E-09 -7.68100352E-02 -1.77422305E-02
  3.10112749E-02  1.35035037E-06  1.24157514E-04  8.40283725E-08 -8.99608653E-02
 -1.77124297E-01 -9.45385459E-02 -2.15838051E-03 -5.46817118E-07  8.15126153E-03
  3.57538802E-02  8.24675226E-02  2.93814099E-02  3.94320645E-03  5.88763176E-03
 -2.42041369E-03  3.57483591E-02  8.24562589E-02  2.93753447E-02  3.94283703E-03
 -5.88709220E-03 -2.42140495E-03  4.14155481E-02  5.14239926E-02  2.91880460E-02
 -8.25314832E-03  8.70225172E-03  1.67917407E-02  4.14156149E-02  5.14251119E-02
  2.91886225E-02 -8.25334121E-03 -8.70236011E-03  1.67917303E-02 -2.62904372E-02
 -4.28992656E-02  4.26891552E-02 -1.61863947E-08  3.46445363E-02  8.44437820E-02
  3.78493148E-02 -2.16810057E-08  5.07407787E-02  6.28411545E-01  3.13329909E-01
 -2.46798383E-07  1.15378537E-01  1.57671132E-03  2.48051400E-03  3.78003096E-08
 -6.72778482E-04 -3.54099174E-08 -2.83589704E-02 -4.47875592E-02 -5.36746698E-02
  6.05952554E-07  1.74847931E-02  9.75026936E-03 -6.51196991E-02  4.89200411E-07
  1.23409878E-02  1.65476025E+00 -2.15968522E-01  5.44975673E-06  1.04479792E-01
 -4.28160002E-03  5.01219937E-03  3.02353241E-07  3.09648925E-03  3.95643459E-08
 -2.64223847E-03 -3.15911911E-03 -8.07705604E-01 -5.26541432E-03  6.92413491E-08
 -1.75555885E-03 -7.89550024E-04 -3.97681066E-02 -5.35740353E-01 -6.85136084E-03
 -2.85471678E-03 -1.90889615E-03 -7.89772412E-04 -3.97672367E-02 -5.35762229E-01
 -6.85116387E-03  2.85453911E-03 -1.90845046E-03 -1.54171277E-02  6.41798589E-02
 -6.61613101E-01 -4.72925180E-03  5.81218611E-03 -5.92945243E-04 -1.54171773E-02
  6.41799686E-02 -6.61615021E-01 -4.72922495E-03 -5.81216058E-03 -5.92907497E-04
  2.89289212E-02  4.72615415E-02 -9.35072734E-03  5.76038017E-07 -4.01117911E-02
 -7.98194819E-02  1.74856071E-02  5.74516128E-07 -5.96782828E-02 -8.51959813E-01
 -1.03383424E-01  2.51879300E-06 -1.59594000E-01 -3.09123917E-03  3.81177936E-04
 -3.18943669E-08  3.94689234E-03 -1.97752956E-08 -3.65456532E-02 -5.91575272E-02
 -1.59522358E-02 -4.05302543E-08 -1.77954044E-02  7.88167781E-02  1.93770456E-02
 -1.90410178E-07 -8.71857495E-03  1.38314966E+00 -2.31829082E-01  1.05045774E-06
 -1.86802455E-01  7.47197241E-04 -3.99935182E-03 -1.08313653E-07 -2.67280033E-03
  2.76380847E-08 -1.02100726E-02  7.89917431E-02 -5.38187905E-01  7.77653776E-03
  5.16155058E-08 -2.01945598E-03 -1.19318363E-02  7.57449856E-02 -9.40884351E-01
  7.86538504E-03  3.45876587E-03  4.17413995E-03 -1.19314463E-02  7.57462823E-02
 -9.40873125E-01  7.86525368E-03 -3.45896525E-03  4.17374588E-03  1.90044002E-02
 -6.40165787E-02  8.10883783E-01  7.22128471E-03 -8.90351491E-06 -1.85404897E-03
  1.90043070E-02 -6.40157646E-02  8.10875624E-01  7.22121523E-03  8.79468552E-06
 -1.85426545E-03  2.57068236E-07  4.23106042E-07  2.30874996E-07 -8.60998820E-02
 -7.48109953E-07 -5.31398616E-07  4.13941022E-07 -7.76597097E-02 -4.58151348E-07
 -9.73528152E-06 -3.53833981E-07 -4.41149419E-01 -8.38392717E-06 -2.27293006E-07
 -3.42889838E-07 -3.92095555E-03 -1.22961848E-07  1.28120371E-02 -2.79603098E-07
 -4.60944937E-07  2.51040924E-08 -9.61723675E-02  4.06970300E-06  4.90776204E-07
  2.39466256E-07 -4.42433049E-02  2.23144636E-06  1.17231224E-05  1.24245753E-06
 -7.65771384E-01  3.47522864E-05 -2.10624491E-06  3.35751462E-07 -1.33150105E-02
 -1.34006167E-06 -1.94308267E-02 -1.06609010E-06  8.03758702E-06 -1.16238263E-04
  5.16516980E-07  2.83537097E-03 -1.73298954E-06 -9.90159330E-03  1.00473531E-01
 -1.20954163E+00  9.19049852E-03  1.76748998E-02  8.20695854E-03  9.90227596E-03
 -1.00480992E-01  1.20964288E+00 -9.19098443E-03  1.76774604E-02 -8.20630484E-03
 -1.92386841E-02  7.89814144E-02 -1.17011978E+00 -4.79136813E-03  7.81966841E-03
 -3.71144720E-03  1.92388214E-02 -7.89767919E-02  1.17012674E+00  4.79122675E-03
  7.81973256E-03  3.71090120E-03 -8.36340225E-03 -1.36927297E-02 -3.66945434E-03
 -1.71144777E-06  1.58594792E-02  1.84293394E-02 -6.67214278E-03 -1.33341341E-06
  9.00478706E-03  3.16640158E-01  6.04136687E-03 -1.01362732E-05  1.98904997E-01
  9.34876388E-04  1.10719574E-02 -5.51806422E-07  5.63509787E-04  3.23213143E-07
  3.01240483E-03  4.99740852E-03 -1.42605993E-02 -3.46913758E-06 -1.36557492E-01
 -5.15233312E-03 -1.98826370E-02 -1.68152424E-06 -7.16269679E-02 -1.25382099E-01
 -1.43854324E-01 -2.78292691E-05 -1.15121492E+00  2.13095760E-02 -1.96346470E-02
 -3.21324859E-06  1.27958042E-02 -8.01059614E-07  1.60838110E-02 -1.98989223E-01
  2.25672606E+00 -1.04949757E-02 -1.21128048E-06  3.30723046E-02 -5.92694997E-03
  8.47557366E-02 -1.06215281E+00  4.55455292E-03  1.58766000E-02  5.99508844E-03
 -5.92538547E-03  8.47350235E-02 -1.06191885E+00  4.55298894E-03 -1.58740092E-02
  5.99206683E-03  1.40572453E-03 -2.32572719E-02 -1.68406439E-01  1.63839697E-03
 -1.62997244E-03  5.08383865E-03  1.40609188E-03 -2.32648023E-02 -1.68336817E-01
  1.63862603E-03  1.63014031E-03  5.08315727E-03  2.37333542E-08  5.19643450E-08
  6.37792994E-08  9.40248573E-02  4.02221011E-07 -1.73820366E-07 -3.19796016E-08
  7.90604881E-02  6.89950860E-07 -5.60185254E-07 -5.33193583E-08  6.29050110E-01
 -4.21824418E-07 -2.65032437E-07 -1.13661409E-07  1.16607185E-03 -1.99453790E-07
  2.97537800E-03 -1.17247622E-08 -2.18178335E-08 -1.74016418E-07 -9.90148904E-02
  9.16777803E-07 -2.59902675E-08 -2.65121125E-07 -5.80902685E-02  2.88993832E-07
 -6.13931126E-08  1.56973167E-07 -9.64450893E-01  5.19960647E-06 -1.96166983E-06