 Entering Gaussian System, Link 0=g09
 Input=methylamine-esp.com
 Output=methylamine-esp.log
 Initial command:
 /opt/g09gh/gaussian/g09/l1.exe /scratch/bdw2292/Gau-methylamine/Gau-57300.inp -scrdir=/scratch/bdw2292/Gau-methylamine/
 Entering Link 1 = /opt/g09gh/gaussian/g09/l1.exe PID=     57301.
  
 Copyright (c) 1988,1990,1992,1993,1995,1998,2003,2009, Gaussian, Inc.
                  All Rights Reserved.
  
 This is part of the Gaussian(R) 09 program.  It is based on
 the Gaussian(R) 03 system (copyright 2003, Gaussian, Inc.),
 the Gaussian(R) 98 system (copyright 1998, Gaussian, Inc.),
 the Gaussian(R) 94 system (copyright 1995, Gaussian, Inc.),
 the Gaussian 92(TM) system (copyright 1992, Gaussian, Inc.),
 the Gaussian 90(TM) system (copyright 1990, Gaussian, Inc.),
 the Gaussian 88(TM) system (copyright 1988, Gaussian, Inc.),
 the Gaussian 86(TM) system (copyright 1986, Carnegie Mellon
 University), and the Gaussian 82(TM) system (copyright 1983,
 Carnegie Mellon University). Gaussian is a federally registered
 trademark of Gaussian, Inc.
  
 This software contains proprietary and confidential information,
 including trade secrets, belonging to Gaussian, Inc.
  
 This software is provided under written license and may be
 used, copied, transmitted, or stored only in accord with that
 written license.
  
 The following legend is applicable only to US Government
 contracts under FAR:
  
                    RESTRICTED RIGHTS LEGEND
  
 Use, reproduction and disclosure by the US Government is
 subject to restrictions as set forth in subparagraphs (a)
 and (c) of the Commercial Computer Software - Restricted
 Rights clause in FAR 52.227-19.
  
 Gaussian, Inc.
 340 Quinnipiac St., Bldg. 40, Wallingford CT 06492
  
  
 ---------------------------------------------------------------
 Warning -- This program may not be used in any manner that
 competes with the business of Gaussian, Inc. or will provide
 assistance to any competitor of Gaussian, Inc.  The licensee
 of this program is prohibited from giving any competitor of
 Gaussian, Inc. access to this program.  By using this program,
 the user acknowledges that Gaussian, Inc. is engaged in the
 business of creating and licensing software in the field of
 computational chemistry and represents and warrants to the
 licensee that it is not a competitor of Gaussian, Inc. and that
 it will not use this program in any manner prohibited above.
 ---------------------------------------------------------------
  

 Cite this work as:
 Gaussian 09, Revision A.02,
 M. J. Frisch, G. W. Trucks, H. B. Schlegel, G. E. Scuseria, 
 M. A. Robb, J. R. Cheeseman, G. Scalmani, V. Barone, B. Mennucci, 
 G. A. Petersson, H. Nakatsuji, M. Caricato, X. Li, H. P. Hratchian, 
 A. F. Izmaylov, J. Bloino, G. Zheng, J. L. Sonnenberg, M. Hada, 
 M. Ehara, K. Toyota, R. Fukuda, J. Hasegawa, M. Ishida, T. Nakajima, 
 Y. Honda, O. Kitao, H. Nakai, T. Vreven, J. A. Montgomery, Jr., 
 J. E. Peralta, F. Ogliaro, M. Bearpark, J. J. Heyd, E. Brothers, 
 K. N. Kudin, V. N. Staroverov, R. Kobayashi, J. Normand, 
 K. Raghavachari, A. Rendell, J. C. Burant, S. S. Iyengar, J. Tomasi, 
 M. Cossi, N. Rega, J. M. Millam, M. Klene, J. E. Knox, J. B. Cross, 
 V. Bakken, C. Adamo, J. Jaramillo, R. Gomperts, R. E. Stratmann, 
 O. Yazyev, A. J. Austin, R. Cammi, C. Pomelli, J. W. Ochterski, 
 R. L. Martin, K. Morokuma, V. G. Zakrzewski, G. A. Voth, 
 P. Salvador, J. J. Dannenberg, S. Dapprich, A. D. Daniels, 
 O. Farkas, J. B. Foresman, J. V. Ortiz, J. Cioslowski, 
 and D. J. Fox, Gaussian, Inc., Wallingford CT, 2009.
 
 ******************************************
 Gaussian 09:  EM64L-G09RevA.02 11-Jun-2009
                20-Dec-2019 
 ******************************************
 %RWF=/scratch/bdw2292/Gau-methylamine/,20GB
 %Nosave
 %Chk=methylamine-esp.chk
 %Mem=5GB
 %Nproc=4
 Will use up to    4 processors via shared memory.
 ----------------------------------------------------------------------
 #P MP2/6-311++G(2d,2p) Sp Density=MP2 SCF=Save Guess=Huckel MaxDisk=20
 GB
 ----------------------------------------------------------------------
 1/30=1,38=1/1;
 2/12=2,17=6,18=5,40=1/2;
 3/5=4,6=6,7=1212,11=9,16=1,25=1,30=1,71=1/1,2,3;
 4/11=4/1;
 5/5=2,36=1,38=5/2;
 8/6=4,10=2/1;
 9/15=1,16=-3/6;
 10/5=1,13=10/2;
 6/7=2,8=2,9=2,10=2,22=2/1;
 99/5=1,9=1/99;
 Leave Link    1 at Fri Dec 20 14:51:18 2019, MaxMem=  671088640 cpu:       0.1
 (Enter /opt/g09gh/gaussian/g09/l101.exe)
 --------------------------------------------------------------
 methylamine Gaussian SP Calculation on bme-nova.bme.utexas.edu
 --------------------------------------------------------------
 Symbolic Z-matrix:
 Charge =  0 Multiplicity = 1
 N                     0.74768   0.       -0.12485 
 C                    -0.70295   0.        0.01639 
 H                    -1.05025  -0.00004   1.0483 
 H                    -1.11385  -0.87424  -0.47491 
 H                    -1.11384   0.87428  -0.47484 
 H                     1.13093  -0.79831   0.33851 
 H                     1.13093   0.79831   0.33851 
 
 NAtoms=      7 NQM=      7 NQMF=      0 NMic=      0 NMicF=      0 NTot=      7.
                    Isotopes and Nuclear Properties:
 (Nuclear quadrupole moments (NQMom) in fm**2, nuclear magnetic moments (NMagM)
  in nuclear magnetons)

  Atom         1           2           3           4           5           6           7
 IAtWgt=          14          12           1           1           1           1           1
 AtmWgt=  14.0030740  12.0000000   1.0078250   1.0078250   1.0078250   1.0078250   1.0078250
 NucSpn=           2           0           1           1           1           1           1
 AtZEff=   0.0000000   0.0000000   0.0000000   0.0000000   0.0000000   0.0000000   0.0000000
 NQMom=    2.0440000   0.0000000   0.0000000   0.0000000   0.0000000   0.0000000   0.0000000
 NMagM=    0.4037610   0.0000000   2.7928460   2.7928460   2.7928460   2.7928460   2.7928460
 Leave Link  101 at Fri Dec 20 14:51:18 2019, MaxMem=  671088640 cpu:       0.3
 (Enter /opt/g09gh/gaussian/g09/l202.exe)
                          Input orientation:                          
 ---------------------------------------------------------------------
 Center     Atomic      Atomic             Coordinates (Angstroms)
 Number     Number       Type             X           Y           Z
 ---------------------------------------------------------------------
      1          7           0        0.747683    0.000000   -0.124847
      2          6           0       -0.702951    0.000000    0.016393
      3          1           0       -1.050254   -0.000037    1.048304
      4          1           0       -1.113847   -0.874238   -0.474910
      5          1           0       -1.113839    0.874278   -0.474844
      6          1           0        1.130932   -0.798311    0.338513
      7          1           0        1.130931    0.798311    0.338514
 ---------------------------------------------------------------------
                    Distance matrix (angstroms):
                    1          2          3          4          5
     1  N    0.000000
     2  C    1.457494   0.000000
     3  H    2.146826   1.088788   0.000000
     4  H    2.086176   1.083746   1.757399   0.000000
     5  H    2.086175   1.083746   1.757399   1.748516   0.000000
     6  H    0.999441   2.025880   2.428707   2.388819   2.915150
     7  H    0.999441   2.025879   2.428730   2.915151   2.388789
                    6          7
     6  H    0.000000
     7  H    1.596622   0.000000
 Stoichiometry    CH5N
 Framework group  C1[X(CH5N)]
 Deg. of freedom    15
 Full point group                 C1      NOp   1
 Largest Abelian subgroup         C1      NOp   1
 Largest concise Abelian subgroup C1      NOp   1
                         Standard orientation:                         
 ---------------------------------------------------------------------
 Center     Atomic      Atomic             Coordinates (Angstroms)
 Number     Number       Type             X           Y           Z
 ---------------------------------------------------------------------
      1          7           0        0.747683    0.000000   -0.124847
      2          6           0       -0.702951    0.000000    0.016393
      3          1           0       -1.050254   -0.000037    1.048304
      4          1           0       -1.113847   -0.874238   -0.474910
      5          1           0       -1.113839    0.874278   -0.474844
      6          1           0        1.130932   -0.798311    0.338513
      7          1           0        1.130931    0.798311    0.338514
 ---------------------------------------------------------------------
 Rotational constants (GHZ):    105.4200956     23.0653061     22.1976650
 Leave Link  202 at Fri Dec 20 14:51:18 2019, MaxMem=  671088640 cpu:       0.0
 (Enter /opt/g09gh/gaussian/g09/l301.exe)
 Standard basis: 6-311++G(2d,2p) (5D, 7F)
 Ernie: Thresh=  0.10000D-02 Tol=  0.10000D-05 Strict=F.
 There are   104 symmetry adapted basis functions of A   symmetry.
 Integral buffers will be    131072 words long.
 Raffenetti 1 integral format.
 Two-electron integral symmetry is turned on.
   104 basis functions,   144 primitive gaussians,   108 cartesian basis functions
     9 alpha electrons        9 beta electrons
       nuclear repulsion energy        42.3266283526 Hartrees.
 IExCor=    0 DFT=F Ex=HF Corr=None ExCW=0 ScaHFX=  1.000000
 ScaDFX=  1.000000  1.000000  1.000000  1.000000 ScalE2=  1.000000  1.000000
 IRadAn=      0 IRanWt=     -1 IRanGd=            0 ICorTp=0
 NAtoms=    7 NActive=    7 NUniq=    7 SFac= 7.50D-01 NAtFMM=   80 NAOKFM=F Big=F
 Leave Link  301 at Fri Dec 20 14:51:19 2019, MaxMem=  671088640 cpu:       0.9
 (Enter /opt/g09gh/gaussian/g09/l302.exe)
 NPDir=0 NMtPBC=     1 NCelOv=     1 NCel=       1 NClECP=     1 NCelD=      1
         NCelK=      1 NCelE2=     1 NClLst=     1 CellRange=     0.0.
 One-electron integrals computed using PRISM.
 NBasis=   104 RedAO= T  NBF=   104
 NBsUse=   104 1.00D-06 NBFU=   104
 Leave Link  302 at Fri Dec 20 14:51:19 2019, MaxMem=  671088640 cpu:       1.6
 (Enter /opt/g09gh/gaussian/g09/l303.exe)
 DipDrv:  MaxL=1.
 Leave Link  303 at Fri Dec 20 14:51:19 2019, MaxMem=  671088640 cpu:       1.3
 (Enter /opt/g09gh/gaussian/g09/l401.exe)
 Projected New-EHT guess.
 Enter ItEHT:  IZDO=4 IZDPar=0 Conv= 1.00D-06 N=   13
 It=   1                  EEH= -88.3503225347     EQH= 0.000000000000E+00 EH= -88.3503225347    
 Initial guess orbital symmetries:
       Occupied  (A) (A) (A) (A) (A) (A) (A) (A) (A)
       Virtual   (A) (A) (A) (A) (A) (A) (A) (A) (A) (A) (A) (A)
                 (A) (A) (A) (A) (A) (A) (A) (A) (A) (A) (A) (A)
                 (A) (A) (A) (A) (A) (A) (A) (A) (A) (A) (A) (A)
                 (A) (A) (A) (A) (A) (A) (A) (A) (A) (A) (A) (A)
                 (A) (A) (A) (A) (A) (A) (A) (A) (A) (A) (A) (A)
                 (A) (A) (A) (A) (A) (A) (A) (A) (A) (A) (A) (A)
                 (A) (A) (A) (A) (A) (A) (A) (A) (A) (A) (A) (A)
                 (A) (A) (A) (A) (A) (A) (A) (A) (A) (A) (A)
 The electronic state of the initial guess is 1-A.
 Leave Link  401 at Fri Dec 20 14:51:20 2019, MaxMem=  671088640 cpu:       1.0
 (Enter /opt/g09gh/gaussian/g09/l502.exe)
 Closed shell SCF:
 Requested convergence on RMS density matrix=1.00D-08 within 128 cycles.
 Requested convergence on MAX density matrix=1.00D-06.
 Requested convergence on             energy=1.00D-06.
 No special actions if energy rises.
 Using DIIS extrapolation, IDIIS=  1040.
 Integral symmetry usage will be decided dynamically.
 Keep R1 ints in memory in canonical form, NReq=18200051.
 IEnd=       54596 IEndB=       54596 NGot=   671088640 MDV=   653736988
 LenX=   653736988 LenY=   653724883
 Symmetry not used in FoFDir.
 MinBra= 0 MaxBra= 2 Meth= 1.
 IRaf=       0 NMat=   1 IRICut=       1 DoRegI=T DoRafI=F ISym2E= 0 JSym2E=0.

 Cycle   1  Pass 1  IDiag  1:
 E= -94.6187762814211    
 DIIS: error= 2.43D-01 at cycle   1 NSaved=   1.
 NSaved= 1 IEnMin= 1 EnMin= -94.6187762814211     IErMin= 1 ErrMin= 2.43D-01
 ErrMax= 2.43D-01 EMaxC= 1.00D-01 BMatC= 2.63D+00 BMatP= 2.63D+00
 IDIUse=3 WtCom= 0.00D+00 WtEn= 1.00D+00
 Coeff-Com:  0.100D+01
 Coeff-En:   0.100D+01
 Coeff:      0.100D+01
 Gap=     1.021 Goal=   None    Shift=    0.000
 GapD=    1.021 DampG=2.000 DampE=0.250 DampFc=0.5000 IDamp=-1.
 Damping current iteration by 5.00D-01
 RMSDP=4.88D-03 MaxDP=2.24D-01              OVMax= 2.13D-01

 Cycle   2  Pass 1  IDiag  1:
 E= -94.9186418117652     Delta-E=       -0.299865530344 Rises=F Damp=T
 DIIS: error= 1.25D-01 at cycle   2 NSaved=   2.
 NSaved= 2 IEnMin= 2 EnMin= -94.9186418117652     IErMin= 2 ErrMin= 1.25D-01
 ErrMax= 1.25D-01 EMaxC= 1.00D-01 BMatC= 7.30D-01 BMatP= 2.63D+00
 IDIUse=3 WtCom= 0.00D+00 WtEn= 1.00D+00
 Coeff-Com: -0.109D+01 0.209D+01
 Coeff-En:   0.000D+00 0.100D+01
 Coeff:      0.000D+00 0.100D+01
 Gap=     0.408 Goal=   None    Shift=    0.000
 RMSDP=2.61D-03 MaxDP=1.15D-01 DE=-3.00D-01 OVMax= 1.94D-02

 Cycle   3  Pass 1  IDiag  1:
 E= -95.2452273073389     Delta-E=       -0.326585495574 Rises=F Damp=F
 DIIS: error= 8.14D-03 at cycle   3 NSaved=   3.
 NSaved= 3 IEnMin= 3 EnMin= -95.2452273073389     IErMin= 3 ErrMin= 8.14D-03
 ErrMax= 8.14D-03 EMaxC= 1.00D-01 BMatC= 4.92D-03 BMatP= 7.30D-01
 IDIUse=3 WtCom= 9.19D-01 WtEn= 8.14D-02
 Coeff-Com:  0.468D+00-0.966D+00 0.150D+01
 Coeff-En:   0.000D+00 0.000D+00 0.100D+01
 Coeff:      0.430D+00-0.887D+00 0.146D+01
 Gap=     0.431 Goal=   None    Shift=    0.000
 RMSDP=8.49D-04 MaxDP=2.27D-02 DE=-3.27D-01 OVMax= 3.31D-02

 Cycle   4  Pass 1  IDiag  1:
 E= -95.2504905426152     Delta-E=       -0.005263235276 Rises=F Damp=F
 DIIS: error= 1.35D-03 at cycle   4 NSaved=   4.
 NSaved= 4 IEnMin= 4 EnMin= -95.2504905426152     IErMin= 4 ErrMin= 1.35D-03
 ErrMax= 1.35D-03 EMaxC= 1.00D-01 BMatC= 2.33D-04 BMatP= 4.92D-03
 IDIUse=3 WtCom= 9.86D-01 WtEn= 1.35D-02
 Coeff-Com:  0.452D-01-0.781D-01-0.166D+00 0.120D+01
 Coeff-En:   0.000D+00 0.000D+00 0.000D+00 0.100D+01
 Coeff:      0.446D-01-0.771D-01-0.163D+00 0.120D+01
 Gap=     0.433 Goal=   None    Shift=    0.000
 RMSDP=2.58D-04 MaxDP=7.40D-03 DE=-5.26D-03 OVMax= 1.23D-02

 Cycle   5  Pass 1  IDiag  1:
 E= -95.2509699636948     Delta-E=       -0.000479421080 Rises=F Damp=F
 DIIS: error= 3.39D-04 at cycle   5 NSaved=   5.
 NSaved= 5 IEnMin= 5 EnMin= -95.2509699636948     IErMin= 5 ErrMin= 3.39D-04
 ErrMax= 3.39D-04 EMaxC= 1.00D-01 BMatC= 1.21D-05 BMatP= 2.33D-04
 IDIUse=3 WtCom= 9.97D-01 WtEn= 3.39D-03
 Coeff-Com: -0.200D-01 0.402D-01-0.359D-01-0.239D+00 0.125D+01
 Coeff-En:   0.000D+00 0.000D+00 0.000D+00 0.000D+00 0.100D+01
 Coeff:     -0.199D-01 0.400D-01-0.358D-01-0.238D+00 0.125D+01
 Gap=     0.432 Goal=   None    Shift=    0.000
 RMSDP=8.76D-05 MaxDP=1.57D-03 DE=-4.79D-04 OVMax= 4.99D-03

 Cycle   6  Pass 1  IDiag  1:
 E= -95.2510109145113     Delta-E=       -0.000040950817 Rises=F Damp=F
 DIIS: error= 8.73D-05 at cycle   6 NSaved=   6.
 NSaved= 6 IEnMin= 6 EnMin= -95.2510109145113     IErMin= 6 ErrMin= 8.73D-05
 ErrMax= 8.73D-05 EMaxC= 1.00D-01 BMatC= 7.52D-07 BMatP= 1.21D-05
 IDIUse=1 WtCom= 1.00D+00 WtEn= 0.00D+00
 Coeff-Com:  0.272D-03-0.147D-02 0.185D-01-0.686D-01-0.882D-01 0.114D+01
 Coeff:      0.272D-03-0.147D-02 0.185D-01-0.686D-01-0.882D-01 0.114D+01
 Gap=     0.432 Goal=   None    Shift=    0.000
 RMSDP=1.81D-05 MaxDP=5.00D-04 DE=-4.10D-05 OVMax= 1.22D-03

 Cycle   7  Pass 1  IDiag  1:
 E= -95.2510132901477     Delta-E=       -0.000002375636 Rises=F Damp=F
 DIIS: error= 2.72D-05 at cycle   7 NSaved=   7.
 NSaved= 7 IEnMin= 7 EnMin= -95.2510132901477     IErMin= 7 ErrMin= 2.72D-05
 ErrMax= 2.72D-05 EMaxC= 1.00D-01 BMatC= 4.67D-08 BMatP= 7.52D-07
 IDIUse=1 WtCom= 1.00D+00 WtEn= 0.00D+00
 Coeff-Com:  0.864D-03-0.170D-02 0.806D-03 0.151D-01-0.592D-01-0.992D-01
 Coeff-Com:  0.114D+01
 Coeff:      0.864D-03-0.170D-02 0.806D-03 0.151D-01-0.592D-01-0.992D-01
 Coeff:      0.114D+01
 Gap=     0.432 Goal=   None    Shift=    0.000
 RMSDP=4.22D-06 MaxDP=1.31D-04 DE=-2.38D-06 OVMax= 3.26D-04

 Cycle   8  Pass 1  IDiag  1:
 E= -95.2510134449138     Delta-E=       -0.000000154766 Rises=F Damp=F
 DIIS: error= 7.76D-06 at cycle   8 NSaved=   8.
 NSaved= 8 IEnMin= 8 EnMin= -95.2510134449138     IErMin= 8 ErrMin= 7.76D-06
 ErrMax= 7.76D-06 EMaxC= 1.00D-01 BMatC= 4.47D-09 BMatP= 4.67D-08
 IDIUse=1 WtCom= 1.00D+00 WtEn= 0.00D+00
 Coeff-Com:  0.960D-04-0.140D-03-0.932D-03 0.613D-02 0.167D-03-0.104D+00
 Coeff-Com:  0.155D+00 0.944D+00
 Coeff:      0.960D-04-0.140D-03-0.932D-03 0.613D-02 0.167D-03-0.104D+00
 Coeff:      0.155D+00 0.944D+00
 Gap=     0.432 Goal=   None    Shift=    0.000
 RMSDP=1.18D-06 MaxDP=2.67D-05 DE=-1.55D-07 OVMax= 8.28D-05

 Cycle   9  Pass 1  IDiag  1:
 E= -95.2510134565124     Delta-E=       -0.000000011599 Rises=F Damp=F
 DIIS: error= 2.58D-06 at cycle   9 NSaved=   9.
 NSaved= 9 IEnMin= 9 EnMin= -95.2510134565124     IErMin= 9 ErrMin= 2.58D-06
 ErrMax= 2.58D-06 EMaxC= 1.00D-01 BMatC= 3.12D-10 BMatP= 4.47D-09
 IDIUse=1 WtCom= 1.00D+00 WtEn= 0.00D+00
 Coeff-Com: -0.112D-03 0.208D-03 0.154D-03-0.305D-02 0.580D-02 0.305D-01
 Coeff-Com: -0.130D+00-0.199D+00 0.130D+01
 Coeff:     -0.112D-03 0.208D-03 0.154D-03-0.305D-02 0.580D-02 0.305D-01
 Coeff:     -0.130D+00-0.199D+00 0.130D+01
 Gap=     0.432 Goal=   None    Shift=    0.000
 RMSDP=5.46D-07 MaxDP=1.37D-05 DE=-1.16D-08 OVMax= 3.38D-05

 Cycle  10  Pass 1  IDiag  1:
 E= -95.2510134577214     Delta-E=       -0.000000001209 Rises=F Damp=F
 DIIS: error= 4.39D-07 at cycle  10 NSaved=  10.
 NSaved=10 IEnMin=10 EnMin= -95.2510134577214     IErMin=10 ErrMin= 4.39D-07
 ErrMax= 4.39D-07 EMaxC= 1.00D-01 BMatC= 1.24D-11 BMatP= 3.12D-10
 IDIUse=1 WtCom= 1.00D+00 WtEn= 0.00D+00
 Coeff-Com:  0.167D-04-0.332D-04 0.247D-04 0.274D-03-0.114D-02-0.163D-04
 Coeff-Com:  0.169D-01-0.784D-02-0.269D+00 0.126D+01
 Coeff:      0.167D-04-0.332D-04 0.247D-04 0.274D-03-0.114D-02-0.163D-04
 Coeff:      0.169D-01-0.784D-02-0.269D+00 0.126D+01
 Gap=     0.432 Goal=   None    Shift=    0.000
 RMSDP=8.92D-08 MaxDP=2.03D-06 DE=-1.21D-09 OVMax= 6.31D-06

 Cycle  11  Pass 1  IDiag  1:
 E= -95.2510134577690     Delta-E=       -0.000000000048 Rises=F Damp=F
 DIIS: error= 7.52D-08 at cycle  11 NSaved=  11.
 NSaved=11 IEnMin=11 EnMin= -95.2510134577690     IErMin=11 ErrMin= 7.52D-08
 ErrMax= 7.52D-08 EMaxC= 1.00D-01 BMatC= 5.62D-13 BMatP= 1.24D-11
 IDIUse=1 WtCom= 1.00D+00 WtEn= 0.00D+00
 Coeff-Com: -0.123D-05 0.282D-05-0.114D-04 0.178D-04 0.131D-03-0.116D-02
 Coeff-Com:  0.142D-03 0.108D-01 0.194D-01-0.346D+00 0.132D+01
 Coeff:     -0.123D-05 0.282D-05-0.114D-04 0.178D-04 0.131D-03-0.116D-02
 Coeff:      0.142D-03 0.108D-01 0.194D-01-0.346D+00 0.132D+01
 Gap=     0.432 Goal=   None    Shift=    0.000
 RMSDP=3.49D-08 MaxDP=8.07D-07 DE=-4.76D-11 OVMax= 1.09D-06

 Cycle  12  Pass 1  IDiag  1:
 E= -95.2510134577707     Delta-E=       -0.000000000002 Rises=F Damp=F
 DIIS: error= 1.21D-08 at cycle  12 NSaved=  12.
 NSaved=12 IEnMin=12 EnMin= -95.2510134577707     IErMin=12 ErrMin= 1.21D-08
 ErrMax= 1.21D-08 EMaxC= 1.00D-01 BMatC= 1.74D-14 BMatP= 5.62D-13
 IDIUse=1 WtCom= 1.00D+00 WtEn= 0.00D+00
 Coeff-Com: -0.788D-06 0.146D-05 0.140D-05-0.217D-04 0.294D-04 0.337D-03
 Coeff-Com: -0.975D-03-0.238D-02 0.790D-02 0.309D-01-0.301D+00 0.126D+01
 Coeff:     -0.788D-06 0.146D-05 0.140D-05-0.217D-04 0.294D-04 0.337D-03
 Coeff:     -0.975D-03-0.238D-02 0.790D-02 0.309D-01-0.301D+00 0.126D+01
 Gap=     0.432 Goal=   None    Shift=    0.000
 RMSDP=9.40D-09 MaxDP=2.21D-07 DE=-1.65D-12 OVMax= 1.49D-07

 SCF Done:  E(RHF) =  -95.2510134578     A.U. after   12 cycles
             Convg  =    0.9398D-08             -V/T =  2.0001
 KE= 9.524107365649D+01 PE=-3.072098735040D+02 EE= 7.439115803720D+01
 Leave Link  502 at Fri Dec 20 14:51:21 2019, MaxMem=  671088640 cpu:       5.0
 (Enter /opt/g09gh/gaussian/g09/l801.exe)
 ExpMin= 3.60D-02 ExpMax= 6.29D+03 ExpMxC= 9.49D+02 IAcc=3 IRadAn=         5 AccDes= 0.00D+00
 HarFok:  IExCor=  205 AccDes= 0.00D+00 IRadAn=         5 IDoV=-2
 ScaDFX=  1.000000  1.000000  1.000000  1.000000
 Largest valence mixing into a core orbital is  1.32D-04
 Largest core mixing into a valence orbital is  3.32D-05
 Range of M.O.s used for correlation:     3   104
 NBasis=   104 NAE=     9 NBE=     9 NFC=     2 NFV=     0
 NROrb=    102 NOA=     7 NOB=     7 NVA=    95 NVB=    95

 **** Warning!!: The largest alpha MO coefficient is  0.18126260D+02

 Leave Link  801 at Fri Dec 20 14:51:21 2019, MaxMem=  671088640 cpu:       0.7
 (Enter /opt/g09gh/gaussian/g09/l906.exe)
 Frozen-core derivative calculation, NFC=   2 NFV=   0.
 FulOut=F Deriv=T AODrv=F NAtomX=     7
   MMem=        1030  MDisk=           7 MDiskD=           7
  W3Min=      101088 MinDsk=      255146 NBas6D=         108
 NBas2D=        6024    NTT=        5886    LW2=     2040000
    MDV=   670950757 MDiskM=       86027 NBas2p=        6024
 Fully in-core method, ICMem=    42695424.
 IMap=   1   2   3   4   5   6   7   8   9
 JobTyp=1 Pass  1 fully in-core, NPsUse=  4.
 Compute canonical integrals, IntTyp=   4.
 Symmetry not used in FoFDir.
 MinBra= 0 MaxBra= 2 Meth= 1.
 IRaf=       0 NMat=   1 IRICut=       1 DoRegI=T DoRafI=F ISym2E= 0 JSym2E=0.
 Spin components of T(2) and E(2):
     alpha-alpha T2 =       0.1322768675D-01 E2=     -0.4173263762D-01
     alpha-beta  T2 =       0.8518136753D-01 E2=     -0.2860815597D+00
     beta-beta   T2 =       0.1322768675D-01 E2=     -0.4173263762D-01
 The integrals were generated   1 times.
 ANorm=    0.1054341852D+01
 E2 =    -0.3695468349D+00 EUMP2 =    -0.95620560292713D+02
 Leave Link  906 at Fri Dec 20 14:51:26 2019, MaxMem=  671088640 cpu:      12.6
 (Enter /opt/g09gh/gaussian/g09/l1002.exe)
 Minotr:  Closed shell wavefunction.
          Computing MP2/KS-MP2 derivatives.
          Using Z-Vector for PSCF gradient.
          Skipping F1 and S1 gradient terms here.
          Frozen-core window.
          Direct CPHF calculation.
          Differentiating once with respect to electric field.
                with respect to dipole field.
          Electric field/nuclear overlap derivatives assumed to be zero.
          Requested convergence is 1.0D-10 RMS, and 1.0D-09 maximum.
          NewPWx=F KeepS1=T KeepF1=T KeepIn=T MapXYZ=F SortEE=F KeepMc=T.
          MDV=     671088580 using IRadAn=       0.
          Keep R1 ints in memory in canonical form, NReq=18146240.
 Symmetry not used in FoFDir.
 MinBra= 0 MaxBra= 2 Meth= 1.
 IRaf=       0 NMat=   1 IRICut=       1 DoRegI=T DoRafI=F ISym2E= 0 JSym2E=0.
          Solving linear equations separately, MaxMat=       0.
          There are     1 degrees of freedom in the 1st order CPHF.  IDoFFX=0.
 LinEq1:  Iter=  0 NonCon=     1 RMS=3.70D-03 Max=4.21D-02
 AX will form     1 AO Fock derivatives at one time.
 LinEq1:  Iter=  1 NonCon=     1 RMS=8.63D-04 Max=8.86D-03
 LinEq1:  Iter=  2 NonCon=     1 RMS=3.15D-04 Max=2.97D-03
 LinEq1:  Iter=  3 NonCon=     1 RMS=6.66D-05 Max=6.18D-04
 LinEq1:  Iter=  4 NonCon=     1 RMS=2.17D-05 Max=1.77D-04
 LinEq1:  Iter=  5 NonCon=     1 RMS=5.46D-06 Max=4.29D-05
 LinEq1:  Iter=  6 NonCon=     1 RMS=1.08D-06 Max=7.11D-06
 LinEq1:  Iter=  7 NonCon=     1 RMS=1.83D-07 Max=1.53D-06
 LinEq1:  Iter=  8 NonCon=     1 RMS=3.09D-08 Max=2.39D-07
 LinEq1:  Iter=  9 NonCon=     1 RMS=6.29D-09 Max=4.30D-08
 LinEq1:  Iter= 10 NonCon=     1 RMS=9.57D-10 Max=5.58D-09
 LinEq1:  Iter= 11 NonCon=     1 RMS=1.51D-10 Max=9.18D-10
 LinEq1:  Iter= 12 NonCon=     0 RMS=2.08D-11 Max=1.33D-10
 Linear equations converged to 1.000D-10 1.000D-09 after    12 iterations.
 End of Minotr Frequency-dependent properties file   721 does not exist.
 End of Minotr Frequency-dependent properties file   722 does not exist.
 Leave Link 1002 at Fri Dec 20 14:51:27 2019, MaxMem=  671088640 cpu:       4.8
 (Enter /opt/g09gh/gaussian/g09/l601.exe)
 Copying SCF densities to generalized density rwf, IOpCl= 0 IROHF=0.

 **********************************************************************

            Population analysis using the MP2 density.

 **********************************************************************

 Orbital symmetries:
       Occupied  (A) (A) (A) (A) (A) (A) (A) (A) (A)
       Virtual   (A) (A) (A) (A) (A) (A) (A) (A) (A) (A) (A) (A)
                 (A) (A) (A) (A) (A) (A) (A) (A) (A) (A) (A) (A)
                 (A) (A) (A) (A) (A) (A) (A) (A) (A) (A) (A) (A)
                 (A) (A) (A) (A) (A) (A) (A) (A) (A) (A) (A) (A)
                 (A) (A) (A) (A) (A) (A) (A) (A) (A) (A) (A) (A)
                 (A) (A) (A) (A) (A) (A) (A) (A) (A) (A) (A) (A)
                 (A) (A) (A) (A) (A) (A) (A) (A) (A) (A) (A) (A)
                 (A) (A) (A) (A) (A) (A) (A) (A) (A) (A) (A)
 The electronic state is 1-A.
 Alpha  occ. eigenvalues --  -15.53499 -11.23742  -1.17642  -0.89916  -0.66798
 Alpha  occ. eigenvalues --   -0.60625  -0.55928  -0.51968  -0.39206
 Alpha virt. eigenvalues --    0.04009   0.06196   0.06627   0.07573   0.09844
 Alpha virt. eigenvalues --    0.12621   0.16039   0.16044   0.18508   0.21386
 Alpha virt. eigenvalues --    0.24070   0.24872   0.29763   0.30247   0.31370
 Alpha virt. eigenvalues --    0.32511   0.35846   0.35943   0.44907   0.57142
 Alpha virt. eigenvalues --    0.57942   0.65089   0.68116   0.72859   0.75103
 Alpha virt. eigenvalues --    0.76358   0.77688   0.79601   0.81984   0.84479
 Alpha virt. eigenvalues --    0.85703   0.92416   0.96587   1.04904   1.05639
 Alpha virt. eigenvalues --    1.11512   1.12439   1.21103   1.29006   1.29121
 Alpha virt. eigenvalues --    1.33784   1.38594   1.40146   1.45392   1.49410
 Alpha virt. eigenvalues --    1.51041   1.58607   1.64363   1.68858   1.70204
 Alpha virt. eigenvalues --    1.74778   1.78748   1.89448   1.90282   1.99515
 Alpha virt. eigenvalues --    2.15040   2.18177   2.86053   2.90802   3.07460
 Alpha virt. eigenvalues --    3.23275   3.24900   3.53734   3.57821   3.68087
 Alpha virt. eigenvalues --    3.72688   3.73540   3.85659   3.96091   3.98204
 Alpha virt. eigenvalues --    4.12375   4.18557   4.20624   4.20943   4.29986
 Alpha virt. eigenvalues --    4.30320   4.32703   4.42452   4.43774   4.49100
 Alpha virt. eigenvalues --    4.49495   4.58690   4.65474   4.85321   5.38237
 Alpha virt. eigenvalues --    5.44736   5.51005   5.57144   5.60194   5.63125
 Alpha virt. eigenvalues --    5.65782   6.07158   6.46192  25.16030  37.04487
          Condensed to atoms (all electrons):
              1          2          3          4          5          6
     1  N    6.539457   0.187050  -0.069332  -0.036103  -0.036103   0.376975
     2  C    0.187050   4.873805   0.390538   0.390496   0.390495  -0.040856
     3  H   -0.069332   0.390538   0.703834  -0.038407  -0.038405  -0.000692
     4  H   -0.036103   0.390496  -0.038407   0.632934  -0.023861  -0.007298
     5  H   -0.036103   0.390495  -0.038405  -0.023861   0.632934   0.006234
     6  H    0.376975  -0.040856  -0.000692  -0.007298   0.006234   0.563484
     7  H    0.376975  -0.040856  -0.000691   0.006234  -0.007299  -0.040061
              7
     1  N    0.376975
     2  C   -0.040856
     3  H   -0.000691
     4  H    0.006234
     5  H   -0.007299
     6  H   -0.040061
     7  H    0.563484
 Mulliken atomic charges:
              1
     1  N   -0.338920
     2  C   -0.150672
     3  H    0.053154
     4  H    0.076006
     5  H    0.076004
     6  H    0.142214
     7  H    0.142214
 Sum of Mulliken atomic charges =   0.00000
 Mulliken charges with hydrogens summed into heavy atoms:
              1
     1  N   -0.054492
     2  C    0.054492
 Sum of Mulliken charges with hydrogens summed into heavy atoms =   0.00000
 Electronic spatial extent (au):  <R**2>=             95.1999
 Charge=              0.0000 electrons
 Dipole moment (field-independent basis, Debye):
    X=             -0.3471    Y=              0.0000    Z=              1.4055  Tot=              1.4478
 Quadrupole moment (field-independent basis, Debye-Ang):
   XX=            -14.3608   YY=            -12.8345   ZZ=            -15.7703
   XY=              0.0000   XZ=              2.1751   YZ=              0.0000
 Traceless Quadrupole moment (field-independent basis, Debye-Ang):
   XX=             -0.0389   YY=              1.4874   ZZ=             -1.4484
   XY=              0.0000   XZ=              2.1751   YZ=              0.0000
 Octapole moment (field-independent basis, Debye-Ang**2):
  XXX=              2.2516  YYY=              0.0001  ZZZ=              1.9456  XYY=              1.8059
  XXY=              0.0000  XXZ=              2.2954  XZZ=             -0.9919  YZZ=             -0.0001
  YYZ=              0.4225  XYZ=              0.0000
 Hexadecapole moment (field-independent basis, Debye-Ang**3):
 XXXX=            -78.1398 YYYY=            -24.1100 ZZZZ=            -27.0892 XXXY=              0.0000
 XXXZ=              4.6890 YYYX=             -0.0001 YYYZ=              0.0000 ZZZX=              2.1200
 ZZZY=              0.0000 XXYY=            -14.9880 XXZZ=            -18.7817 YYZZ=             -8.4876
 XXYZ=              0.0000 YYXZ=              2.1609 ZZXY=              0.0001
 N-N= 4.232662835258D+01 E-N=-3.073897437556D+02  KE= 9.565386495598D+01
 No NMR shielding tensors so no spin-rotation constants.
 Leave Link  601 at Fri Dec 20 14:51:27 2019, MaxMem=  671088640 cpu:       1.4
 (Enter /opt/g09gh/gaussian/g09/l9999.exe)
 1\1\GINC-BME-NOVA\SP\RMP2-FC\6-311++G(2d,2p)\C1H5N1\BDW2292\20-Dec-201
 9\0\\#P MP2/6-311++G(2d,2p) Sp Density=MP2 SCF=Save Guess=Huckel MaxDi
 sk=20GB\\methylamine Gaussian SP Calculation on bme-nova.bme.utexas.ed
 u\\0,1\N,0,0.747683,0.,-0.124847\C,0,-0.702951,0.,0.016393\H,0,-1.0502
 54,-0.000037,1.048304\H,0,-1.113847,-0.874238,-0.47491\H,0,-1.113839,0
 .874278,-0.474844\H,0,1.130932,-0.798311,0.338513\H,0,1.130931,0.79831
 1,0.338514\\Version=EM64L-G09RevA.02\State=1-A\HF=-95.2510135\MP2=-95.
 6205603\RMSD=9.398e-09\Dipole=-0.136569,0.0000009,0.5529793\Quadrupole
 =-0.0289558,1.1058403,-1.0768845,-0.0000097,1.6171476,0.0000043\PG=C01
  [X(C1H5N1)]\\@


 NO MATTER HOW THIN YOU SLICE IT, IT'S STILL BALONEY

                                   -- ALFRED E. SMITH
 Job cpu time:  0 days  0 hours  0 minutes 32.6 seconds.
 File lengths (MBytes):  RWF=     10 Int=      0 D2E=      0 Chk=      2 Scr=      1
 Normal termination of Gaussian 09 at Fri Dec 20 14:51:28 2019.
