methylamine Gaussian SP Calculation on bme-nova.bme.utexas.edu          
Freq      RHF                                                         6-311G(d)           
Number of atoms                            I                7
Info1-9                                    I   N=           9
          19          18        1002           0           0         100
           6           1           2
Charge                                     I                0
Multiplicity                               I                1
Number of electrons                        I               18
Number of alpha electrons                  I                9
Number of beta electrons                   I                9
Number of basis functions                  I               51
Number of independent functions            I               51
Number of point charges in /Mol/           I                0
Number of translation vectors              I                0
Atomic numbers                             I   N=           7
           7           6           1           1           1           1
           1
Nuclear charges                            R   N=           7
  7.00000000E+00  6.00000000E+00  1.00000000E+00  1.00000000E+00  1.00000000E+00
  1.00000000E+00  1.00000000E+00
Current cartesian coordinates              R   N=          21
  1.41291564E+00 -4.48278436E-07 -2.35927548E-01 -1.32838395E+00 -4.23574555E-07
  3.09774160E-02 -1.98469167E+00 -7.07362042E-05  1.98100826E+00 -2.10486518E+00
 -1.65206967E+00 -8.97450704E-01 -2.10484974E+00  1.65214633E+00 -8.97325434E-01
  2.13715138E+00 -1.50858987E+00  6.39697622E-01  2.13714944E+00  1.50858962E+00
  6.39698594E-01
Force Field                                I                0
Int Atom Types                             I   N=           7
           0           0           0           0           0           0
           0
MM charges                                 R   N=           7
  0.00000000E+00  0.00000000E+00  0.00000000E+00  0.00000000E+00  0.00000000E+00
  0.00000000E+00  0.00000000E+00
Integer atomic weights                     I   N=           7
          14          12           1           1           1           1
           1
Real atomic weights                        R   N=           7
  1.40030740E+01  1.20000000E+01  1.00782504E+00  1.00782504E+00  1.00782504E+00
  1.00782504E+00  1.00782504E+00
Atom fragment info                         I   N=           7
           0           0           0           0           0           0
           0
Atom residue num                           I   N=           7
           0           0           0           0           0           0
           0
Nuclear spins                              I   N=           7
           2           0           1           1           1           1
           1
Nuclear ZEff                               R   N=           7
 -4.55000000E+00 -3.60000000E+00 -1.00000000E+00 -1.00000000E+00 -1.00000000E+00
 -1.00000000E+00 -1.00000000E+00
Nuclear QMom                               R   N=           7
  2.04400000E+00  0.00000000E+00  0.00000000E+00  0.00000000E+00  0.00000000E+00
  0.00000000E+00  0.00000000E+00
Nuclear GFac                               R   N=           7
  4.03761000E-01  0.00000000E+00  2.79284600E+00  2.79284600E+00  2.79284600E+00
  2.79284600E+00  2.79284600E+00
MicOpt                                     I   N=           7
          -1          -1          -1          -1          -1          -1
          -1
Number of contracted shells                I               25
Number of primitive shells                 I               49
Pure/Cartesian d shells                    I                0
Pure/Cartesian f shells                    I                0
Highest angular momentum                   I                2
Largest degree of contraction              I                6
Shell types                                I   N=          25
           0          -1          -1          -1          -2           0
          -1          -1          -1          -2           0           0
           0           0           0           0           0           0
           0           0           0           0           0           0
           0
Number of primitives per shell             I   N=          25
           6           3           1           1           1           6
           3           1           1           1           3           1
           1           3           1           1           3           1
           1           3           1           1           3           1
           1
Shell to atom map                          I   N=          25
           1           1           1           1           1           2
           2           2           2           2           3           3
           3           4           4           4           5           5
           5           6           6           6           7           7
           7
Primitive exponents                        R   N=          49
  6.29348000E+03  9.49044000E+02  2.18776000E+02  6.36916000E+01  1.88282000E+01
  2.72023000E+00  3.06331000E+01  7.02614000E+00  2.11205000E+00  6.84009000E-01
  2.00878000E-01  9.13000000E-01  4.56324000E+03  6.82024000E+02  1.54973000E+02
  4.44553000E+01  1.30290000E+01  1.82773000E+00  2.09642000E+01  4.80331000E+00
  1.45933000E+00  4.83456000E-01  1.45585000E-01  6.26000000E-01  3.38650000E+01
  5.09479000E+00  1.15879000E+00  3.25840000E-01  1.02741000E-01  3.38650000E+01
  5.09479000E+00  1.15879000E+00  3.25840000E-01  1.02741000E-01  3.38650000E+01
  5.09479000E+00  1.15879000E+00  3.25840000E-01  1.02741000E-01  3.38650000E+01
  5.09479000E+00  1.15879000E+00  3.25840000E-01  1.02741000E-01  3.38650000E+01
  5.09479000E+00  1.15879000E+00  3.25840000E-01  1.02741000E-01
Contraction coefficients                   R   N=          49
  1.96978815E-03  1.49612859E-02  7.35005308E-02  2.48936766E-01  6.02459433E-01
  2.56201759E-01  1.11906080E-01  9.21666655E-01 -2.56919183E-03  1.00000000E+00
  1.00000000E+00  1.00000000E+00  1.96665025E-03  1.52306019E-02  7.61269097E-02
  2.60801033E-01  6.16462078E-01  2.21006028E-01  1.14660081E-01  9.19999648E-01
 -3.03068213E-03  1.00000000E+00  1.00000000E+00  1.00000000E+00  2.54938145E-02
  1.90373109E-01  8.52161486E-01  1.00000000E+00  1.00000000E+00  2.54938145E-02
  1.90373109E-01  8.52161486E-01  1.00000000E+00  1.00000000E+00  2.54938145E-02
  1.90373109E-01  8.52161486E-01  1.00000000E+00  1.00000000E+00  2.54938145E-02
  1.90373109E-01  8.52161486E-01  1.00000000E+00  1.00000000E+00  2.54938145E-02
  1.90373109E-01  8.52161486E-01  1.00000000E+00  1.00000000E+00
P(S=P) Contraction coefficients            R   N=          49
  0.00000000E+00  0.00000000E+00  0.00000000E+00  0.00000000E+00  0.00000000E+00
  0.00000000E+00  3.83119186E-02  2.37403116E-01  8.17592398E-01  1.00000000E+00
  1.00000000E+00  0.00000000E+00  0.00000000E+00  0.00000000E+00  0.00000000E+00
  0.00000000E+00  0.00000000E+00  0.00000000E+00  4.02486927E-02  2.37593957E-01
  8.15853851E-01  1.00000000E+00  1.00000000E+00  0.00000000E+00  0.00000000E+00
  0.00000000E+00  0.00000000E+00  0.00000000E+00  0.00000000E+00  0.00000000E+00
  0.00000000E+00  0.00000000E+00  0.00000000E+00  0.00000000E+00  0.00000000E+00
  0.00000000E+00  0.00000000E+00  0.00000000E+00  0.00000000E+00  0.00000000E+00
  0.00000000E+00  0.00000000E+00  0.00000000E+00  0.00000000E+00  0.00000000E+00
  0.00000000E+00  0.00000000E+00  0.00000000E+00  0.00000000E+00
Coordinates of each shell                  R   N=          75
  1.41291564E+00 -4.48278436E-07 -2.35927548E-01  1.41291564E+00 -4.48278436E-07
 -2.35927548E-01  1.41291564E+00 -4.48278436E-07 -2.35927548E-01  1.41291564E+00
 -4.48278436E-07 -2.35927548E-01  1.41291564E+00 -4.48278436E-07 -2.35927548E-01
 -1.32838395E+00 -4.23574555E-07  3.09774160E-02 -1.32838395E+00 -4.23574555E-07
  3.09774160E-02 -1.32838395E+00 -4.23574555E-07  3.09774160E-02 -1.32838395E+00
 -4.23574555E-07  3.09774160E-02 -1.32838395E+00 -4.23574555E-07  3.09774160E-02
 -1.98469167E+00 -7.07362042E-05  1.98100826E+00 -1.98469167E+00 -7.07362042E-05
  1.98100826E+00 -1.98469167E+00 -7.07362042E-05  1.98100826E+00 -2.10486518E+00
 -1.65206967E+00 -8.97450704E-01 -2.10486518E+00 -1.65206967E+00 -8.97450704E-01
 -2.10486518E+00 -1.65206967E+00 -8.97450704E-01 -2.10484974E+00  1.65214633E+00
 -8.97325434E-01 -2.10484974E+00  1.65214633E+00 -8.97325434E-01 -2.10484974E+00
  1.65214633E+00 -8.97325434E-01  2.13715138E+00 -1.50858987E+00  6.39697622E-01
  2.13715138E+00 -1.50858987E+00  6.39697622E-01  2.13715138E+00 -1.50858987E+00
  6.39697622E-01  2.13714944E+00  1.50858962E+00  6.39698594E-01  2.13714944E+00
  1.50858962E+00  6.39698594E-01  2.13714944E+00  1.50858962E+00  6.39698594E-01
Constraint Structure                       R   N=          21
  1.41291564E+00 -4.48278436E-07 -2.35927548E-01 -1.32838395E+00 -4.23574555E-07
  3.09774160E-02 -1.98469167E+00 -7.07362042E-05  1.98100826E+00 -2.10486518E+00
 -1.65206967E+00 -8.97450704E-01 -2.10484974E+00  1.65214633E+00 -8.97325434E-01
  2.13715138E+00 -1.50858987E+00  6.39697622E-01  2.13714944E+00  1.50858962E+00
  6.39698594E-01
Num ILSW                                   I              100
ILSW                                       I   N=         100
           0           0           0           0           2           0
           0           0           0           0           0  2684354560
           0           0           0           0           0           0
           0           0           0           0           1           0
           1           0           0           0           0           0
           0           0      100000           0          -1           0
           0           0           0           0           0           0
           0           0           0           1           0           0
           0           0           1           0           0           0
           0           0           4          40           0           0
           0           0           0           0           0           0
           0           0           0           0           0           0
           0           0           0           0           0           0
           0           0           0           0           0           0
           0           0           0           0           0           0
           0           0           0           0           0           0
           0           0           0           0
Num RLSW                                   I               40
RLSW                                       R   N=          40
  1.00000000E+00  1.00000000E+00  1.00000000E+00  1.00000000E+00  1.00000000E+00
  0.00000000E+00  0.00000000E+00  1.00000000E+00  0.00000000E+00  0.00000000E+00
  0.00000000E+00  0.00000000E+00  1.00000000E+00  0.00000000E+00  0.00000000E+00
  0.00000000E+00  0.00000000E+00  1.00000000E+00  0.00000000E+00  0.00000000E+00
  0.00000000E+00  0.00000000E+00  1.00000000E+00  0.00000000E+00  0.00000000E+00
  0.00000000E+00  0.00000000E+00  1.00000000E+00  0.00000000E+00  0.00000000E+00
  0.00000000E+00  0.00000000E+00  0.00000000E+00  0.00000000E+00  0.00000000E+00
  0.00000000E+00  0.00000000E+00  0.00000000E+00  1.00000000E+00  1.00000000E+00
MxBond                                     I                4
NBond                                      I   N=           7
           3           4           1           1           1           1
           1
IBond                                      I   N=          28
           2           6           7           0           1           3
           4           5           2           0           0           0
           2           0           0           0           2           0
           0           0           1           0           0           0
           1           0           0           0
RBond                                      R   N=          28
  1.00000000E+00  1.00000000E+00  1.00000000E+00  0.00000000E+00  1.00000000E+00
  1.00000000E+00  1.00000000E+00  1.00000000E+00  1.00000000E+00  0.00000000E+00
  0.00000000E+00  0.00000000E+00  1.00000000E+00  0.00000000E+00  0.00000000E+00
  0.00000000E+00  1.00000000E+00  0.00000000E+00  0.00000000E+00  0.00000000E+00
  1.00000000E+00  0.00000000E+00  0.00000000E+00  0.00000000E+00  1.00000000E+00
  0.00000000E+00  0.00000000E+00  0.00000000E+00
Virial Ratio                               R      1.999356707922190E+00
SCF Energy                                 R     -9.523672821536815E+01
Total Energy                               R     -9.523672821536815E+01
RMS Force                                  R      9.404737310238763E-05
RMS Density                                R      6.685869846200224E-10
External E-field                           R   N=          35
  0.00000000E+00  0.00000000E+00  0.00000000E+00  0.00000000E+00  0.00000000E+00
  0.00000000E+00  0.00000000E+00  0.00000000E+00  0.00000000E+00  0.00000000E+00
  0.00000000E+00  0.00000000E+00  0.00000000E+00  0.00000000E+00  0.00000000E+00
  0.00000000E+00  0.00000000E+00  0.00000000E+00  0.00000000E+00  0.00000000E+00
  0.00000000E+00  0.00000000E+00  0.00000000E+00  0.00000000E+00  0.00000000E+00
  0.00000000E+00  0.00000000E+00  0.00000000E+00  0.00000000E+00  0.00000000E+00
  0.00000000E+00  0.00000000E+00  0.00000000E+00  0.00000000E+00  0.00000000E+00
IOpCl                                      I                0
IROHF                                      I                0
Alpha Orbital Energies                     R   N=          51
 -1.55283275E+01 -1.12350071E+01 -1.17375996E+00 -8.96672563E-01 -6.65752605E-01
 -6.04091751E-01 -5.56806328E-01 -5.17711108E-01 -3.93310930E-01  1.61857848E-01
  1.98332612E-01  2.15375485E-01  2.37216484E-01  2.64105383E-01  3.78638259E-01
  4.75947740E-01  4.86601348E-01  5.54700094E-01  5.69844568E-01  7.15206824E-01
  7.71197013E-01  8.16118795E-01  8.19036609E-01  8.58313123E-01  9.80751771E-01
  9.83015646E-01  9.98660883E-01  1.36396379E+00  1.56263580E+00  1.56664731E+00
  1.77435062E+00  1.78543563E+00  1.97568346E+00  2.19555308E+00  2.27317075E+00
  2.40862488E+00  2.47139555E+00  2.62517764E+00  2.70636880E+00  2.85568214E+00
  2.89166420E+00  3.07480650E+00  3.26237502E+00  3.52105915E+00  3.56026012E+00
  3.70183982E+00  4.29272469E+00  4.54018676E+00  4.96821788E+00  2.46199165E+01
  3.68022682E+01
Alpha MO coefficients                      R   N=        2601
  5.57635180E-01  4.68231031E-01 -4.84781265E-04 -2.48089883E-09  1.69132462E-03
  5.12306784E-03  2.52193558E-04  1.24506733E-09 -5.70784856E-04 -8.58123417E-04
  1.83096383E-04 -1.01347559E-09  1.11967892E-04  1.52158285E-04 -1.43273773E-05
 -4.07093466E-10 -8.05969993E-05 -1.17177961E-10  8.86673137E-06 -3.53345447E-05
  5.94686656E-05  1.79348515E-10 -1.83109767E-05  1.45622989E-04  2.73927462E-04
 -1.01435945E-09  1.17799557E-05  5.60781746E-04  1.96741028E-04  2.98765067E-09
 -7.67615869E-05 -7.83691817E-05  1.58648655E-05  5.78460605E-10  1.32725392E-04
 -4.03073468E-11  8.55098691E-06 -5.80185273E-05 -2.11047375E-05  2.06931724E-05
 -9.65595192E-05 -1.05736976E-05  2.06936312E-05 -9.65588957E-05 -1.05784868E-05
  2.69373268E-04  5.14001452E-05  8.64515808E-05  2.69373165E-04  5.14001838E-05
  8.64522572E-05 -8.86642616E-05 -1.48482513E-04 -1.06413425E-04  2.93640097E-11
  1.16884513E-05  3.09461604E-04 -4.66201976E-04 -3.53545105E-10  5.02194764E-05
  3.64794793E-04 -1.15957475E-04 -2.78853551E-10  3.49312064E-05 -9.17754253E-05
 -5.15631357E-05 -4.11546291E-11  1.72958034E-04  3.82114151E-10  5.63396263E-01
  4.66548286E-01  5.70655659E-04  1.42468477E-09 -4.16577421E-05  4.26986145E-03
 -5.08850146E-04  9.65277814E-10  2.66383901E-05 -1.37139087E-03  1.11165629E-04
 -9.25697202E-10  1.00481068E-05  9.13046532E-05  3.14611202E-05  2.99420704E-10
 -1.93252870E-04  6.04823582E-10  3.47941414E-04  1.08243537E-04  2.69355207E-04
  3.48088239E-04  1.09210998E-04  2.78721756E-04  3.48088195E-04  1.09210928E-04
  2.78722085E-04  4.85304823E-06 -3.05895738E-05 -1.77368608E-05  4.85295492E-06
 -3.05889030E-05 -1.77375431E-05 -9.97004526E-02 -1.66058202E-01 -1.57469085E-02
  9.19792468E-09  2.63403163E-02  4.41905398E-01 -2.00892742E-02 -7.72399077E-09
  6.03339784E-02  3.90166134E-01 -2.02390667E-02  6.63241451E-08  3.55752217E-02
 -8.84129345E-03  5.57517635E-03  1.60733979E-08 -3.00888531E-03 -1.41637761E-08
 -5.01749469E-02 -8.39849169E-02  3.98461072E-02  5.56387621E-08 -1.78258294E-03
  2.17521598E-01  6.33998942E-02  1.50754258E-07 -3.98941262E-03  6.78274373E-02
 -8.14971374E-03 -1.45677786E-07  5.24215282E-04 -8.24604205E-03 -2.25263708E-03
 -3.51631923E-09  1.31761607E-02  9.65114178E-09  2.70845370E-02  2.59508174E-02
 -3.61307859E-03  2.73199544E-02  2.62586410E-02 -2.73419499E-03  2.73201121E-02
  2.62588594E-02 -2.73393536E-03  8.26432572E-02  3.93678166E-02 -6.35160381E-04
  8.26432635E-02  3.93678027E-02 -6.35157978E-04  4.01937292E-02  6.71102138E-02
 -6.76261077E-02  1.01472227E-07 -2.29205758E-02 -1.78979062E-01 -1.27536630E-01
  1.49688645E-07 -4.58347772E-02 -2.09375064E-01 -5.02771006E-02  1.50947377E-07
 -2.49421566E-02 -3.73025592E-03 -1.26018022E-02  1.78105297E-08  1.87686224E-02
  3.15018162E-08 -8.94863271E-02 -1.51149633E-01 -3.57992775E-02  1.84281088E-07
 -3.12698545E-03  3.96518061E-01 -7.16475206E-02  3.74860266E-07 -4.80562723E-03
  3.36307609E-01 -2.40707036E-02  4.56313167E-08  5.86762184E-03  8.41425497E-03
  1.42777909E-03  1.94524392E-08 -1.67722935E-02  6.16127343E-08  8.35030465E-02
  7.59481349E-02 -1.48055937E-03  8.76553826E-02  8.40605505E-02  2.30197869E-03
  8.76553246E-02  8.40604460E-02  2.30192964E-03 -6.37988166E-02 -5.43416598E-02
 -1.21567663E-02 -6.37986452E-02 -5.43415320E-02 -1.21567776E-02 -2.02698932E-09
 -2.85987186E-09 -2.06528662E-07  1.77222064E-01 -6.20691825E-08  2.07295788E-08
 -3.00094901E-07  3.04101237E-01 -7.13605225E-08 -1.69571775E-07 -3.40351277E-07
  1.95252715E-01 -3.08548794E-07  2.57762433E-09 -2.20724432E-08  3.44770077E-02
 -3.97655564E-09  1.08417430E-02  1.16985448E-07  2.00568350E-07  3.23886926E-07
  9.47437657E-02 -9.30312678E-08 -5.47702517E-07  5.90115068E-07  1.65161400E-01
 -2.65571120E-07 -7.02793152E-07  4.15512673E-07  9.98713995E-02  6.18785859E-07
 -1.63989402E-06 -1.26269686E-07 -1.51519612E-02 -9.82301030E-07  5.12101184E-04
 -2.85988286E-06 -3.65679284E-06 -1.57283003E-06 -6.14662511E-02 -7.22307776E-02
 -2.07669426E-02  6.14688023E-02  7.22343203E-02  2.07684497E-02 -1.22709260E-01
 -1.50853168E-01 -4.31303354E-02  1.22709120E-01  1.50853283E-01  4.31303659E-02
  1.66853363E-02  2.80497991E-02  1.04640403E-01  3.70012873E-07  1.01245220E-01
 -8.55080627E-02  1.72349365E-01  6.22968921E-07  1.64429086E-01 -6.90595913E-02
  1.14522486E-01  5.49395617E-07  1.43616345E-01  1.11019837E-02  5.12092982E-03
  4.11766900E-08 -1.31718354E-02  3.22556935E-09 -3.54192253E-03 -6.12692511E-03
 -8.85373435E-02  1.20090078E-07  1.33181002E-01  1.17847755E-02 -1.57364313E-01
  1.55297842E-07  2.34834109E-01  3.67638950E-02 -7.88290306E-02  3.15025229E-07
  1.24137358E-01  3.12589054E-02 -5.10707729E-03 -2.38906502E-06 -1.04040651E-02
 -1.17832227E-07  1.36775455E-01  1.82654076E-01  7.79491943E-02 -1.73162778E-02
 -2.57442634E-02 -1.61859034E-02 -1.73096760E-02 -2.57355068E-02 -1.61822925E-02
  5.75109162E-02  6.21725491E-02  2.46909191E-02  5.75113724E-02  6.21729037E-02
  2.46910588E-02 -1.40173255E-03 -2.68746315E-03  1.50405306E-01  4.10613959E-07
 -2.93926543E-02  9.11878107E-03  2.43327873E-01  7.40016835E-07 -4.62496239E-02
  6.15309408E-03  2.02007691E-01  2.84949483E-07 -4.43765095E-02 -5.46409256E-04
  2.27171806E-02  1.19898179E-07 -1.49126921E-02  2.40778652E-08  3.35565234E-03
  5.39471680E-03 -1.34634988E-01 -3.55711426E-07 -1.09077866E-01 -1.82714078E-02
 -2.29142115E-01 -6.46765351E-07 -1.90039048E-01  3.69601789E-02 -1.23925656E-01
 -3.81876450E-07 -1.37792199E-01 -5.57779021E-03  1.81790904E-02  2.51482161E-06
 -3.53652376E-02  3.35466567E-07 -5.94872722E-02 -8.10289957E-02 -4.10112277E-02
  8.93406507E-02  1.17701517E-01  4.89555263E-02  8.93332280E-02  1.17691821E-01
  4.89510049E-02  4.59308016E-02  6.32160405E-02  3.15226983E-02  4.59313332E-02
  6.32171202E-02  3.15234409E-02  8.73069147E-08  1.45905708E-07  6.53444262E-07
 -1.03675739E-01  9.82860210E-09 -3.77548769E-07  1.10073310E-06 -1.73654208E-01
 -6.10501396E-09 -1.08498218E-06  7.33800748E-07 -1.39436244E-01 -1.92975170E-07
 -8.87051947E-08  6.53625563E-08 -2.12493980E-02 -9.96320873E-08 -2.07376547E-02
  6.57232233E-08  1.12296473E-07 -2.86001969E-07  1.65193349E-01 -2.48665209E-07
 -3.69106022E-07 -4.18909476E-07  2.89681789E-01 -4.19553388E-07  1.05408375E-08
 -1.38078498E-07  1.99965979E-01 -4.74043565E-07 -3.12686044E-06 -1.76994599E-07
 -3.11901852E-02 -2.15281799E-06 -3.47330952E-02 -5.68998350E-06 -8.09741744E-06
 -4.11800252E-06 -1.29210782E-01 -1.86074970E-01 -9.22498591E-02  1.29217152E-01
  1.86084073E-01  9.22542128E-02  8.29717183E-02  1.15435424E-01  6.67713936E-02
 -8.29713665E-02 -1.15434290E-01 -6.67710727E-02  2.79157227E-02  4.75054649E-02
 -5.56613428E-02 -1.87721527E-07  2.27494197E-01 -1.45517014E-01 -7.95614113E-02
 -2.25190519E-07  3.43978281E-01 -1.63618880E-01 -1.35615676E-01 -9.50003247E-07
  4.62152272E-01  1.35564641E-02  3.81164492E-04  6.63140051E-08  7.95878271E-04
  1.37131245E-08 -5.40451521E-03 -9.09629849E-03  3.00342940E-02 -1.44229477E-07
 -7.67874475E-02  2.70835975E-02  4.17358849E-02 -2.48286710E-07 -1.35404424E-01
 -5.58361530E-02 -7.23357055E-04  3.66490676E-08 -1.05849179E-01 -2.13584690E-02
  3.37319087E-02  1.93157705E-06 -4.05138792E-03  1.48569317E-07 -9.25836231E-02
 -1.56776995E-01 -8.50303462E-02  3.65956055E-02  7.52531257E-02  2.78267843E-02
  3.65899292E-02  7.52430473E-02  2.78213466E-02  4.28665361E-02  3.78986577E-02
  2.37275235E-02  4.28665699E-02  3.78996019E-02  2.37282261E-02 -2.58028798E-02
 -4.24028776E-02  4.11510226E-02  4.78126321E-08  2.94696570E-02  8.40123350E-02
  4.53282370E-02  8.20717193E-08  4.30909635E-02  6.53272118E-01  2.81286759E-01
 -2.05765572E-07  1.25184246E-01  4.28173783E-04  4.25613786E-03  2.06951606E-08
 -2.16137203E-03 -5.41993711E-08 -3.02595733E-02 -4.75717462E-02 -5.49360069E-02
  5.22483634E-07  1.16017658E-02  1.73425243E-02 -6.30880775E-02  6.68534782E-07
  9.90782447E-03  1.65640509E+00 -2.68964179E-01  4.58910866E-06  6.94399443E-02
 -2.96446045E-03  1.33743688E-03 -5.29410271E-08  6.61051830E-03 -2.49012995E-08
 -3.47927573E-03 -9.80150401E-03 -7.58664629E-01 -2.23897055E-03 -1.80550023E-02
 -6.20302593E-01 -2.23921093E-03 -1.80558588E-02 -6.20314901E-01 -1.50986419E-02
  4.08755463E-02 -6.13367678E-01 -1.50987589E-02  4.08757492E-02 -6.13369062E-01
  3.09119426E-02  5.05476833E-02 -1.08555183E-02  1.31007829E-07 -3.96916550E-02
 -8.51410209E-02  9.05659402E-03  1.83631790E-07 -5.74498829E-02 -9.31148119E-01
 -7.58183548E-02  1.05145240E-06 -1.76388655E-01 -3.17828771E-03  4.46445715E-04
 -3.48803025E-08  5.75449483E-03  1.02261648E-07 -3.50940004E-02 -5.78147981E-02
 -1.25023975E-02 -7.60623701E-07 -2.10346690E-02  8.12569483E-02  2.21321371E-02
 -7.91540455E-07 -1.62623520E-02  1.37246799E+00 -1.80813392E-01 -6.38083872E-06
 -1.95854386E-01  1.61425689E-03 -2.29444344E-03  1.13209569E-07 -7.55031815E-03
  6.71252405E-08 -9.34114550E-03  5.55922435E-02 -4.60122140E-01 -1.12535008E-02
  6.84146712E-02 -9.26595438E-01 -1.12530186E-02  6.84149071E-02 -9.26559611E-01
  2.05559390E-02 -5.87665612E-02  8.29366931E-01  2.05560795E-02 -5.87671770E-02
  8.29370074E-01 -3.88996582E-08 -6.14861802E-08  2.48012965E-07 -7.89372860E-02
 -3.10535221E-07  1.91515805E-07  2.97306814E-07 -8.63922091E-02  3.36308812E-08
  6.02294860E-07  3.91941184E-08 -3.88223478E-01 -5.18554670E-06 -3.08876749E-07
 -2.55434817E-07 -7.66034876E-03 -2.51415996E-07  9.94551875E-03 -2.28367514E-08
 -2.56472572E-08 -6.78784697E-08 -9.85307995E-02  2.52029496E-06 -2.16957006E-07
 -4.96261519E-08 -8.19835181E-02  2.57688512E-06  1.89588242E-06  1.77753023E-07
 -8.45299630E-01  2.29837793E-05 -9.18771890E-08 -8.28864751E-08  2.33880186E-03
 -5.15283880E-08 -7.98416436E-03 -9.08293932E-07  2.79928271E-06 -9.10200644E-05
 -1.12355907E-02  6.81213847E-02 -1.30141108E+00  1.12364489E-02 -6.81247600E-02
  1.30150280E+00 -1.96372708E-02  6.94161870E-02 -1.09122071E+00  1.96371971E-02
 -6.94108654E-02  1.09121235E+00 -8.22564755E-03 -1.33199431E-02 -5.05555097E-03
  1.67171520E-07  1.45346239E-02  1.77336022E-02 -9.46868820E-03  4.94909304E-07
  1.23703701E-03  3.04456249E-01 -1.47675899E-02  2.84012763E-06  2.06311053E-01
  2.20050583E-03  1.05648165E-02 -4.65705844E-07  2.28821135E-03  3.00923287E-07
  4.90024703E-03  8.13675694E-03 -1.24976586E-02 -2.97082434E-06 -1.31377685E-01
 -9.90415237E-03 -1.97669936E-02 -2.52746539E-06 -1.20666312E-01 -2.06410971E-01
 -1.50397215E-01 -2.80416722E-05 -1.17198664E+00  3.63897182E-03 -4.43884804E-03
 -5.30850549E-07  3.58955872E-03 -1.19950266E-07  1.76810351E-02 -1.42283416E-01
  2.28023150E+00 -6.45325005E-03  5.43207786E-02 -1.02594585E+00 -6.45181167E-03
  5.43069243E-02 -1.02571354E+00  1.48184959E-03 -1.75748051E-02 -1.53973712E-01
  1.48155924E-03 -1.75824239E-02 -1.53953529E-01  4.34453232E-08  7.73903285E-08
  9.37879851E-08  9.80923406E-02  2.67783339E-07 -1.38456537E-07  1.05025162E-07
  9.62782842E-02  6.21809370E-07 -1.41367871E-06 -6.24420088E-07  6.73334673E-01
 -2.07107303E-06 -3.84909606E-07 -2.34890842E-07  4.74381412E-03 -3.32933278E-07
  6.23742277E-03  8.68166350E-09  2.37520571E-08 -2.31597941E-08 -8.95690618E-02
  1.89908841E-06 -2.45121888E-07 -1.19048429E-07 -8.53905342E-02  1.76235108E-06
 -4.92502837E-07  7.82302487E-07 -9.39744610E-01  1.41527399E-05 -5.79654407E-07
  3.37410273E-07 -9.13225771E-03 -2.55239396E-07  1.47480277E-03 -4.74546298E-07
  8.38621654E-06 -1.02153005E-04 -1.28876125E-02  3.02152194E-02 -1.46526308E+00
  1.28880012E-02 -3.02240074E-02  1.46537077E+00  8.86143646E-03 -4.85472494E-02
  1.28859849E+00 -8.86113993E-03  4.85549307E-02 -1.28860830E+00  2.47609790E-02
  4.01682696E-02  1.34628269E-01  4.87081450E-08  1.44080211E-02 -4.67306530E-02
  1.67794198E-01 -2.84104607E-08  2.05353832E-02 -1.46725690E+00  1.23940930E+00
  1.52234349E-06 -2.21864241E-02  5.70298541E-03  6.50953680E-03 -7.04051303E-08
 -6.57099463E-06  3.32318725E-08 -1.20026377E-02 -1.80656516E-02  8.45485246E-02
 -3.71486901E-07 -1.16386311E-02 -3.09024092E-02  4.65009199E-02 -5.29611692E-07
 -3.64246564E-03  1.10582483E+00  2.22312967E+00 -2.17786100E-06 -2.82413667E-01
  1.06852130E-02  9.03577880E-03 -4.04911472E-08 -2.06431000E-02 -2.27090920E-08
  1.37196502E-02  1.94951607E-01  4.56418661E-01  1.98006208E-02  1.97614856E-01
  1.14787843E-01  1.98006982E-02  1.97614513E-01  1.14802743E-01 -1.62705321E-03
  9.45031151E-02 -5.96985824E-01 -1.62715734E-03  9.45000810E-02 -5.96981530E-01
  9.49715175E-08  2.24541303E-07 -2.94002991E-07  7.46922994E-03  2.13974708E-06
 -2.76682204E-06 -2.58677462E-06  6.65421466E-02  2.31559587E-06  1.64204016E-05
  1.93789635E-05 -3.82599921E-01  3.01580084E-05  1.49636941E-06  7.81660131E-07
  7.09733258E-04  1.08206713E-06 -2.37828222E-02 -2.28457303E-07 -5.21542187E-07
  9.98174966E-07  2.03666132E-02 -4.24173490E-07  4.25762196E-06  3.31639137E-06
 -1.65443433E-02  1.99918896E-06 -1.90899726E-06  4.55443267E-07  1.80441021E+00
 -6.18521156E-05  3.30854670E-06  9.66649808E-07  2.36747615E-02  1.89613851E-06
  3.64579902E-03  3.48421700E-06  9.24439186E-05 -8.01414755E-06  5.36104302E-02
  1.18063031E+00 -1.40470702E-01 -5.36138161E-02 -1.18072111E+00  1.40479136E-01
  3.99918846E-02 -8.29552770E-03  3.22068556E-01 -3.99907006E-02  8.24214300E-03
 -3.22048285E-01 -6.62298781E-03 -1.22834755E-02  1.55215888E-02 -1.24488415E-06
 -5.55590255E-02  5.83902600E-02  5.17416246E-02  2.90974171E-06 -6.01322019E-02
 -4.66727632E-02 -1.84435932E-01 -7.11242283E-05 -5.74273167E-01 -1.00840309E-02
 -1.78178419E-02  1.48547433E-06 -5.45914335E-03 -5.32357853E-07  2.44323019E-03
  5.61119598E-03 -6.44569637E-03 -5.39529203E-07  3.06579501E-02 -4.29277513E-02
 -3.39241655E-02 -4.02285581E-06 -1.49218130E-02 -9.84048734E-03  1.14962345E-01
  8.83391872E-05  1.93802477E+00 -2.35151126E-02 -1.65146183E-02  4.59212402E-06
 -1.74912834E-02 -1.23674340E-07 -5.50518959E-02 -1.36012891E+00 -2.36516623E-02
  2.63743804E-02  6.81370003E-01  1.97326803E-02  2.63698597E-02  6.81195671E-01
  1.97430426E-02 -2.14924307E-02  1.67373103E-01 -9.44372885E-02 -2.14919589E-02
  1.67487396E-01 -9.45402446E-02 -2.83821658E-07 -5.18514973E-07 -2.07956119E-07
  8.18554804E-02 -2.93793060E-06  2.65425476E-06  2.36321394E-06  8.67869015E-02
 -4.24028264E-06 -7.67072911E-06 -2.37592216E-05  1.60152615E+00 -2.86599796E-05
 -7.32644205E-07 -1.27530234E-06 -1.61908028E-02 -8.95475321E-07 -1.42374509E-02
  3.84894811E-07  8.17008422E-07 -1.26710743E-06  3.10729347E-02  2.73029833E-06
 -4.66564379E-06 -5.37582579E-06  1.48894615E-01  4.07755883E-06 -1.06851620E-05
  3.30437543E-06 -1.03521033E+00  8.58783774E-05 -1.48470200E-06 -1.25783806E-07
 -2.59494909E-02 -6.97539687E-07  4.01533546E-02 -1.82812024E-06 -6.14220594E-05
 -2.27213543E-05  3.44271996E-02 -1.60917074E-01 -1.70084283E-01 -3.44252754E-02
  1.60985867E-01  1.70105597E-01  6.49057512E-02  1.43469536E+00 -6.81819504E-01
 -6.49070652E-02 -1.43465879E+00  6.81810419E-01  8.68894545E-03  1.49641236E-02
 -7.49121738E-02 -9.37428861E-07 -3.75157622E-02  6.35995680E-03  2.10730603E-04
 -3.13390109E-07 -7.16866767E-02 -1.21815702E+00 -1.05780507E+00 -2.07189897E-05
 -7.39362318E-01  5.57755009E-03  2.03518052E-03  3.07785786E-07 -4.82797491E-02
 -5.20571303E-07  2.59985840E-02  5.61797561E-02 -1.26251454E-01  1.34988127E-06
 -1.85618607E-02 -3.70673174E-01 -4.85140969E-01  3.51713399E-06 -8.74159749E-02
  4.48210999E-02  4.99656227E-01  3.25643020E-05  3.84187770E-01 -1.13653765E-02