Generated by Psi4
        SP                        DF-MP2                      6-311G**
Number of atoms                            I                6
Charge                                     I                0
Multiplicity                               I                1
Number of electrons                        I               18
Number of alpha electrons                  I                9
Number of beta electrons                   I                9
Number of basis functions                  I               60
Number of independent functions            I               60
Atomic numbers                             I   N=           6
           8           6           1           1           1           1
Nuclear charges                            R   N=           6
  8.00000000e+00  6.00000000e+00  1.00000000e+00  1.00000000e+00  1.00000000e+00
  1.00000000e+00
Current cartesian coordinates              R   N=          18
  1.31609331e+00  7.69977389e-02  2.63594718e-02 -1.38484978e+00  1.89279299e-02
  6.13969092e-03 -2.13434642e+00 -1.41352250e+00  1.29734158e+00 -2.13369461e+00
 -3.32963385e-01 -1.89024536e+00 -2.01809476e+00  1.87496365e+00  6.35180331e-01
  1.88794899e+00 -1.57585937e+00 -5.33724742e-01
Integer atomic weights                     I   N=           6
          15          12           1           1           1           1
Real atomic weights                        R   N=           6
  1.59949146e+01  1.20000000e+01  1.00782503e+00  1.00782503e+00  1.00782503e+00
  1.00782503e+00
Number of primitive shells                 I               58
Number of contracted shells                I               32
Pure/Cartesian d shells                    I                0
Pure/Cartesian f shells                    I                0
Highest angular momentum                   I                2
Largest degree of contraction              I                6
Shell types                                I   N=          32
           0           0           1           0           1           0
           1          -2           0           0           1           0
           1           0           1          -2           0           0
           0           1           0           0           0           1
           0           0           0           1           0           0
           0           1
Number of primitives per shell             I   N=          32
           6           3           3           1           1           1
           1           1           6           3           3           1
           1           1           1           1           3           1
           1           1           3           1           1           1
           3           1           1           1           3           1
           1           1
Shell to atom map                          I   N=          32
           1           1           1           1           1           1
           1           1           2           2           2           2
           2           2           2           2           3           3
           3           3           4           4           4           4
           5           5           5           5           6           6
           6           6
Primitive exponents                        R   N=          58
  8.58850000e+03  1.29723000e+03  2.99296000e+02  8.73771000e+01  2.56789000e+01
  3.74004000e+00  4.21175000e+01  9.62837000e+00  2.85332000e+00  4.21175000e+01
  9.62837000e+00  2.85332000e+00  9.05661000e-01  9.05661000e-01  2.55611000e-01
  2.55611000e-01  1.29200000e+00  4.56324000e+03  6.82024000e+02  1.54973000e+02
  4.44553000e+01  1.30290000e+01  1.82773000e+00  2.09642000e+01  4.80331000e+00
  1.45933000e+00  2.09642000e+01  4.80331000e+00  1.45933000e+00  4.83456000e-01
  4.83456000e-01  1.45585000e-01  1.45585000e-01  6.26000000e-01  3.38650000e+01
  5.09479000e+00  1.15879000e+00  3.25840000e-01  1.02741000e-01  7.50000000e-01
  3.38650000e+01  5.09479000e+00  1.15879000e+00  3.25840000e-01  1.02741000e-01
  7.50000000e-01  3.38650000e+01  5.09479000e+00  1.15879000e+00  3.25840000e-01
  1.02741000e-01  7.50000000e-01  3.38650000e+01  5.09479000e+00  1.15879000e+00
  3.25840000e-01  1.02741000e-01  7.50000000e-01
Contraction coefficients                   R   N=          58
  1.89515008e-03  1.43859006e-02  7.07320031e-02  2.40001011e-01  5.94797026e-01
  2.80802012e-01  1.13889012e-01  9.20811101e-01 -3.27447036e-03  3.65113974e-02
  2.37152983e-01  8.19701941e-01  1.00000000e+00  1.00000000e+00  1.00000000e+00
  1.00000000e+00  1.00000000e+00  1.96665025e-03  1.52306019e-02  7.61269097e-02
  2.60801033e-01  6.16462078e-01  2.21006028e-01  1.14660081e-01  9.19999648e-01
 -3.03068213e-03  4.02486927e-02  2.37593957e-01  8.15853851e-01  1.00000000e+00
  1.00000000e+00  1.00000000e+00  1.00000000e+00  1.00000000e+00  2.54938145e-02
  1.90373109e-01  8.52161486e-01  1.00000000e+00  1.00000000e+00  1.00000000e+00
  2.54938145e-02  1.90373109e-01  8.52161486e-01  1.00000000e+00  1.00000000e+00
  1.00000000e+00  2.54938145e-02  1.90373109e-01  8.52161486e-01  1.00000000e+00
  1.00000000e+00  1.00000000e+00  2.54938145e-02  1.90373109e-01  8.52161486e-01
  1.00000000e+00  1.00000000e+00  1.00000000e+00
Coordinates of each shell                  R   N=          96
  1.31609331e+00  7.69977389e-02  2.63594718e-02  1.31609331e+00  7.69977389e-02
  2.63594718e-02  1.31609331e+00  7.69977389e-02  2.63594718e-02  1.31609331e+00
  7.69977389e-02  2.63594718e-02  1.31609331e+00  7.69977389e-02  2.63594718e-02
  1.31609331e+00  7.69977389e-02  2.63594718e-02  1.31609331e+00  7.69977389e-02
  2.63594718e-02  1.31609331e+00  7.69977389e-02  2.63594718e-02 -1.38484978e+00
  1.89279299e-02  6.13969092e-03 -1.38484978e+00  1.89279299e-02  6.13969092e-03
 -1.38484978e+00  1.89279299e-02  6.13969092e-03 -1.38484978e+00  1.89279299e-02
  6.13969092e-03 -1.38484978e+00  1.89279299e-02  6.13969092e-03 -1.38484978e+00
  1.89279299e-02  6.13969092e-03 -1.38484978e+00  1.89279299e-02  6.13969092e-03
 -1.38484978e+00  1.89279299e-02  6.13969092e-03 -2.13434642e+00 -1.41352250e+00
  1.29734158e+00 -2.13434642e+00 -1.41352250e+00  1.29734158e+00 -2.13434642e+00
 -1.41352250e+00  1.29734158e+00 -2.13434642e+00 -1.41352250e+00  1.29734158e+00
 -2.13369461e+00 -3.32963385e-01 -1.89024536e+00 -2.13369461e+00 -3.32963385e-01
 -1.89024536e+00 -2.13369461e+00 -3.32963385e-01 -1.89024536e+00 -2.13369461e+00
 -3.32963385e-01 -1.89024536e+00 -2.01809476e+00  1.87496365e+00  6.35180331e-01
 -2.01809476e+00  1.87496365e+00  6.35180331e-01 -2.01809476e+00  1.87496365e+00
  6.35180331e-01 -2.01809476e+00  1.87496365e+00  6.35180331e-01  1.88794899e+00
 -1.57585937e+00 -5.33724742e-01  1.88794899e+00 -1.57585937e+00 -5.33724742e-01
  1.88794899e+00 -1.57585937e+00 -5.33724742e-01  1.88794899e+00 -1.57585937e+00
 -5.33724742e-01
Total Energy                               R     -1.154431459133349e+02
Alpha Orbital Energies                     R   N=          60
 -2.05497895e+01 -1.12663934e+01 -1.35012613e+00 -9.18509826e-01 -6.83624651e-01
 -6.14475046e-01 -5.87416449e-01 -5.03065063e-01 -4.50145708e-01  1.62827706e-01
  1.96647289e-01  2.35146719e-01  2.36632257e-01  3.44962664e-01  4.63322946e-01
  4.78186908e-01  5.77525166e-01  6.80265563e-01  7.30390262e-01  7.89475331e-01
  8.02023363e-01  9.04903157e-01  1.01077737e+00  1.04178551e+00  1.10594590e+00
  1.31889842e+00  1.38100452e+00  1.60055976e+00  1.62102927e+00  1.71541339e+00
  1.71789278e+00  1.74077430e+00  1.74375459e+00  1.86968325e+00  1.94254209e+00
  2.04648491e+00  2.25956247e+00  2.29257698e+00  2.39724909e+00  2.47118174e+00
  2.61906073e+00  2.65545258e+00  2.71463710e+00  2.80216446e+00  2.82836034e+00
  2.91078897e+00  3.10547405e+00  3.28820951e+00  3.46003369e+00  3.57787555e+00
  3.66414591e+00  4.06324523e+00  4.16701505e+00  4.28991061e+00  4.36051643e+00
  5.39778445e+00  5.77752131e+00  6.16727513e+00  2.50201570e+01  5.15668381e+01
Alpha MO coefficients                      R   N=        3600
  5.51462925e-01  4.71674075e-01 -9.37588307e-04 -1.29128136e-03 -4.37837758e-04
  5.55619893e-03  3.32256033e-04  4.92038556e-04  1.66831630e-04 -7.57052298e-04
  1.52133829e-04 -1.10570012e-04 -3.74446596e-05  1.40366717e-04  1.59114673e-05
 -6.44943313e-05 -7.46609998e-05  4.71449581e-05 -2.69615179e-06 -2.93292319e-05
  2.46528055e-05  1.25417544e-05  4.25625886e-06  7.73768711e-05  2.44830797e-04
 -3.63925715e-05 -1.22881001e-05  4.96902378e-04  1.95408357e-04  1.22418806e-04
  4.15308157e-05 -5.57393065e-05 -7.34021041e-06 -7.28390929e-06  1.15553135e-04
 -2.17829194e-05  9.29060948e-06 -5.26187114e-05 -1.58739114e-06 -2.39239187e-05
 -3.73132700e-06 -1.82358048e-05  9.28983750e-06 -5.26262376e-05 -1.58671040e-06
 -2.39295078e-05 -1.40491949e-05  1.21973702e-05  2.80913107e-05 -1.21773622e-04
 -4.29071678e-05 -1.83222277e-06 -1.28219003e-05 -4.34627629e-06  1.95425183e-04
  1.05884565e-04  6.11756438e-05 -7.32185912e-05  6.67407653e-05  2.26054453e-05
 -6.53090072e-05 -1.17687771e-04 -9.05617289e-05 -8.62684961e-06 -2.94201333e-06
  2.59866879e-04 -5.37597064e-04  2.12752483e-06  6.14358562e-07  4.06946505e-04
 -1.85166666e-04 -2.40234510e-05 -8.17949855e-06 -1.09980746e-04  1.00699938e-05
 -4.60650070e-06  2.02541883e-04  2.94822659e-05  5.63471734e-01  4.66568957e-01
  1.01804224e-03 -2.59860714e-05 -8.60117546e-06  4.00496142e-03 -7.93225082e-04
  2.43657386e-05  8.10150234e-06 -1.24248039e-03  1.25147367e-04 -2.76777932e-05
 -9.35250262e-06  1.41726440e-04 -1.02350151e-06  1.10376121e-05 -2.74311773e-04
 -2.70769394e-06  3.38568050e-04  8.81606290e-05  2.52318861e-04  3.72973028e-05
 -1.12392621e-05  1.28521438e-05  3.38567608e-04  8.81697582e-05  2.52317874e-04
  3.73044490e-05 -1.11174636e-06 -1.70207645e-05  3.39028665e-04  8.91781363e-05
  2.67210893e-04  3.59331964e-05  1.88506610e-05  6.39790232e-06 -1.57121799e-05
  6.18701582e-06 -2.40895014e-05 -9.91135911e-06  3.48808888e-05  1.18200955e-05
  1.10183935e-01  1.84087487e-01  1.98569334e-02  2.39386295e-02  8.11742514e-03
 -5.22249318e-01  3.71044902e-02  4.17933918e-02  1.41723356e-02 -4.04545592e-01
  2.72563858e-02  1.33592341e-02  4.53327962e-03  6.44608773e-03  4.65648667e-04
 -3.69323752e-03 -1.51893066e-03  1.38209459e-03  3.60670199e-02  5.89783984e-02
 -3.83399733e-02  5.92478359e-04  1.93171622e-04 -1.47310199e-01 -7.71236907e-02
  1.97055438e-03  6.52445629e-04 -3.45489728e-03  4.02475322e-03  2.89405869e-03
  9.81491408e-04  1.38565072e-02  4.50308169e-04 -3.09204073e-04 -2.31918990e-02
  1.35641580e-03 -1.42933975e-02 -2.93489961e-02  8.02341322e-04 -4.13408763e-03
 -5.66692299e-03  4.97292857e-03 -1.42933931e-02 -2.93491322e-02  8.02109555e-04
 -4.13147616e-03 -1.47422813e-03 -7.39542660e-03 -1.47082382e-02 -3.02778756e-02
 -9.02290611e-04 -3.16423191e-03  7.22389256e-03  2.44818330e-03 -8.55505489e-02
 -6.90693455e-02  6.02508305e-04  1.04363048e-02 -2.24942640e-02 -7.62182507e-03
  3.14652370e-02  5.28843068e-02 -7.95514627e-02  3.06919228e-02  1.03864380e-02
 -1.52927855e-01 -1.26768954e-01  5.01288936e-02  1.69647288e-02 -1.52898824e-01
 -7.60528772e-02  1.96729794e-02  6.65253502e-03 -2.35457392e-03  1.59417533e-03
 -3.06885656e-03  1.20958230e-02  4.69469939e-03 -9.51217163e-02 -1.58117328e-01
 -2.97604622e-02  5.99714261e-03  2.02667498e-03  4.11690002e-01 -2.63912437e-02
  9.28962832e-03  3.14335182e-03  2.48805817e-01 -2.25666071e-02 -2.26919085e-03
 -7.73703338e-04  1.00776258e-04  6.23848454e-04  7.49665651e-04 -2.13112990e-03
  1.84209731e-03  8.29030712e-02  1.15828025e-01  3.38101243e-03  5.80495682e-03
  1.46824067e-02 -1.24750008e-02  8.29029729e-02  1.15828115e-01  3.38103415e-03
  5.79847296e-03  4.06900633e-03  1.88339646e-02  8.72848569e-02  1.24670604e-01
  6.46247562e-03  4.49776261e-03 -1.91649829e-02 -6.49575032e-03 -6.66319490e-02
 -7.68547396e-02 -1.26030127e-02  8.63014553e-04 -1.53959787e-02 -5.21792901e-03
  2.13592423e-02  3.63493948e-02  7.72734515e-02 -1.69566949e-01 -5.74551033e-02
 -1.11353867e-01  1.23250887e-01 -2.59909227e-01 -8.80652017e-02 -1.58657889e-01
  7.34734248e-02 -1.91876101e-01 -6.50168751e-02 -2.82530162e-03  4.25427818e-04
  8.49254104e-03 -1.72844271e-02  1.26092808e-03 -1.18411855e-02 -1.92372332e-02
 -7.51374432e-02 -8.37651325e-02 -2.84045646e-02  4.77437056e-02 -1.28768760e-01
 -1.39443845e-01 -4.72860264e-02  5.76935366e-02 -5.35044891e-02 -8.00994085e-02
 -2.71583387e-02  2.06975128e-02 -2.91998293e-03 -7.31522890e-03 -1.67577688e-02
 -8.58247240e-03  6.44103284e-02  8.81437891e-02  2.19596736e-02 -4.36309487e-05
  2.92758909e-03 -7.59008777e-03  6.44029274e-02  8.81334691e-02  2.19566087e-02
 -4.71741252e-05 -2.29179748e-03  7.80501185e-03 -3.29573254e-02 -3.95429572e-02
 -1.63993273e-02 -2.89344004e-03  1.41970222e-03  4.80967700e-04  1.33921365e-01
  1.93178934e-01  3.50989513e-02 -1.15435997e-02  2.47901205e-02  8.39978468e-03
 -1.71019797e-07 -2.89171155e-07 -3.02138893e-05 -5.14894489e-02  1.51922645e-01
  8.80287718e-07 -4.67464620e-05 -7.96642241e-02  2.35053907e-01  1.16875062e-06
 -4.22597590e-05 -7.21188673e-02  2.12790971e-01 -3.74550996e-03 -1.09249433e-02
 -5.64106131e-03 -2.15807001e-03  3.70415894e-03  8.47851852e-09  2.30721722e-08
 -3.04121679e-05 -5.14373542e-02  1.51764934e-01 -3.69538420e-08 -4.90553084e-05
 -8.33025517e-02  2.45783216e-01 -4.90853076e-07 -2.90986443e-05 -4.96072870e-02
  1.46367094e-01 -1.18600182e-02 -3.02762211e-05 -1.78758088e-02 -6.84714592e-03
  1.50166713e-05  1.06729698e-01  1.55346108e-01  5.85407808e-02  5.02748390e-03
  9.99872640e-03 -3.83782402e-03 -1.06736667e-01 -1.55355434e-01 -5.85444138e-02
 -5.02490530e-03 -5.60246972e-03 -9.12940738e-03  6.47701889e-06  9.22160430e-06
  3.32773049e-06 -1.42070748e-06 -2.73814656e-03  8.07575027e-03 -7.02655691e-07
 -6.70667012e-07 -1.18548060e-07 -2.90361577e-06 -4.90087554e-03  1.44597043e-02
  1.34985178e-02  2.28253705e-02 -1.87675622e-01 -5.09985197e-02 -1.73221743e-02
 -6.84055231e-02 -2.89820895e-01 -7.67511955e-02 -2.60707967e-02 -9.82524487e-02
 -2.51671341e-01 -7.97340461e-02 -2.70741193e-02 -6.59776355e-03  4.93844473e-03
  1.67519995e-04  1.09996179e-02  1.45576230e-02  7.24970328e-04  3.91398427e-04
  1.23542750e-01 -9.46040888e-02 -3.20390432e-02  1.52884699e-03  2.18179282e-01
 -1.54025528e-01 -5.21595125e-02 -3.58353958e-02  9.24288997e-02 -1.12490283e-01
 -3.81077579e-02 -1.09381402e-02  6.61685420e-04 -8.78576870e-03  4.18835275e-02
  1.91851976e-03 -1.65737310e-03 -1.26155266e-03 -1.13465064e-03  5.57095224e-03
 -2.74189861e-03 -2.53030132e-03 -1.66476838e-03 -1.27207030e-03 -1.13936781e-03
  5.56991089e-03 -3.71633841e-03  3.42838840e-04 -1.18412263e-01 -1.62286781e-01
 -6.13996472e-02  1.22679089e-03  9.37234992e-03  3.17760639e-03 -2.83373710e-02
 -3.39689857e-02 -4.10704878e-02 -1.65538766e-02 -9.16588658e-03 -3.10982161e-03
  2.24718099e-02  3.81387082e-02 -7.96052157e-02 -1.50626268e-01 -5.10644951e-02
 -1.14054412e-01 -1.17570667e-01 -2.22930980e-01 -7.55767023e-02 -1.98820379e-01
 -1.43095299e-01 -2.15894708e-01 -7.31967395e-02 -7.41092376e-03 -7.50049362e-05
  6.47366731e-03 -4.07041627e-03 -2.27491438e-04 -3.17794916e-03 -5.50072276e-03
  4.17854633e-02  1.36560813e-01  4.62920668e-02  1.68705703e-02  7.60959670e-02
  2.12457251e-01  7.20221775e-02 -2.53146416e-02  1.47060837e-02  1.20165485e-01
  4.07299923e-02 -2.01235984e-02 -9.12659809e-03  1.31022392e-02  6.31212798e-04
 -2.69529141e-02 -7.43712334e-02 -1.22857133e-01 -5.80450172e-02 -1.30121971e-03
  8.16929387e-04  1.10123142e-02 -7.43576330e-02 -1.22832638e-01 -5.80361450e-02
 -1.29645657e-03  7.34606397e-03 -8.24459751e-03  1.20092990e-01  2.26239083e-01
  7.88865979e-02  9.32755922e-03 -1.38804711e-02 -4.70397115e-03  8.28844522e-02
  1.50381421e-01  2.87689247e-02 -1.59011757e-02  1.35049631e-02  4.57414359e-03
 -1.50042297e-07 -2.51881449e-07 -4.52329048e-05 -7.83544709e-02  2.31187219e-01
  6.38620752e-07 -6.75449745e-05 -1.17000423e-01  3.45212969e-01  2.32496266e-06
 -7.71138807e-05 -1.33743050e-01  3.94610058e-01 -4.97646239e-03 -2.79342931e-03
 -7.50203616e-03 -2.87206315e-03  9.48675978e-04  1.57288952e-08  2.88550087e-08
  2.07086253e-05  3.55372982e-02 -1.04856900e-01 -7.81481728e-08  3.18920857e-05
  5.52162286e-02 -1.62921599e-01  1.33897305e-07  1.80754961e-05  3.10320746e-02
 -9.15637892e-02  8.45413187e-03  3.38055076e-02  1.27220837e-02  4.86723762e-03
 -1.14607098e-02 -9.55829743e-02 -1.87692746e-01 -7.46690276e-02 -5.81085412e-03
 -1.00936788e-02  3.97795270e-03  9.55905937e-02  1.87707423e-01  7.46757223e-02
  5.80843690e-03  5.59235484e-03  9.29917542e-03 -7.04679400e-06 -1.38404391e-05
 -5.79168605e-06  1.15927781e-06  2.62926669e-03 -7.75360215e-03 -6.56806878e-07
 -2.51167610e-06 -1.26707022e-07 -4.00661954e-06 -7.39889412e-03  2.18296161e-02
  1.98338157e-02  3.32158010e-02 -2.82651549e-02  4.41479209e-02  1.49574116e-02
 -8.70354696e-02 -2.47717031e-02  5.87500164e-02  1.99071176e-02 -3.51769967e-01
 -1.70884665e-01  1.14978754e-01  3.89359522e-02  1.44350180e-04 -5.60893986e-04
 -2.41241371e-04  3.78769369e-04 -1.65498490e-03  3.16933040e-02  5.05071021e-02
  6.20964597e-02  1.10982506e-02  3.77360058e-03 -2.57684747e-02  6.22500250e-02
  7.13554852e-03  2.43093546e-03 -1.70466926e+00  2.94581563e-01  1.25842926e-01
  4.27091431e-02  2.63403408e-03  1.40137081e-03  9.70872583e-04 -7.09500508e-03
  4.14145158e-03  4.64255474e-03  2.03167078e-02  7.86152027e-01  6.12275097e-03
 -2.02024319e-03 -1.40720578e-03  4.64243415e-03  2.03166227e-02  7.86129217e-01
  6.12257405e-03 -2.46020896e-03 -1.08587913e-04  4.18864963e-03  8.30243834e-03
  5.64985699e-01  6.32886154e-03 -1.36297654e-03 -4.60741642e-04  3.35182754e-02
 -1.03849663e-01  8.47857981e-01  6.91249457e-03 -1.17521596e-02 -3.98171910e-03
  2.47740117e-02  4.11244509e-02  8.21016369e-03  5.84214853e-02  1.98025457e-02
 -9.20897272e-02  3.00756413e-02  7.91844715e-02  2.68439531e-02 -5.76964005e-01
 -3.17394755e-03  1.80220688e-01  6.10827945e-02 -6.12861942e-04 -1.62127389e-03
 -1.33732235e-03  4.55051536e-03 -4.78679447e-03 -3.46710674e-02 -5.64813891e-02
  8.04791311e-04  3.22426474e-02  1.09265394e-02  8.84787279e-02  3.13893570e-02
  1.72726981e-02  5.85947986e-03  1.18644130e+00 -1.18931167e-01  3.22933492e-01
  1.09415285e-01  2.50366754e-03  2.48865775e-03  1.06193546e-04 -4.61049669e-03
  7.34839397e-03 -1.24228770e-02  6.81499737e-02 -4.77353683e-01  7.85072327e-03
 -1.90309018e-03 -3.32827980e-03 -1.24233196e-02  6.81518346e-02 -4.77421939e-01
  7.84990401e-03 -3.53552291e-03  1.48896157e-03 -1.40171805e-02  8.87058191e-02
 -1.16796437e+00  9.41711747e-03 -9.06960907e-03 -3.07254559e-03  4.37087789e-02
 -1.06055860e-01  1.22242624e+00  1.05137014e-02 -4.09216021e-03 -1.38463819e-03
 -2.37308091e-07 -3.98081683e-07 -2.87747723e-06 -4.34656515e-03  1.28253254e-02
  9.39141419e-07 -1.59681189e-06 -1.83238044e-03  5.40765067e-03  5.43442971e-06
 -2.09742982e-05 -3.44099279e-02  1.01526963e-01 -1.50622894e-03  6.57960574e-03
 -2.27406630e-03 -8.72307569e-04 -2.22934054e-03  2.52375901e-07  4.16015255e-07
  2.66924534e-05  4.56920828e-02 -1.34820118e-01 -1.17161141e-06  1.48218854e-05
  2.71633923e-02 -8.01496236e-02 -4.31458415e-06  2.10286880e-04  3.55403984e-01
 -1.04866740e+00 -1.35580005e-02 -2.07449915e-02 -2.04223554e-02 -7.81931832e-03
  7.03630272e-03  1.50768610e-02 -1.80429566e-01  1.90603404e+00 -1.00335337e-02
 -2.35491565e-02  1.83974360e-02 -1.50780760e-02  1.80439593e-01 -1.90617801e+00
  1.00241198e-02  7.50581222e-03  2.89309315e-02  1.42365218e-06 -1.42752749e-05
  1.54859237e-04  1.65912114e-08  1.35415775e-03 -3.98719390e-03  5.19156025e-07
  4.10538815e-06 -1.44167443e-05 -1.38421300e-06 -2.14984168e-03  6.34135169e-03
  1.12412740e-02  1.87384739e-02  1.59140669e-02  2.54353168e-02  8.62377129e-03
 -4.27874745e-02  2.35587992e-02  2.67782354e-02  9.08080690e-03 -2.81240278e-01
  7.06347958e-02  1.31895257e-01  4.47147716e-02 -7.23178620e-04  2.06354502e-03
  4.35339302e-04  1.21063058e-04  6.08775123e-03 -8.03580080e-03 -1.34435573e-02
  1.41043364e-02 -1.28629972e-01 -4.35917250e-02  2.49750626e-02  2.58608400e-02
 -7.55619969e-02 -2.56042018e-02  2.24176074e-01  1.32980920e-01 -1.01524405e+00
 -3.44054735e-01 -1.66821167e-02 -6.18583308e-03  1.69839169e-02 -1.54570704e-02
 -1.82643533e-02 -1.30268801e-02  1.12913242e-01 -1.15825691e+00  8.46947152e-03
  9.41269077e-03 -1.44255710e-02 -1.30250262e-02  1.12888937e-01 -1.15800747e+00
  8.46153848e-03 -1.30179256e-03  1.71749401e-02  1.84355762e-02 -1.52536203e-01
  2.03592339e+00 -6.93080665e-03  3.11523715e-02  1.05590216e-02  5.64463318e-03
 -4.27025697e-02  3.29475422e-01  1.76714592e-04 -2.05262906e-03 -6.96360653e-04
  2.40350857e-02  3.95255554e-02  1.32332480e-01 -3.65511636e-02 -1.23623623e-02
 -6.96264627e-02  1.54706088e-01 -3.72132303e-02 -1.25823966e-02 -9.82389167e-01
  8.06900661e-01 -1.34535246e-01 -4.54396020e-02  3.32765853e-03 -6.09071758e-04
 -2.02802997e-03 -4.68787941e-04 -1.79298063e-03 -1.55246966e-02 -2.57420047e-02
  1.02482845e-01  1.11837670e-02  3.81068592e-03  2.07746064e-02  1.07103416e-01
  7.79482557e-03  2.66313011e-03  6.50423453e-01  1.76708517e+00  2.13295767e-01
  7.26506966e-02  8.75827349e-03 -1.70496148e-03  9.96242745e-06 -1.51994942e-02
 -5.01126829e-03  1.34847624e-02  1.91742965e-01  3.54586023e-01  5.91217825e-03
  1.04957149e-03  1.68136258e-03  1.34857945e-02  1.91755041e-01  3.54522802e-01
  5.91258930e-03  1.85492868e-03 -6.93552934e-04  1.25040205e-02  1.23161330e-01
 -2.07010342e-01  1.03915563e-03  1.24772390e-03  4.23244464e-04 -5.93622898e-03
  8.51509085e-02 -9.27700400e-01 -6.63721909e-03  1.56205657e-02  5.29340599e-03
  3.85056058e-03  7.14496411e-03 -2.83357899e-02 -4.84112698e-02 -1.64229122e-02
 -4.69935298e-02 -5.09607048e-02 -5.25242157e-02 -1.78229083e-02  1.48965066e-01
  1.80519672e-02 -5.62361028e-01 -1.90649076e-01 -1.87772634e-03 -3.82688398e-03
  3.75665786e-03 -6.56527614e-03 -1.12876575e-02 -1.83934419e-03 -4.10899606e-03
 -4.36056262e-03  9.49933686e-03  3.22180171e-03  3.24982920e-02 -6.34352623e-03
  7.36413598e-02  2.49674727e-02 -3.72114865e-02 -1.18144786e-01  1.77967305e+00
  6.03404022e-01 -1.80413444e-02 -1.06683128e-02  1.58123491e-02 -1.00612659e-02
 -3.14740609e-02  2.42134074e-02  6.74203517e-01 -6.23329675e-02  2.25747788e-02
  3.57549391e-02 -1.12250864e-02  2.42211360e-02  6.74385672e-01 -6.23322619e-02
  2.25708090e-02  2.15542916e-02  3.06702735e-02 -5.25981815e-02 -1.44119047e+00
 -6.72310510e-03 -4.45367261e-02  6.59529346e-02  2.23498886e-02  2.30719498e-02
 -4.64549680e-01  4.74951867e-01  4.11254711e-02 -3.30988764e-02 -1.12081691e-02
  1.06444137e-06  1.79216708e-06 -1.81240242e-05 -2.34331248e-02  6.91238078e-02
 -3.92799503e-06 -2.55186850e-05 -2.90124962e-02  8.55900056e-02 -3.88945551e-05
 -6.91043178e-05 -1.20406691e-01  3.55154822e-01 -4.50542045e-03  7.49778949e-03
 -6.79660826e-03 -2.60496380e-03 -2.54120203e-03  2.28399794e-07  3.95094504e-07
  3.37099051e-06  8.48571257e-03 -2.50272634e-02 -2.77809716e-06  1.40394597e-05
  2.42997196e-02 -7.16562782e-02  1.35174163e-05  3.64856803e-04  5.86145462e-01
 -1.72863226e+00  8.04834418e-03  4.46564381e-02  1.21100507e-02  4.63017240e-03
 -1.51438915e-02  4.86644099e-02  1.20758868e+00  4.25761529e-02  2.85995836e-02
  3.16421500e-02 -4.57546102e-02 -4.86582450e-02 -1.20746903e+00 -4.25820772e-02
 -2.85771898e-02  2.71157673e-03 -5.55693254e-02 -4.82344650e-06 -1.21395622e-04
 -1.31910876e-06  1.92888587e-06  7.77968713e-03 -2.29315421e-02  5.55697076e-06
  3.30437356e-05  7.02800871e-06 -1.03926510e-06 -2.08331916e-03  6.15020831e-03
  1.35846066e-02  2.22920268e-02 -5.80477884e-02  9.27792526e-02  3.14300590e-02
 -8.48417655e-03 -7.91215033e-02  1.55439409e-01  5.26607246e-02 -9.86181691e-01
 -2.81014985e-01  9.31798541e-01  3.15743020e-01  5.16962392e-03 -3.06659833e-03
  2.19480446e-03 -1.46906697e-02 -9.03237074e-03  1.79559783e-02  3.65406335e-02
 -7.24438015e-02  4.36883022e-02  1.47963227e-02 -2.63570211e-01 -2.25227252e-01
  1.32053668e-01  4.47192102e-02  5.84340370e-01  4.24208625e-01 -3.50574287e-01
 -1.18655133e-01 -5.94562412e-03  9.22526674e-03 -7.66002122e-04  1.23090944e-02
  2.72074376e-02  2.75357585e-02  4.64264298e-02 -1.27097059e-01 -4.02817108e-02
 -2.37095026e-04  1.11247211e-02  2.75388773e-02  4.65092959e-02 -1.27050139e-01
 -4.02769812e-02  6.58201044e-03 -8.98735415e-03 -4.01668856e-02 -2.42505242e-01
  2.73002705e-01  2.58407670e-02  7.56097749e-03  2.56954430e-03  1.06045303e-01
  2.06078688e+00 -1.01722137e+00 -4.19043622e-02  4.07230702e-02  1.37928029e-02
  3.81678904e-02  6.87537509e-02  1.25992668e-01  3.85508880e-02  1.30906479e-02
 -2.60562697e-01  1.56159643e-01  6.97892583e-02  2.36835910e-02 -1.17060244e-01
  3.81843265e-01  2.16181244e-01  7.33474069e-02 -2.48725361e-02 -3.51097708e-03
  4.22250276e-03  3.20462636e-02 -1.04033845e-02 -6.14814208e-02 -1.20142745e-01
  2.15789797e-01  5.86242920e-03  2.03194708e-03  4.87486562e-01  7.09956885e-01
  2.13302230e-02  7.37803130e-03  1.17610280e+00 -9.05534730e-01 -7.61828077e-02
 -2.60094070e-02  2.53418235e-02  4.19412101e-03  1.63742428e-03 -4.81616628e-02
  1.24263748e-02 -2.33254337e-02 -6.41874640e-01  1.07544406e-02  2.35376639e-02
 -3.98349469e-03  3.50584343e-03 -2.33243178e-02 -6.41867539e-01  1.07483162e-02
  2.35388810e-02 -1.03347188e-03 -5.19706770e-03 -3.58047688e-02 -6.74083332e-01
  6.48838544e-02  4.39422268e-02  1.62683901e-03  5.60802317e-04  1.91842304e-02
  6.64698835e-01 -4.22872561e-01  4.86285068e-02 -4.60774804e-03 -1.55291590e-03
  1.00205672e-02  1.72147083e-02 -4.10100634e-03 -2.83432877e-02 -9.60645674e-03
 -4.62033092e-02 -3.43066519e-02 -7.07345219e-02 -2.39794757e-02 -6.37202955e-01
  3.91103462e-01 -5.74746363e-02 -1.94005245e-02  1.41241923e-02  3.88989121e-03
 -3.59124618e-03 -1.50784043e-02  1.15001468e-02 -3.50768401e-02 -6.47448826e-02
 -1.48661033e-01 -3.66838326e-02 -1.24661487e-02  3.97681312e-02 -6.09932164e-01
 -1.67209910e-01 -5.68057935e-02  2.23925643e+00  6.36566040e-01  3.11912241e-01
  1.05842261e-01 -1.64051057e-02 -1.18977786e-02  6.74898009e-03  1.07703860e-02
 -3.51269141e-02 -5.61619262e-02 -1.22177976e+00  4.47111739e-01 -2.75538827e-02
  7.25078943e-03 -1.22775969e-02 -5.61615322e-02 -1.22179015e+00  4.47088026e-01
 -2.75586901e-02 -1.70659150e-03  1.41452655e-02 -2.33997983e-02 -1.02155088e+00
 -1.84928104e-01 -4.42857864e-02  5.85409499e-04  1.89296973e-04 -9.10508390e-03
 -1.88030438e-01 -2.72347296e-01 -6.68339201e-02 -1.34782377e-02 -4.58186732e-03
 -2.65497236e-07 -5.04084432e-07 -3.59622333e-07  1.73411129e-04 -5.15067169e-04
  2.53213208e-06 -7.22703280e-07 -1.78914989e-04  5.20000079e-04 -6.06408110e-06
 -2.59688445e-05 -4.74510274e-02  1.39985674e-01 -1.32148474e-03 -1.91314228e-02
 -1.98136239e-03 -7.55727701e-04  6.48559538e-03  1.68703474e-07  3.41778120e-07
 -5.02569868e-05 -8.17558940e-02  2.41195317e-01 -3.52596927e-06 -2.02763220e-04
 -3.31915243e-01  9.79209159e-01  1.34860712e-05  3.60094953e-04  5.91791207e-01
 -1.74588060e+00  2.48948188e-02  6.53835141e-02  3.74861731e-02  1.43471413e-02
 -2.21730267e-02 -5.31469557e-02 -4.14578764e-01  1.49566553e+00  3.76823761e-02
  4.45351568e-02 -1.42264224e-02  5.31486045e-02  4.14583371e-01 -1.49570583e+00
 -3.76734380e-02 -2.66973061e-02 -3.83914529e-02 -1.44837103e-06 -1.60822305e-05
  3.90410952e-05 -7.13258709e-06 -1.27746566e-02  3.76815966e-02 -6.96077262e-07
 -7.90390076e-06  2.97533129e-06  6.66812052e-07  4.38588227e-03 -1.29398791e-02
  5.99179253e-03  1.10737023e-02 -1.97444754e-02  4.75850534e-02  1.61232778e-02
 -4.57958965e-02 -3.74455536e-02  1.07122070e-01  3.62973769e-02 -8.92040949e-02
 -5.37327897e-02 -1.61712070e-02 -5.49598920e-03 -3.08791319e-03  2.90360512e-03
  4.51199635e-03 -6.43011418e-03  8.56544916e-03  1.69657511e-02  3.38827553e-02
  2.10703134e-02 -2.36200164e-01 -8.00577563e-02 -1.94006834e-01  9.44974376e-02
 -9.44878658e-01 -3.20257101e-01  1.64503661e-01 -9.65863975e-02  1.65649149e+00
  5.61474060e-01 -3.48920924e-02 -1.25583073e-02  3.44606252e-02 -2.95654472e-02
 -3.70742940e-02 -1.36965522e-02 -8.44991915e-02  6.94230330e-01  1.21763424e-02
 -1.71138342e-02 -3.11730023e-02 -1.36937902e-02 -8.44721208e-02  6.94167250e-01
  1.21640943e-02 -3.25450447e-02  1.43428195e-02  6.26663221e-02  6.03634559e-01
 -1.77478403e+00 -3.39582939e-02  6.57103833e-02  2.22692497e-02  1.48274559e-02
  4.98786025e-01 -1.51267661e-01  5.25302421e-03 -1.92456517e-02 -6.51925851e-03
  1.60650707e-02  2.86291833e-02 -1.69461523e-02 -4.17636975e-02 -1.41581255e-02
 -8.54329228e-02 -1.02508231e-01 -1.16634755e-01 -3.95511313e-02 -7.37121886e-01
  7.23150101e-01  1.44014201e-01  4.89569714e-02  1.80218981e-02  4.06667436e-03
 -6.10293152e-03 -1.52692814e-02  1.20272161e-02  9.65268511e-02  2.05959896e-01
  7.40408989e-02  2.67697934e-02  9.08822081e-03 -1.81980952e+00  2.16896111e-01
  6.96519939e-02  2.36508267e-02  5.57862608e+00 -4.34742127e-01 -1.00753965e-01
 -3.42477648e-02  2.93958939e-02 -1.00056256e-02 -1.70507024e-03 -4.64859655e-02
 -2.94633399e-02  2.24617357e-02 -6.52700457e-01 -9.31044903e-01 -5.92841032e-02
 -1.10212431e-01  1.07543461e-01  2.24622396e-02 -6.52710916e-01 -9.31040472e-01
 -5.92305338e-02 -2.20880501e-02 -1.52416215e-01  2.55572592e-02 -7.16982061e-01
 -8.10297492e-01 -4.21383876e-02  1.40220811e-01  4.75238210e-02 -2.13207653e-02
 -9.14602554e-02 -9.10503090e-02 -1.11279987e-01  2.10437176e-03  6.89480979e-04
  1.78164105e-02  3.18281323e-02 -9.78598913e-02 -1.66443613e-01 -5.64471343e-02
 -7.21120265e-02 -4.06570225e-01 -5.46630436e-01 -1.85402706e-01 -6.28045192e-01
  7.25119349e-01  1.24889927e+00  4.23506986e-01 -7.44223491e-03  4.50286824e-03
 -4.06219785e-04  1.39628682e-02  1.32693936e-02 -1.48637648e-02 -3.99430795e-02
 -2.61379110e-02  3.69977195e-03  1.24988457e-03  4.18552957e-01  2.67439982e-01
 -1.54865932e-01 -5.24455819e-02 -4.57708896e-01  2.34905920e-01 -2.19406856e-01
 -7.43202699e-02 -1.22188776e-01  1.80011566e-02  4.00390831e-02  1.07128606e-01