
    -----------------------------------------------------------------------
          Psi4: An Open-Source Ab Initio Electronic Structure Package
                               Psi4 1.3.2 release

                         Git: Rev {HEAD} ecbda83 


    R. M. Parrish, L. A. Burns, D. G. A. Smith, A. C. Simmonett,
    A. E. DePrince III, E. G. Hohenstein, U. Bozkaya, A. Yu. Sokolov,
    R. Di Remigio, R. M. Richard, J. F. Gonthier, A. M. James,
    H. R. McAlexander, A. Kumar, M. Saitow, X. Wang, B. P. Pritchard,
    P. Verma, H. F. Schaefer III, K. Patkowski, R. A. King, E. F. Valeev,
    F. A. Evangelista, J. M. Turney, T. D. Crawford, and C. D. Sherrill,
    J. Chem. Theory Comput. 13(7) pp 3185--3197 (2017).
    (doi: 10.1021/acs.jctc.7b00174)


                         Additional Contributions by
    P. Kraus, H. Kruse, M. H. Lechner, M. C. Schieber, R. A. Shaw,
    A. Alenaizan, R. Galvelis, Z. L. Glick, S. Lehtola, and J. P. Misiewicz

    -----------------------------------------------------------------------


    Psi4 started on: Monday, 24 May 2021 08:04PM

    Process ID: 71990
    Host:       daniele-Precision-5750
    PSIDATADIR: /home/daniele/anaconda3/envs/poltype/share/psi4
    Memory:     500.0 MiB
    Threads:    1
    
  ==> Input File <==

--------------------------------------------------------------------------
molecule { 
0 1
 C   -0.745631   -0.047638    0.714324
 C    0.606374    0.670742    0.500910
 C   -1.363471   -0.684414   -0.531423
 C    1.493887    0.100877   -0.606644
 H   -1.456541    0.651497    1.166064
 H   -0.602472   -0.846560    1.452952
 H    1.157141    0.688243    1.446743
 H    0.407046    1.720856    0.252168
 H   -0.706728   -1.443407   -0.963453
 H   -1.561336    0.060843   -1.310113
 H   -2.315494   -1.164517   -0.286837
 H    0.998032    0.139132   -1.579625
 H    1.759139   -0.944766   -0.413805
 H    2.426474    0.667568   -0.682915
}
memory 700MB
set_num_threads(8)
psi4_io.set_default_path("/home/daniele/PSI4_sctatch/Psi4-butane")
set freeze_core True
E, wfn = energy('wb97x-d/6-311+G*',return_wfn=True)
oeprop(wfn,"WIBERG_LOWDIN_INDICES")
clean()
--------------------------------------------------------------------------

  Memory set to 667.572 MiB by Python driver.
  Threads set to 8 by Python driver.

*** tstart() called on daniele-Precision-5750
*** at Mon May 24 20:04:39 2021

   => Loading Basis Set <=

    Name: 6-311+G*
    Role: ORBITAL
    Keyword: BASIS
    atoms 1-4  entry C          line   130 file /home/daniele/anaconda3/envs/poltype/share/psi4/basis/6-311pgs.gbs 
    atoms 5-14 entry H          line    47 file /home/daniele/anaconda3/envs/poltype/share/psi4/basis/6-311pgs.gbs 


         ---------------------------------------------------------
                                   SCF
               by Justin Turney, Rob Parrish, Andy Simmonett
                          and Daniel G. A. Smith
                              RKS Reference
                        8 Threads,    667 MiB Core
         ---------------------------------------------------------

  ==> Geometry <==

    Molecular point group: c1
    Full point group: C1

    Geometry (in Angstrom), charge = 0, multiplicity = 1:

       Center              X                  Y                   Z               Mass       
    ------------   -----------------  -----------------  -----------------  -----------------
         C           -0.745630873803    -0.047638112628     0.714324117151    12.000000000000
         C            0.606374126197     0.670741887372     0.500910117151    12.000000000000
         C           -1.363470873803    -0.684414112628    -0.531422882849    12.000000000000
         C            1.493887126197     0.100876887372    -0.606643882849    12.000000000000
         H           -1.456540873803     0.651496887372     1.166064117151     1.007825032230
         H           -0.602471873803    -0.846560112628     1.452952117151     1.007825032230
         H            1.157141126197     0.688242887372     1.446743117151     1.007825032230
         H            0.407046126197     1.720855887372     0.252168117151     1.007825032230
         H           -0.706727873803    -1.443407112628    -0.963452882849     1.007825032230
         H           -1.561335873803     0.060842887372    -1.310112882849     1.007825032230
         H           -2.315493873803    -1.164517112628    -0.286836882849     1.007825032230
         H            0.998032126197     0.139131887372    -1.579624882849     1.007825032230
         H            1.759139126197    -0.944766112628    -0.413804882849     1.007825032230
         H            2.426474126197     0.667567887372    -0.682914882849     1.007825032230

  Running in c1 symmetry.

  Rotational constants: A =      0.40804  B =      0.17274  C =      0.13530 [cm^-1]
  Rotational constants: A =  12232.84526  B =   5178.46650  C =   4056.25422 [MHz]
  Nuclear repulsion =  132.581754724524814

  Charge       = 0
  Multiplicity = 1
  Electrons    = 34
  Nalpha       = 17
  Nbeta        = 17

  ==> Algorithm <==

  SCF Algorithm Type is DF.
  DIIS enabled.
  MOM disabled.
  Fractional occupation disabled.
  Guess Type is SAD.
  Energy threshold   = 1.00e-06
  Density threshold  = 1.00e-06
  Integral threshold = 0.00e+00

  ==> Primary Basis <==

  Basis Set: 6-311+G*
    Blend: 6-311+G*
    Number of shells: 70
    Number of basis function: 118
    Number of Cartesian functions: 122
    Spherical Harmonics?: true
    Max angular momentum: 2

  ==> DFT Potential <==

   => Composite Functional: WB97X-D <= 

    wB97X-D Hyb-GGA Exchange-Correlation Functional

    J.-D. Chai and M. Head-Gordon, Phys. Chem. Chem. Phys. 10, 6615 (2008)

    Deriv               =              1
    GGA                 =           TRUE
    Meta                =          FALSE

    Exchange Hybrid     =           TRUE
    MP2 Hybrid          =          FALSE

   => Exchange-Correlation Functionals <=

    1.0000   wB97D range-separated functional

   => Exact (HF) Exchange <=

    0.7780            HF,LR [omega = 0.2000]
    0.2220               HF 

   => Molecular Quadrature <=

    Radial Scheme          =       TREUTLER
    Pruning Scheme         =           FLAT
    Nuclear Scheme         =       TREUTLER

    BS radius alpha        =              1
    Pruning alpha          =              1
    Radial Points          =             75
    Spherical Points       =            302
    Total Points           =         317100
    Total Blocks           =           2407
    Max Points             =            256
    Max Functions          =            118

   => WB97X-D: Empirical Dispersion <=

    Chai and Head-Gordon Dispersion Correction
    Chai, J.-D.; Head-Gordon, M. (2010), J. Chem. Phys., 132: 6615-6620

        s6 =       1.000000

   => Loading Basis Set <=

    Name: (6-311+G* AUX)
    Role: JKFIT
    Keyword: DF_BASIS_SCF
    atoms 1-4  entry C          line   200 file /home/daniele/anaconda3/envs/poltype/share/psi4/basis/heavy-aug-cc-pvtz-jkfit.gbs 
    atoms 5-14 entry H          line   116 file /home/daniele/anaconda3/envs/poltype/share/psi4/basis/heavy-aug-cc-pvtz-jkfit.gbs 

  ==> Pre-Iterations <==

   -------------------------------------------------------
    Irrep   Nso     Nmo     Nalpha   Nbeta   Ndocc  Nsocc
   -------------------------------------------------------
     A        118     118       0       0       0       0
   -------------------------------------------------------
    Total     118     118      17      17      17       0
   -------------------------------------------------------

  ==> Integral Setup <==

  ==> DiskDFJK: Density-Fitted J/K Matrices <==

    J tasked:                  Yes
    K tasked:                  Yes
    wK tasked:                 Yes
    Omega:               2.000E-01
    OpenMP threads:              8
    Integrals threads:           8
    Memory [MiB]:               51
    Algorithm:                Disk
    Integral Cache:           NONE
    Schwarz Cutoff:          1E-12
    Fitting Condition:       1E-10

   => Auxiliary Basis Set <=

  Basis Set: (6-311+G* AUX)
    Blend: HEAVY-AUG-CC-PVTZ-JKFIT
    Number of shells: 220
    Number of basis function: 716
    Number of Cartesian functions: 874
    Spherical Harmonics?: true
    Max angular momentum: 4

  Cached 50.0% of DFT collocation blocks in 0.447 [GiB].

  Minimum eigenvalue in the overlap matrix is 3.8849399565E-05.
  Using Symmetric Orthogonalization.

  SCF Guess: Superposition of Atomic Densities via on-the-fly atomic UHF.

  ==> Iterations <==

                           Total Energy        Delta E     RMS |[F,P]|

   @DF-RKS iter SAD:  -157.78289269070046   -1.57783e+02   0.00000e+00 
   @DF-RKS iter   1:  -158.06076294526315   -2.77870e-01   7.11064e-03 DIIS
   @DF-RKS iter   2:  -158.18583941534436   -1.25076e-01   5.92090e-03 DIIS
   @DF-RKS iter   3:  -158.43229684629918   -2.46457e-01   3.34416e-04 DIIS
   @DF-RKS iter   4:  -158.43328557985495   -9.88734e-04   1.32748e-04 DIIS
   @DF-RKS iter   5:  -158.43342256759061   -1.36988e-04   4.52970e-05 DIIS
   @DF-RKS iter   6:  -158.43343750830533   -1.49407e-05   8.05583e-06 DIIS
   @DF-RKS iter   7:  -158.43343813109811   -6.22793e-07   1.07009e-06 DIIS
   @DF-RKS iter   8:  -158.43343815235292   -2.12548e-08   2.33991e-07 DIIS
  Energy and wave function converged.


  ==> Post-Iterations <==

    Orbital Energies [Eh]
    ---------------------

    Doubly Occupied:                                                      

       1A    -10.273963     2A    -10.273777     3A    -10.265829  
       4A    -10.265818     5A     -0.892175     6A     -0.817115  
       7A     -0.740089     8A     -0.654024     9A     -0.551509  
      10A     -0.540608    11A     -0.497638    12A     -0.473959  
      13A     -0.461376    14A     -0.443081    15A     -0.409472  
      16A     -0.405391    17A     -0.391916  

    Virtual:                                                              

      18A      0.067652    19A      0.084559    20A      0.085966  
      21A      0.094233    22A      0.114267    23A      0.126545  
      24A      0.129191    25A      0.131410    26A      0.132760  
      27A      0.162226    28A      0.163103    29A      0.171409  
      30A      0.177311    31A      0.180269    32A      0.194876  
      33A      0.205509    34A      0.241821    35A      0.245945  
      36A      0.251556    37A      0.259581    38A      0.289376  
      39A      0.291855    40A      0.307547    41A      0.318459  
      42A      0.330244    43A      0.344675    44A      0.349512  
      45A      0.358179    46A      0.377003    47A      0.472848  
      48A      0.478269    49A      0.503293    50A      0.528058  
      51A      0.541035    52A      0.553899    53A      0.562223  
      54A      0.635710    55A      0.645383    56A      0.671068  
      57A      0.689285    58A      0.701020    59A      0.719821  
      60A      0.738463    61A      0.752242    62A      0.756639  
      63A      0.769314    64A      0.778949    65A      0.786710  
      66A      0.826767    67A      0.836563    68A      0.854186  
      69A      0.937722    70A      1.044152    71A      1.065270  
      72A      1.128637    73A      1.207786    74A      1.228282  
      75A      1.411298    76A      1.476513    77A      1.565938  
      78A      1.597319    79A      1.653872    80A      1.661534  
      81A      1.673681    82A      1.691222    83A      1.751979  
      84A      1.764058    85A      1.809022    86A      1.847739  
      87A      1.896389    88A      1.937282    89A      1.963472  
      90A      2.070005    91A      2.188592    92A      2.239590  
      93A      2.532418    94A      2.582411    95A      2.597768  
      96A      2.610182    97A      2.617522    98A      2.635933  
      99A      2.648173   100A      2.666864   101A      2.723083  
     102A      2.780638   103A      2.984163   104A      3.095859  
     105A      3.098669   106A      3.221829   107A      3.238015  
     108A      3.261587   109A      3.289688   110A      3.367420  
     111A      3.368414   112A      3.780919   113A      3.869566  
     114A      4.174470   115A     23.545327   116A     23.714132  
     117A     23.812733   118A     23.845623  

    Final Occupation by Irrep:
              A 
    DOCC [    17 ]

  @DF-RKS Final Energy:  -158.43343815235292

   => Energetics <=

    Nuclear Repulsion Energy =            132.5817547245248136
    One-Electron Energy =                -473.7440951780779415
    Two-Electron Energy =                 199.9088848025095899
    DFT Exchange-Correlation Energy =     -17.1732096326608854
    Empirical Dispersion Energy =          -0.0067728686484664
    VV10 Nonlocal Energy =                  0.0000000000000000
    Total Energy =                       -158.4334381523528918

Computation Completed


Properties will be evaluated at   0.000000,   0.000000,   0.000000 [a0]

Properties computed using the SCF density matrix

  Nuclear Dipole Moment: [e a0]
     X:     0.0987      Y:    -0.4417      Z:    -0.8614

  Electronic Dipole Moment: [e a0]
     X:    -0.1024      Y:     0.4581      Z:     0.8935

  Dipole Moment: [e a0]
     X:    -0.0037      Y:     0.0165      Z:     0.0321     Total:     0.0363

  Dipole Moment: [D]
     X:    -0.0094      Y:     0.0419      Z:     0.0817     Total:     0.0923


*** tstop() called on daniele-Precision-5750 at Mon May 24 20:04:43 2021
Module time:
	user time   =      32.25 seconds =       0.54 minutes
	system time =       0.69 seconds =       0.01 minutes
	total time  =          4 seconds =       0.07 minutes
Total time:
	user time   =      32.25 seconds =       0.54 minutes
	system time =       0.69 seconds =       0.01 minutes
	total time  =          4 seconds =       0.07 minutes


Properties will be evaluated at   0.000000,   0.000000,   0.000000 [a0]
OEProp: No title given, name of density matrix used for the following properties is 'SCF density'


  Wiberg Bond Indices using Orthogonal Lowdin Orbitals:

  Irrep: 1 Size: 14 x 14

                 1                   2                   3                   4                   5

    1     0.00000000000000     1.15851041880756     1.20426913427194     0.09400110741681     0.87435868463243
    2     1.15851041880756     0.00000000000000     0.09400191366547     1.20427034572281     0.04437893522407
    3     1.20426913427194     0.09400191366547     0.00000000000000     0.06149689681377     0.03931544443896
    4     0.09400110741681     1.20427034572281     0.06149689681377     0.00000000000000     0.01017493749959
    5     0.87435868463243     0.04437893522407     0.03931544443896     0.01017493749959     0.00000000000000
    6     0.86957625368521     0.04054859133241     0.04165856589182     0.00855631026821     0.00760614263852
    7     0.04437800324493     0.87435890994527     0.01017484153764     0.03931577920669     0.00081630345400
    8     0.04054927011615     0.86957521257541     0.00855680597117     0.04165840082137     0.00708613745274
    9     0.03909610370542     0.01032193297859     0.90475449644606     0.01400590352739     0.01013126229083
   10     0.04003980504193     0.01180027057210     0.90714317516620     0.00805440159750     0.00363209609556
   11     0.04863361782267     0.01268600413110     0.91293115873093     0.00212323850314     0.00336251378343
   12     0.01032546769206     0.03909521475275     0.01401134418786     0.90475023101234     0.00006664530314
   13     0.01179731180490     0.04004130109185     0.00805049646752     0.90714636380023     0.00011439419621
   14     0.01268602914518     0.04863377456541     0.00212279478594     0.91293115287107     0.00009775462696

                 6                   7                   8                   9                  10

    1     0.86957625368521     0.04437800324493     0.04054927011615     0.03909610370542     0.04003980504193
    2     0.04054859133241     0.87435890994527     0.86957521257541     0.01032193297859     0.01180027057210
    3     0.04165856589182     0.01017484153764     0.00855680597117     0.90475449644606     0.90714317516620
    4     0.00855631026821     0.03931577920669     0.04165840082137     0.01400590352739     0.00805440159750
    5     0.00760614263852     0.00081630345400     0.00708613745274     0.01013126229083     0.00363209609556
    6     0.00000000000000     0.00708551095501     0.00628413707719     0.00444320371058     0.00984033467258
    7     0.00708551095501     0.00000000000000     0.00760618457053     0.00006656154646     0.00011445405652
    8     0.00628413707719     0.00760618457053     0.00000000000000     0.00005295470196     0.00006967251663
    9     0.00444320371058     0.00006656154646     0.00005295470196     0.00000000000000     0.00778721240415
   10     0.00984033467258     0.00011445405652     0.00006967251663     0.00778721240415     0.00000000000000
   11     0.00352955326307     0.00009776586522     0.00005237792297     0.00945223836800     0.00947635940608
   12     0.00005299243081     0.01013143865388     0.00444081124432     0.00171551070732     0.00097405379798
   13     0.00006959704502     0.00363430105460     0.00984040491524     0.00097287271806     0.00014515981214
   14     0.00005238042472     0.00336049143969     0.00353178163407     0.00044285626101     0.00005944327558

                11                  12                  13                  14

    1     0.04863361782267     0.01032546769206     0.01179731180490     0.01268602914518
    2     0.01268600413110     0.03909521475275     0.04004130109185     0.04863377456541
    3     0.91293115873093     0.01401134418786     0.00805049646752     0.00212279478594
    4     0.00212323850314     0.90475023101234     0.90714636380023     0.91293115287107
    5     0.00336251378343     0.00006664530314     0.00011439419621     0.00009775462696
    6     0.00352955326307     0.00005299243081     0.00006959704502     0.00005238042472
    7     0.00009776586522     0.01013143865388     0.00363430105460     0.00336049143969
    8     0.00005237792297     0.00444081124432     0.00984040491524     0.00353178163407
    9     0.00945223836800     0.00171551070732     0.00097287271806     0.00044285626101
   10     0.00947635940608     0.00097405379798     0.00014515981214     0.00005944327558
   11     0.00000000000000     0.00044295168667     0.00005937460180     0.00001447259316
   12     0.00044295168667     0.00000000000000     0.00778760480588     0.00945219201219
   13     0.00005937460180     0.00778760480588     0.00000000000000     0.00947611112793
   14     0.00001447259316     0.00945219201219     0.00947611112793     0.00000000000000



  Atomic Valences: 

 #  #
 Irrep: 1
      1:  4.4482212
      2:  4.4482228
      3:  4.2084871
      4:  4.2084851
      5:  1.0011413
      6:  0.9993036
      7:  1.0011405
      8:  0.9993042
      9:  1.0032431
     10:  0.9991364
     11:  1.0028616
     12:  1.0032465
     13:  0.9991353
     14:  1.0028612


    Psi4 stopped on: Monday, 24 May 2021 08:04PM
    Psi4 wall time for execution: 0:00:04.62

*** Psi4 exiting successfully. Buy a developer a beer!
