
    -----------------------------------------------------------------------
          Psi4: An Open-Source Ab Initio Electronic Structure Package
                               Psi4 1.3.2 release

                         Git: Rev {HEAD} ecbda83 


    R. M. Parrish, L. A. Burns, D. G. A. Smith, A. C. Simmonett,
    A. E. DePrince III, E. G. Hohenstein, U. Bozkaya, A. Yu. Sokolov,
    R. Di Remigio, R. M. Richard, J. F. Gonthier, A. M. James,
    H. R. McAlexander, A. Kumar, M. Saitow, X. Wang, B. P. Pritchard,
    P. Verma, H. F. Schaefer III, K. Patkowski, R. A. King, E. F. Valeev,
    F. A. Evangelista, J. M. Turney, T. D. Crawford, and C. D. Sherrill,
    J. Chem. Theory Comput. 13(7) pp 3185--3197 (2017).
    (doi: 10.1021/acs.jctc.7b00174)


                         Additional Contributions by
    P. Kraus, H. Kruse, M. H. Lechner, M. C. Schieber, R. A. Shaw,
    A. Alenaizan, R. Galvelis, Z. L. Glick, S. Lehtola, and J. P. Misiewicz

    -----------------------------------------------------------------------


    Psi4 started on: Monday, 24 May 2021 08:00PM

    Process ID: 71848
    Host:       daniele-Precision-5750
    PSIDATADIR: /home/daniele/anaconda3/envs/poltype/share/psi4
    Memory:     500.0 MiB
    Threads:    1
    
  ==> Input File <==

--------------------------------------------------------------------------
molecule { 
0 1
 C   -0.147653   -1.012247   -0.368417
 C    0.380756    0.453163   -0.911535
 C   -0.912895   -0.922608    0.963242
 C    0.696661    1.441050    0.223953
 H    0.750121   -1.697437   -0.191243
 H   -0.835737   -1.455360   -1.116438
 H   -0.431431    0.934977   -1.557518
 H    1.312367    0.317377   -1.497302
 H   -1.831269   -0.258257    0.870340
 H   -0.234523   -0.537641    1.752925
 H   -1.270644   -1.950461    1.313655
 H    1.507115    1.036784    0.913357
 H   -0.230134    1.648478    0.798195
 H    1.063274    2.445446   -0.181521
}
set optking { 
  frozen_dihedral = ("
    3 1 2 4
    2 1 3 9
    1 2 4 12
  ")
}
set {
  geom_maxiter 5
  g_convergence GAU_LOOSE
  dynamic_level 1
}
memory 700MB
set_num_threads(8)
psi4_io.set_default_path("/home/daniele/PSI4_sctatch/Psi4-butane")
for _ in range(1):
  try:
    set opt_coordinates both
    optimize('wb97x-d/6-31G*')
    break
  except OptimizationConvergenceError:
    break
  else:
    try:
      set opt_coordinates cartesian
      optimize('wb97x-d/6-31G*')
      break
    except OptimizationConvergenceError:
      pass
clean()
--------------------------------------------------------------------------

  Memory set to 667.572 MiB by Python driver.
  Threads set to 8 by Python driver.
gradient() will perform analytic gradient computation.

*** tstart() called on daniele-Precision-5750
*** at Mon May 24 20:00:27 2021

   => Loading Basis Set <=

    Name: 6-31G*
    Role: ORBITAL
    Keyword: BASIS
    atoms 1-4  entry C          line   111 file /home/daniele/anaconda3/envs/poltype/share/psi4/basis/6-31gs.gbs 
    atoms 5-14 entry H          line    44 file /home/daniele/anaconda3/envs/poltype/share/psi4/basis/6-31gs.gbs 


         ---------------------------------------------------------
                                   SCF
               by Justin Turney, Rob Parrish, Andy Simmonett
                          and Daniel G. A. Smith
                              RKS Reference
                        8 Threads,    667 MiB Core
         ---------------------------------------------------------

  ==> Geometry <==

    Molecular point group: c1
    Full point group: C1

    Geometry (in Angstrom), charge = 0, multiplicity = 1:

       Center              X                  Y                   Z               Mass       
    ------------   -----------------  -----------------  -----------------  -----------------
         C           -0.147652918321    -1.012246803370    -0.368417143889    12.000000000000
         C            0.380756081679     0.453163196630    -0.911535143889    12.000000000000
         C           -0.912894918321    -0.922607803370     0.963241856111    12.000000000000
         C            0.696661081679     1.441050196630     0.223952856111    12.000000000000
         H            0.750121081679    -1.697436803370    -0.191243143889     1.007825032230
         H           -0.835736918321    -1.455359803370    -1.116438143889     1.007825032230
         H           -0.431430918321     0.934977196630    -1.557518143889     1.007825032230
         H            1.312367081679     0.317377196630    -1.497302143889     1.007825032230
         H           -1.831268918321    -0.258256803370     0.870339856111     1.007825032230
         H           -0.234522918321    -0.537640803370     1.752924856111     1.007825032230
         H           -1.270643918321    -1.950460803370     1.313654856111     1.007825032230
         H            1.507115081679     1.036784196630     0.913356856111     1.007825032230
         H           -0.230133918321     1.648478196630     0.798194856111     1.007825032230
         H            1.063274081679     2.445446196630    -0.181521143889     1.007825032230

  Running in c1 symmetry.

  Rotational constants: A =      0.38974  B =      0.16735  C =      0.13175 [cm^-1]
  Rotational constants: A =  11684.21916  B =   5017.11610  C =   3949.66558 [MHz]
  Nuclear repulsion =  129.728637355029122

  Charge       = 0
  Multiplicity = 1
  Electrons    = 34
  Nalpha       = 17
  Nbeta        = 17

  ==> Algorithm <==

  SCF Algorithm Type is DF.
  DIIS enabled.
  MOM disabled.
  Fractional occupation disabled.
  Guess Type is SAD.
  Energy threshold   = 1.00e-08
  Density threshold  = 1.00e-08
  Integral threshold = 0.00e+00

  ==> Primary Basis <==

  Basis Set: 6-31G*
    Blend: 6-31G*
    Number of shells: 44
    Number of basis function: 80
    Number of Cartesian functions: 80
    Spherical Harmonics?: false
    Max angular momentum: 2

  ==> DFT Potential <==

   => Composite Functional: WB97X-D <= 

    wB97X-D Hyb-GGA Exchange-Correlation Functional

    J.-D. Chai and M. Head-Gordon, Phys. Chem. Chem. Phys. 10, 6615 (2008)

    Deriv               =              1
    GGA                 =           TRUE
    Meta                =          FALSE

    Exchange Hybrid     =           TRUE
    MP2 Hybrid          =          FALSE

   => Exchange-Correlation Functionals <=

    1.0000   wB97D range-separated functional

   => Exact (HF) Exchange <=

    0.7780            HF,LR [omega = 0.2000]
    0.2220               HF 

   => Molecular Quadrature <=

    Radial Scheme          =       TREUTLER
    Pruning Scheme         =           FLAT
    Nuclear Scheme         =       TREUTLER

    BS radius alpha        =              1
    Pruning alpha          =              1
    Radial Points          =             75
    Spherical Points       =            302
    Total Points           =         310248
    Total Blocks           =           2370
    Max Points             =            256
    Max Functions          =             80

   => WB97X-D: Empirical Dispersion <=

    Chai and Head-Gordon Dispersion Correction
    Chai, J.-D.; Head-Gordon, M. (2010), J. Chem. Phys., 132: 6615-6620

        s6 =       1.000000

   => Loading Basis Set <=

    Name: (6-31G* AUX)
    Role: JKFIT
    Keyword: DF_BASIS_SCF
    atoms 1-4  entry C          line   121 file /home/daniele/anaconda3/envs/poltype/share/psi4/basis/cc-pvdz-jkfit.gbs 
    atoms 5-14 entry H          line    51 file /home/daniele/anaconda3/envs/poltype/share/psi4/basis/cc-pvdz-jkfit.gbs 

  ==> Pre-Iterations <==

   -------------------------------------------------------
    Irrep   Nso     Nmo     Nalpha   Nbeta   Ndocc  Nsocc
   -------------------------------------------------------
     A         80      80       0       0       0       0
   -------------------------------------------------------
    Total      80      80      17      17      17       0
   -------------------------------------------------------

  ==> Integral Setup <==

  ==> DiskDFJK: Density-Fitted J/K Matrices <==

    J tasked:                  Yes
    K tasked:                  Yes
    wK tasked:                 Yes
    Omega:               2.000E-01
    OpenMP threads:              8
    Integrals threads:           8
    Memory [MiB]:               22
    Algorithm:                Disk
    Integral Cache:           NONE
    Schwarz Cutoff:          1E-12
    Fitting Condition:       1E-10

   => Auxiliary Basis Set <=

  Basis Set: (6-31G* AUX)
    Blend: CC-PVDZ-JKFIT
    Number of shells: 186
    Number of basis function: 574
    Number of Cartesian functions: 574
    Spherical Harmonics?: false
    Max angular momentum: 3

  Cached 100.0% of DFT collocation blocks in 0.614 [GiB].

  Minimum eigenvalue in the overlap matrix is 5.3226111320E-03.
  Using Symmetric Orthogonalization.

  SCF Guess: Superposition of Atomic Densities via on-the-fly atomic UHF.

  ==> Iterations <==

                           Total Energy        Delta E     RMS |[F,P]|

   @DF-RKS iter SAD:  -157.30203265923646   -1.57302e+02   0.00000e+00 
   @DF-RKS iter   1:  -158.20168005308534   -8.99647e-01   7.24923e-03 DIIS
   @DF-RKS iter   2:  -158.27863787200033   -7.69578e-02   5.83413e-03 DIIS
   @DF-RKS iter   3:  -158.38847857248049   -1.09841e-01   2.51984e-04 DIIS
   @DF-RKS iter   4:  -158.38882474130611   -3.46169e-04   8.97926e-05 DIIS
   @DF-RKS iter   5:  -158.38885856355989   -3.38223e-05   2.94250e-05 DIIS
   @DF-RKS iter   6:  -158.38886132671712   -2.76316e-06   7.44780e-06 DIIS
   @DF-RKS iter   7:  -158.38886152722404   -2.00507e-07   6.56254e-07 DIIS
   @DF-RKS iter   8:  -158.38886152976747   -2.54343e-09   1.18068e-07 DIIS
   @DF-RKS iter   9:  -158.38886152987328   -1.05814e-10   2.35525e-08 DIIS
   @DF-RKS iter  10:  -158.38886152987837   -5.08749e-12   1.03855e-08 DIIS
   @DF-RKS iter  11:  -158.38886152987894   -5.68434e-13   2.77844e-09 DIIS
  Energy and wave function converged.


  ==> Post-Iterations <==

    Orbital Energies [Eh]
    ---------------------

    Doubly Occupied:                                                      

       1A    -10.301639     2A    -10.301533     3A    -10.291162  
       4A    -10.291153     5A     -0.872530     6A     -0.806696  
       7A     -0.717025     8A     -0.642920     9A     -0.542597  
      10A     -0.523803    11A     -0.491399    12A     -0.456685  
      13A     -0.446745    14A     -0.436238    15A     -0.400442  
      16A     -0.398032    17A     -0.382959  

    Virtual:                                                              

      18A      0.161711    19A      0.210529    20A      0.213679  
      21A      0.223108    22A      0.230216    23A      0.237086  
      24A      0.248280    25A      0.263212    26A      0.273799  
      27A      0.285632    28A      0.305786    29A      0.315406  
      30A      0.361632    31A      0.594253    32A      0.625325  
      33A      0.626074    34A      0.660762    35A      0.682969  
      36A      0.706640    37A      0.726368    38A      0.734112  
      39A      0.764805    40A      0.796268    41A      0.918789  
      42A      0.942632    43A      0.948795    44A      0.954154  
      45A      0.968329    46A      0.983667    47A      0.993735  
      48A      0.998606    49A      1.035252    50A      1.035973  
      51A      1.095193    52A      1.116284    53A      1.124115  
      54A      1.402826    55A      1.480780    56A      1.527449  
      57A      1.548598    58A      1.715590    59A      1.780875  
      60A      1.813510    61A      1.903965    62A      2.035367  
      63A      2.045703    64A      2.084007    65A      2.093345  
      66A      2.151272    67A      2.206197    68A      2.297106  
      69A      2.348789    70A      2.366692    71A      2.396193  
      72A      2.425357    73A      2.449592    74A      2.643942  
      75A      2.653242    76A      2.779608    77A      4.177259  
      78A      4.340702    79A      4.428289    80A      4.598836  

    Final Occupation by Irrep:
              A 
    DOCC [    17 ]

  @DF-RKS Final Energy:  -158.38886152987894

   => Energetics <=

    Nuclear Repulsion Energy =            129.7286373550291216
    One-Electron Energy =                -468.1574509895568781
    Two-Electron Energy =                 197.0722760174398047
    DFT Exchange-Correlation Energy =     -17.0254549206247603
    Empirical Dispersion Energy =          -0.0068689921662548
    VV10 Nonlocal Energy =                  0.0000000000000000
    Total Energy =                       -158.3888615298789375

Computation Completed


Properties will be evaluated at   0.000000,   0.000000,   0.000000 [a0]

Properties computed using the SCF density matrix

  Nuclear Dipole Moment: [e a0]
     X:    -0.1883      Y:     0.4536      Z:     1.0354

  Electronic Dipole Moment: [e a0]
     X:     0.1901      Y:    -0.4591      Z:    -1.0462

  Dipole Moment: [e a0]
     X:     0.0018      Y:    -0.0054      Z:    -0.0108     Total:     0.0122

  Dipole Moment: [D]
     X:     0.0045      Y:    -0.0137      Z:    -0.0275     Total:     0.0311


*** tstop() called on daniele-Precision-5750 at Mon May 24 20:00:31 2021
Module time:
	user time   =      23.81 seconds =       0.40 minutes
	system time =       0.61 seconds =       0.01 minutes
	total time  =          4 seconds =       0.07 minutes
Total time:
	user time   =      23.81 seconds =       0.40 minutes
	system time =       0.61 seconds =       0.01 minutes
	total time  =          4 seconds =       0.07 minutes

*** tstart() called on daniele-Precision-5750
*** at Mon May 24 20:00:31 2021


         ------------------------------------------------------------
                                   SCF GRAD                          
                          Rob Parrish, Justin Turney,                
                       Andy Simmonett, and Alex Sokolov              
         ------------------------------------------------------------

  ==> Geometry <==

    Molecular point group: c1
    Full point group: C1

    Geometry (in Angstrom), charge = 0, multiplicity = 1:

       Center              X                  Y                   Z               Mass       
    ------------   -----------------  -----------------  -----------------  -----------------
         C           -0.147652918321    -1.012246803370    -0.368417143889    12.000000000000
         C            0.380756081679     0.453163196630    -0.911535143889    12.000000000000
         C           -0.912894918321    -0.922607803370     0.963241856111    12.000000000000
         C            0.696661081679     1.441050196630     0.223952856111    12.000000000000
         H            0.750121081679    -1.697436803370    -0.191243143889     1.007825032230
         H           -0.835736918321    -1.455359803370    -1.116438143889     1.007825032230
         H           -0.431430918321     0.934977196630    -1.557518143889     1.007825032230
         H            1.312367081679     0.317377196630    -1.497302143889     1.007825032230
         H           -1.831268918321    -0.258256803370     0.870339856111     1.007825032230
         H           -0.234522918321    -0.537640803370     1.752924856111     1.007825032230
         H           -1.270643918321    -1.950460803370     1.313654856111     1.007825032230
         H            1.507115081679     1.036784196630     0.913356856111     1.007825032230
         H           -0.230133918321     1.648478196630     0.798194856111     1.007825032230
         H            1.063274081679     2.445446196630    -0.181521143889     1.007825032230

  Nuclear repulsion =  129.728637355029122

  ==> Basis Set <==

  Basis Set: 6-31G*
    Blend: 6-31G*
    Number of shells: 44
    Number of basis function: 80
    Number of Cartesian functions: 80
    Spherical Harmonics?: false
    Max angular momentum: 2

  ==> DFJKGrad: Density-Fitted SCF Gradients <==

    Gradient:                    1
    J tasked:                  Yes
    K tasked:                  Yes
    wK tasked:                 Yes
    Omega:               2.000E-01
    OpenMP threads:              8
    Integrals threads:           8
    Memory [MiB]:              500
    Schwarz Cutoff:          0E+00
    Fitting Condition:       1E-10

   => Auxiliary Basis Set <=

  Basis Set: (6-31G* AUX)
    Blend: CC-PVDZ-JKFIT
    Number of shells: 186
    Number of basis function: 574
    Number of Cartesian functions: 574
    Spherical Harmonics?: false
    Max angular momentum: 3

  ==> DFT Potential <==

   => Composite Functional: WB97X-D <= 

    wB97X-D Hyb-GGA Exchange-Correlation Functional

    J.-D. Chai and M. Head-Gordon, Phys. Chem. Chem. Phys. 10, 6615 (2008)

    Deriv               =              1
    GGA                 =           TRUE
    Meta                =          FALSE

    Exchange Hybrid     =           TRUE
    MP2 Hybrid          =          FALSE

   => Exchange-Correlation Functionals <=

    1.0000   wB97D range-separated functional

   => Exact (HF) Exchange <=

    0.7780            HF,LR [omega = 0.2000]
    0.2220               HF 

   => Molecular Quadrature <=

    Radial Scheme          =       TREUTLER
    Pruning Scheme         =           FLAT
    Nuclear Scheme         =       TREUTLER

    BS radius alpha        =              1
    Pruning alpha          =              1
    Radial Points          =             75
    Spherical Points       =            302
    Total Points           =         310248
    Total Blocks           =           2370
    Max Points             =            256
    Max Functions          =             80


  -Total Gradient:
     Atom            X                  Y                   Z
    ------   -----------------  -----------------  -----------------
       1       -0.018262645121    -0.017467959843     0.002118786852
       2        0.018810499175     0.015549422128    -0.004971386586
       3        0.014670864423     0.007553542082    -0.007520928526
       4       -0.012648983190    -0.012326059893    -0.004283068215
       5        0.020970722757    -0.015747858370     0.010114019403
       6       -0.012559583956    -0.001553299377    -0.001740981172
       7       -0.020948455714     0.015496754309    -0.011539908057
       8        0.012609040814     0.001879768565     0.001542689685
       9       -0.020533412319     0.012726635414    -0.004474177949
      10        0.010835515424     0.001031587277     0.004690713666
      11       -0.008256477538    -0.023797392482     0.010763190861
      12        0.019333248325    -0.009454387673     0.012749725673
      13       -0.011771020892     0.000901469248     0.000441887927
      14        0.007748497348     0.025196007610    -0.007887469856


*** tstop() called on daniele-Precision-5750 at Mon May 24 20:00:32 2021
Module time:
	user time   =       8.59 seconds =       0.14 minutes
	system time =       0.07 seconds =       0.00 minutes
	total time  =          1 seconds =       0.02 minutes
Total time:
	user time   =      32.41 seconds =       0.54 minutes
	system time =       0.68 seconds =       0.01 minutes
	total time  =          5 seconds =       0.08 minutes

			-----------------------------------------
			 OPTKING 2.0: for geometry optimizations 
			  - R.A. King,  Bethel University        
			-----------------------------------------
	At level 1: Red. Int., RFO, no backsteps, dynamic trust

	Internal coordinates to be generated automatically.
	Detected frag 1 with atoms:  1 2 3 4 5 6 7 8 9 10 11 12 13 14
	---Fragment 1 Bond Connectivity---
	 1 : 2 3 5 6
	 2 : 1 4 7 8
	 3 : 1 9 10 11
	 4 : 2 12 13 14
	 5 : 1
	 6 : 1
	 7 : 2
	 8 : 2
	 9 : 3
	 10 : 3
	 11 : 3
	 12 : 4
	 13 : 4
	 14 : 4

	Assuming in current code that numbering for constraints corresponds to unified fragment.
	Frozen dihedral atom list: 
	     3     1     2     4
	     2     1     3     9
	     1     2     4    12
	---Fragment 1 Geometry and Gradient---
	 C          -0.2790235773       -1.9128692297       -0.6962075019
	 C           0.7195247150        0.8563543318       -1.7225517757
	 C          -1.7251213769       -1.7434760696        1.8202633006
	 C           1.3164986466        2.7231902047        0.4232095631
	 H           1.4175234053       -3.2076906736       -0.3613971653
	 H          -1.5793138886       -2.7502314424       -2.1097623280
	 H          -0.8152862777        1.7668508352       -2.9432827274
	 H           2.4800143604        0.5997559801       -2.8294909790
	 H          -3.4605967177       -0.4880346284        1.6447039641
	 H          -0.4431840858       -1.0159938722        3.3125478966
	 H          -2.4011690086       -3.6858367368        2.4824479014
	 H           2.8480347439        1.9592381828        1.7259943129
	 H          -0.4348900778        3.1151723154        1.5083696728
	 H           2.0092968107        4.6212235662       -0.3430252479
	            -0.0182626451       -0.0174679598        0.0021187869
	             0.0188104992        0.0155494221       -0.0049713866
	             0.0146708644        0.0075535421       -0.0075209285
	            -0.0126489832       -0.0123260599       -0.0042830682
	             0.0209707228       -0.0157478584        0.0101140194
	            -0.0125595840       -0.0015532994       -0.0017409812
	            -0.0209484557        0.0154967543       -0.0115399081
	             0.0126090408        0.0018797686        0.0015426897
	            -0.0205334123        0.0127266354       -0.0044741779
	             0.0108355154        0.0010315873        0.0046907137
	            -0.0082564775       -0.0237973925        0.0107631909
	             0.0193332483       -0.0094543877        0.0127497257
	            -0.0117710209        0.0009014692        0.0004418879
	             0.0077484973        0.0251960076       -0.0078874699

	Previous optimization step data not found.  Starting new optimization.

	---Fragment 1 Intrafragment Coordinates---
	 - Coordinate -           - BOHR/RAD -       - ANG/DEG -
	 R(1,2)           =         3.117544	       1.649733
	 R(1,3)           =         2.907321	       1.538488
	 R(1,5)           =         2.160308	       1.143186
	 R(1,6)           =         2.095249	       1.108758
	 R(2,4)           =         2.906157	       1.537872
	 R(2,7)           =         2.162136	       1.144153
	 R(2,8)           =         2.095347	       1.108810
	 R(3,9)           =         2.149146	       1.137279
	 R(3,10)          =         2.097500	       1.109949
	 R(3,11)          =         2.160623	       1.143353
	 R(4,12)          =         2.150924	       1.138220
	 R(4,13)          =         2.097280	       1.109833
	 R(4,14)          =         2.160929	       1.143515
	 B(1,2,4)         =         1.975036	     113.161212
	 B(1,2,7)         =         1.909819	     109.424563
	 B(1,2,8)         =         1.911609	     109.527147
	 B(1,3,9)         =         1.944416	     111.406853
	 B(1,3,10)        =         1.909244	     109.391635
	 B(1,3,11)        =         1.948225	     111.625071
	 B(2,1,3)         =         1.974165	     113.111336
	 B(2,1,5)         =         1.909097	     109.383217
	 B(2,1,6)         =         1.908865	     109.369922
	 B(2,4,12)        =         1.944772	     111.427204
	 B(2,4,13)        =         1.907686	     109.302330
	 B(2,4,14)        =         1.947945	     111.609031
	 B(3,1,5)         =         1.866481	     106.941477
	 B(3,1,6)         =         1.873975	     107.370830
	 B(4,2,7)         =         1.867298	     106.988296
	 B(4,2,8)         =         1.871440	     107.225621
	 B(5,1,6)         =         1.930918	     110.633426
	 B(7,2,8)         =         1.928067	     110.470124
	 B(9,3,10)        =         1.927350	     110.429006
	 B(9,3,11)        =         1.872885	     107.308399
	 B(10,3,11)       =         1.859785	     106.557817
	 B(12,4,13)       =         1.925803	     110.340394
	 B(12,4,14)       =         1.873866	     107.364609
	 B(13,4,14)       =         1.861924	     106.680359
	*D(1,2,4,12)      =         1.043704	      59.799856
	 D(1,2,4,13)      =        -1.089347	     -62.414996
	 D(1,2,4,14)      =         3.138444	     179.819609
	*D(2,1,3,9)       =         1.044155	      59.825676
	 D(2,1,3,10)      =        -1.091683	     -62.548803
	 D(2,1,3,11)      =         3.137594	     179.770869
	*D(3,1,2,4)       =         0.532042	      30.483738
	 D(3,1,2,7)       =        -1.548355	     -88.714186
	 D(3,1,2,8)       =         2.618915	     150.052772
	 D(4,2,1,5)       =        -1.546270	     -88.594736
	 D(4,2,1,6)       =         2.619661	     150.095507
	 D(5,1,2,7)       =         2.656519	     152.207340
	 D(5,1,2,8)       =         0.540603	      30.974298
	 D(5,1,3,9)       =        -3.136284	    -179.695820
	 D(5,1,3,10)      =         1.011064	      57.929701
	 D(5,1,3,11)      =        -1.042845	     -59.750627
	 D(6,1,2,7)       =         0.539265	      30.897582
	 D(6,1,2,8)       =        -1.576651	     -90.335460
	 D(6,1,3,9)       =        -1.063387	     -60.927599
	 D(6,1,3,10)      =         3.083961	     176.697922
	 D(6,1,3,11)      =         1.030051	      59.017593
	 D(7,2,4,12)      =        -3.134756	    -179.608276
	 D(7,2,4,13)      =         1.015378	      58.176872
	 D(7,2,4,14)      =        -1.040016	     -59.588523
	 D(8,2,4,12)      =        -1.066075	     -61.081615
	 D(8,2,4,13)      =         3.084058	     176.703533
	 D(8,2,4,14)      =         1.028665	      58.938137

	Current energy   :      -158.3888615299

	Generating empirical Hessian (Schlegel '84) for each fragment.
	Taking RFO optimization step.
	Going to follow RFO solution 1.
	Using RFO vector 1.
	Norm of target step-size    0.33989
	Projected energy change by RFO approximation:        -0.0187465106

	Back-transformation to cartesian coordinates...
	Successfully converged to displaced geometry.

	Back-transformation to cartesian coordinates to adjust frozen coordinates...
	Successfully converged to displaced geometry.

	--- Internal Coordinate Step in ANG or DEG, aJ/ANG or AJ/DEG ---
	 ---------------------------------------------------------------------------
	   Coordinate                Previous        Force       Change         New 
	   ----------                --------       ------       ------       ------
	    1 R(1,2)          =      1.649733    -0.345161    -0.095401     1.554332
	    2 R(1,3)          =      1.538488    -0.036873    -0.007581     1.530907
	    3 R(1,5)          =      1.143186    -0.226393    -0.045566     1.097620
	    4 R(1,6)          =      1.108758    -0.078978    -0.014362     1.094396
	    5 R(2,4)          =      1.537872    -0.033542    -0.006884     1.530988
	    6 R(2,7)          =      1.144153    -0.229999    -0.046421     1.097732
	    7 R(2,8)          =      1.108810    -0.078642    -0.014303     1.094507
	    8 R(3,9)          =      1.137279    -0.200798    -0.039730     1.097549
	    9 R(3,10)         =      1.109949    -0.085047    -0.015522     1.094428
	   10 R(3,11)         =      1.143353    -0.224728    -0.045253     1.098100
	   11 R(4,12)         =      1.138220    -0.204630    -0.040599     1.097621
	   12 R(4,13)         =      1.109833    -0.084300    -0.015380     1.094453
	   13 R(4,14)         =      1.143515    -0.225862    -0.045502     1.098013
	   14 B(1,2,4)        =    113.161212     0.000207     1.157323   114.318535
	   15 B(1,2,7)        =    109.424563    -0.000202    -1.347422   108.077141
	   16 B(1,2,8)        =    109.527147    -0.000267    -1.539532   107.987615
	   17 B(1,3,9)        =    111.406853     0.000126     0.281541   111.688394
	   18 B(1,3,10)       =    109.391635     0.000564     2.470131   111.861766
	   19 B(1,3,11)       =    111.625071    -0.000335    -1.288595   110.336477
	   20 B(2,1,3)        =    113.111336     0.000207     1.164145   114.275481
	   21 B(2,1,5)        =    109.383217    -0.000204    -1.336061   108.047156
	   22 B(2,1,6)        =    109.369922    -0.000245    -1.406225   107.963697
	   23 B(2,4,12)       =    111.427204     0.000116     0.248462   111.675666
	   24 B(2,4,13)       =    109.302330     0.000588     2.577281   111.879611
	   25 B(2,4,14)       =    111.609031    -0.000325    -1.251583   110.357448
	   26 B(3,1,5)        =    106.941477     0.000187     1.506447   108.447925
	   27 B(3,1,6)        =    107.370830     0.000246     2.231408   109.602239
	   28 B(4,2,7)        =    106.988296     0.000178     1.463610   108.451906
	   29 B(4,2,8)        =    107.225621     0.000267     2.361255   109.586876
	   30 B(5,1,6)        =    110.633426    -0.000181    -2.282605   108.350822
	   31 B(7,2,8)        =    110.470124    -0.000172    -2.212614   108.257510
	   32 B(9,3,10)       =    110.429006    -0.000410    -1.832666   108.596339
	   33 B(9,3,11)       =    107.308399     0.000043    -0.119808   107.188591
	   34 B(10,3,11)      =    106.557817    -0.000016     0.386885   106.944702
	   35 B(12,4,13)      =    110.340394    -0.000409    -1.811804   108.528590
	   36 B(12,4,14)      =    107.364609     0.000039    -0.160583   107.204026
	   37 B(13,4,14)      =    106.680359    -0.000036     0.291101   106.971461
	   38 *D(1,2,4,12)    =     59.799856     0.000000    -0.000000    59.799856
	   39 D(1,2,4,13)     =    -62.414996     0.000009     0.336767   -62.078229
	   40 D(1,2,4,14)     =    179.819609    -0.000021    -0.878668   178.940941
	   41 *D(2,1,3,9)     =     59.825676    -0.000000    -0.000000    59.825676
	   42 D(2,1,3,10)     =    -62.548803     0.000011     0.412301   -62.136502
	   43 D(2,1,3,11)     =    179.770869    -0.000020    -0.829137   178.941732
	   44 *D(3,1,2,4)     =     30.483738     0.000000    -0.000000    30.483738
	   45 D(3,1,2,7)      =    -88.714186    -0.000050    -1.657101   -90.371287
	   46 D(3,1,2,8)      =    150.052772     0.000066     2.673722   152.726494
	   47 D(4,2,1,5)      =    -88.594736    -0.000052    -1.721925   -90.316661
	   48 D(4,2,1,6)      =    150.095507     0.000063     2.604299   152.699805
	   49 D(5,1,2,7)      =    152.207340    -0.000103    -3.379027   148.828313
	   50 D(5,1,2,8)      =     30.974298     0.000013     0.951797    31.926094
	   51 D(5,1,3,9)      =   -179.695820    -0.000001     0.099258  -179.596562
	   52 D(5,1,3,10)     =     57.929701     0.000010     0.511559    58.441260
	   53 D(5,1,3,11)     =    -59.750627    -0.000021    -0.729878   -60.480505
	   54 D(6,1,2,7)      =     30.897582     0.000013     0.947197    31.844779
	   55 D(6,1,2,8)      =    -90.335460     0.000129     5.278021   -85.057439
	   56 D(6,1,3,9)      =    -60.927599     0.000002    -0.562788   -61.490387
	   57 D(6,1,3,10)     =    176.697922     0.000013    -0.150487   176.547435
	   58 D(6,1,3,11)     =     59.017593    -0.000018    -1.391925    57.625669
	   59 D(7,2,4,12)     =   -179.608276    -0.000001     0.055271  -179.553005
	   60 D(7,2,4,13)     =     58.176872     0.000008     0.392038    58.568911
	   61 D(7,2,4,14)     =    -59.588523    -0.000023    -0.823397   -60.411920
	   62 D(8,2,4,12)     =    -61.081615     0.000006    -0.483944   -61.565560
	   63 D(8,2,4,13)     =    176.703533     0.000014    -0.147177   176.556356
	   64 D(8,2,4,14)     =     58.938137    -0.000016    -1.362612    57.575525
	 ---------------------------------------------------------------------------
	Successfully symmetrized geometry.

  ==> Convergence Check <==

  Measures of convergence in internal coordinates in au.
  Criteria marked as inactive (o), active & met (*), and active & unmet ( ).
  --------------------------------------------------------------------------------------------- ~
   Step     Total Energy     Delta E     MAX Force     RMS Force      MAX Disp      RMS Disp    ~
  --------------------------------------------------------------------------------------------- ~
    Convergence Criteria             o    2.50e-03 *    1.70e-03 *    1.00e-02 *    6.70e-03 *  ~
  --------------------------------------------------------------------------------------------- ~
      1    -158.38886153   -1.58e+02 o    4.19e-02      1.04e-02      1.80e-01      4.26e-02    ~
  ---------------------------------------------------------------------------------------------

	Writing optimization data to binary file.
	Structure for next step:
	Cartesian Geometry (in Angstrom)
	    C    -0.1614075493  -0.9548829707  -0.3727504433
	    C     0.3853722811   0.4123860507  -0.8703003023
	    C    -0.9407888749  -0.8799832578   0.9427845647
	    C     0.7254866372   1.4003213428   0.2487305019
	    H     0.6913656096  -1.6316928504  -0.2331931604
	    H    -0.8037237565  -1.3671409983  -1.1570812218
	    H    -0.3753396500   0.8684602701  -1.5170847866
	    H     1.2779821064   0.2200541454  -1.4737909432
	    H    -1.8134019235  -0.2194208629   0.8602136490
	    H    -0.3140312504  -0.5287257370   1.7683539714
	    H    -1.3120719929  -1.8745406960   1.2235483049
	    H     1.4908177009   0.9987326974   0.9253153516
	    H    -0.1563250422   1.6663494494   0.8398860346
	    H     1.1220748488   2.3333501684  -0.1729405389
			--------------------------
			 OPTKING Finished Execution 
			--------------------------

    Structure for next step:
    Molecular point group: c1
    Full point group: C1

    Geometry (in Angstrom), charge = 0, multiplicity = 1:

    C           -0.159854284496    -0.958381040143    -0.380552303354
    C            0.386925548068     0.408887986585    -0.878102164335
    C           -0.939235613099    -0.883481327001     0.934982709756
    C            0.727039905459     1.396823282540     0.240928644291
    H            0.692918877749    -1.635190922523    -0.240995019912
    H           -0.802170494166    -1.370639069443    -1.164883084915
    H           -0.373786386018     0.864962207837    -1.524886651173
    H            1.279535376871     0.216556080574    -1.481592807605
    H           -1.811848665187    -0.222918929451     0.852411793732
    H           -0.312477986175    -0.532223804830     1.760552119724
    H           -1.310518732600    -1.878038769058     1.215746451139
    H            1.492370972183     0.995234635575     0.917513496636
    H           -0.154771777358     1.662851390197     0.832084179324
    H            1.123628118675     2.329852111886    -0.180742398205

gradient() will perform analytic gradient computation.

*** tstart() called on daniele-Precision-5750
*** at Mon May 24 20:00:32 2021

   => Loading Basis Set <=

    Name: 6-31G*
    Role: ORBITAL
    Keyword: BASIS
    atoms 1-4  entry C          line   111 file /home/daniele/anaconda3/envs/poltype/share/psi4/basis/6-31gs.gbs 
    atoms 5-14 entry H          line    44 file /home/daniele/anaconda3/envs/poltype/share/psi4/basis/6-31gs.gbs 


         ---------------------------------------------------------
                                   SCF
               by Justin Turney, Rob Parrish, Andy Simmonett
                          and Daniel G. A. Smith
                              RKS Reference
                        8 Threads,    667 MiB Core
         ---------------------------------------------------------

  ==> Geometry <==

    Molecular point group: c1
    Full point group: C1

    Geometry (in Angstrom), charge = 0, multiplicity = 1:

       Center              X                  Y                   Z               Mass       
    ------------   -----------------  -----------------  -----------------  -----------------
         C           -0.159854284496    -0.958381040143    -0.380552303354    12.000000000000
         C            0.386925548068     0.408887986585    -0.878102164335    12.000000000000
         C           -0.939235613099    -0.883481327001     0.934982709756    12.000000000000
         C            0.727039905459     1.396823282540     0.240928644291    12.000000000000
         H            0.692918877749    -1.635190922523    -0.240995019912     1.007825032230
         H           -0.802170494166    -1.370639069443    -1.164883084915     1.007825032230
         H           -0.373786386018     0.864962207837    -1.524886651173     1.007825032230
         H            1.279535376871     0.216556080574    -1.481592807605     1.007825032230
         H           -1.811848665187    -0.222918929451     0.852411793732     1.007825032230
         H           -0.312477986175    -0.532223804830     1.760552119724     1.007825032230
         H           -1.310518732600    -1.878038769058     1.215746451139     1.007825032230
         H            1.492370972183     0.995234635575     0.917513496636     1.007825032230
         H           -0.154771777358     1.662851390197     0.832084179324     1.007825032230
         H            1.123628118675     2.329852111886    -0.180742398205     1.007825032230

  Running in c1 symmetry.

  Rotational constants: A =      0.40057  B =      0.17686  C =      0.13736 [cm^-1]
  Rotational constants: A =  12008.91384  B =   5302.00402  C =   4118.09664 [MHz]
  Nuclear repulsion =  132.778196594639269

  Charge       = 0
  Multiplicity = 1
  Electrons    = 34
  Nalpha       = 17
  Nbeta        = 17

  ==> Algorithm <==

  SCF Algorithm Type is DF.
  DIIS enabled.
  MOM disabled.
  Fractional occupation disabled.
  Guess Type is READ.
  Energy threshold   = 1.00e-08
  Density threshold  = 1.00e-08
  Integral threshold = 0.00e+00

  ==> Primary Basis <==

  Basis Set: 6-31G*
    Blend: 6-31G*
    Number of shells: 44
    Number of basis function: 80
    Number of Cartesian functions: 80
    Spherical Harmonics?: false
    Max angular momentum: 2

  ==> DFT Potential <==

   => Composite Functional: WB97X-D <= 

    wB97X-D Hyb-GGA Exchange-Correlation Functional

    J.-D. Chai and M. Head-Gordon, Phys. Chem. Chem. Phys. 10, 6615 (2008)

    Deriv               =              1
    GGA                 =           TRUE
    Meta                =          FALSE

    Exchange Hybrid     =           TRUE
    MP2 Hybrid          =          FALSE

   => Exchange-Correlation Functionals <=

    1.0000   wB97D range-separated functional

   => Exact (HF) Exchange <=

    0.7780            HF,LR [omega = 0.2000]
    0.2220               HF 

   => Molecular Quadrature <=

    Radial Scheme          =       TREUTLER
    Pruning Scheme         =           FLAT
    Nuclear Scheme         =       TREUTLER

    BS radius alpha        =              1
    Pruning alpha          =              1
    Radial Points          =             75
    Spherical Points       =            302
    Total Points           =         310210
    Total Blocks           =           2373
    Max Points             =            256
    Max Functions          =             80

   => WB97X-D: Empirical Dispersion <=

    Chai and Head-Gordon Dispersion Correction
    Chai, J.-D.; Head-Gordon, M. (2010), J. Chem. Phys., 132: 6615-6620

        s6 =       1.000000

   => Loading Basis Set <=

    Name: (6-31G* AUX)
    Role: JKFIT
    Keyword: DF_BASIS_SCF
    atoms 1-4  entry C          line   121 file /home/daniele/anaconda3/envs/poltype/share/psi4/basis/cc-pvdz-jkfit.gbs 
    atoms 5-14 entry H          line    51 file /home/daniele/anaconda3/envs/poltype/share/psi4/basis/cc-pvdz-jkfit.gbs 

   => Loading Basis Set <=

    Name: 6-31G*
    Role: ORBITAL
    Keyword: BASIS
    atoms 1-4  entry C          line   111 file /home/daniele/anaconda3/envs/poltype/share/psi4/basis/6-31gs.gbs 
    atoms 5-14 entry H          line    44 file /home/daniele/anaconda3/envs/poltype/share/psi4/basis/6-31gs.gbs 

  Reading orbitals from file 180, no projection.

  ==> Pre-Iterations <==

   -------------------------------------------------------
    Irrep   Nso     Nmo     Nalpha   Nbeta   Ndocc  Nsocc
   -------------------------------------------------------
     A         80      80       0       0       0       0
   -------------------------------------------------------
    Total      80      80      17      17      17       0
   -------------------------------------------------------

  ==> Integral Setup <==

  ==> DiskDFJK: Density-Fitted J/K Matrices <==

    J tasked:                  Yes
    K tasked:                  Yes
    wK tasked:                 Yes
    Omega:               2.000E-01
    OpenMP threads:              8
    Integrals threads:           8
    Memory [MiB]:               22
    Algorithm:                Disk
    Integral Cache:           NONE
    Schwarz Cutoff:          1E-12
    Fitting Condition:       1E-10

   => Auxiliary Basis Set <=

  Basis Set: (6-31G* AUX)
    Blend: CC-PVDZ-JKFIT
    Number of shells: 186
    Number of basis function: 574
    Number of Cartesian functions: 574
    Spherical Harmonics?: false
    Max angular momentum: 3

  Cached 100.0% of DFT collocation blocks in 0.617 [GiB].

  Minimum eigenvalue in the overlap matrix is 4.6531814081E-03.
  Using Symmetric Orthogonalization.

  SCF Guess: Orbitals guess was supplied from a previous computation.

  ==> Iterations <==

                           Total Energy        Delta E     RMS |[F,P]|

   @DF-RKS iter   0:  -158.52009585627852   -1.58520e+02   2.18417e-03 
   @DF-RKS iter   1:  -158.40250083951588    1.17595e-01   3.07464e-04 DIIS
   @DF-RKS iter   2:  -158.40283459554607   -3.33756e-04   1.90483e-04 DIIS
   @DF-RKS iter   3:  -158.40294355736273   -1.08962e-04   3.59723e-05 DIIS
   @DF-RKS iter   4:  -158.40294934218920   -5.78483e-06   7.70216e-06 DIIS
   @DF-RKS iter   5:  -158.40294966705079   -3.24862e-07   1.56790e-06 DIIS
   @DF-RKS iter   6:  -158.40294967862332   -1.15725e-08   6.70254e-07 DIIS
   @DF-RKS iter   7:  -158.40294968024779   -1.62447e-09   1.08661e-07 DIIS
   @DF-RKS iter   8:  -158.40294968030921   -6.14193e-11   1.61461e-08 DIIS
   @DF-RKS iter   9:  -158.40294968031120   -1.98952e-12   3.03772e-09 DIIS
  Energy and wave function converged.


  ==> Post-Iterations <==

    Orbital Energies [Eh]
    ---------------------

    Doubly Occupied:                                                      

       1A    -10.286064     2A    -10.285886     3A    -10.278834  
       4A    -10.278824     5A     -0.886094     6A     -0.809579  
       7A     -0.734414     8A     -0.647444     9A     -0.549224  
      10A     -0.531918    11A     -0.492496    12A     -0.468044  
      13A     -0.451585    14A     -0.440685    15A     -0.402598  
      16A     -0.395368    17A     -0.389863  

    Virtual:                                                              

      18A      0.170260    19A      0.216547    20A      0.218567  
      21A      0.238049    22A      0.246436    23A      0.249762  
      24A      0.270104    25A      0.273279    26A      0.284394  
      27A      0.290487    28A      0.324985    29A      0.330008  
      30A      0.376208    31A      0.598956    32A      0.615076  
      33A      0.618708    34A      0.658639    35A      0.666111  
      36A      0.712069    37A      0.733211    38A      0.755186  
      39A      0.777200    40A      0.822946    41A      0.942754  
      42A      0.952013    43A      0.973453    44A      0.981619  
      45A      0.991078    46A      1.005640    47A      1.006755  
      48A      1.010941    49A      1.064362    50A      1.070176  
      51A      1.100944    52A      1.116556    53A      1.133144  
      54A      1.430470    55A      1.502454    56A      1.526303  
      57A      1.541598    58A      1.735092    59A      1.804524  
      60A      1.842439    61A      1.946191    62A      2.050631  
      63A      2.054759    64A      2.081899    65A      2.114350  
      66A      2.182509    67A      2.244470    68A      2.339356  
      69A      2.404168    70A      2.409420    71A      2.465098  
      72A      2.478434    73A      2.498114    74A      2.656642  
      75A      2.719878    76A      2.815203    77A      4.220829  
      78A      4.359707    79A      4.445478    80A      4.629396  

    Final Occupation by Irrep:
              A 
    DOCC [    17 ]

  @DF-RKS Final Energy:  -158.40294968031120

   => Energetics <=

    Nuclear Repulsion Energy =            132.7781965946392688
    One-Electron Energy =                -474.1568785019467214
    Two-Electron Energy =                 200.1242710825478355
    DFT Exchange-Correlation Energy =     -17.1417036155691420
    Empirical Dispersion Energy =          -0.0068352399824152
    VV10 Nonlocal Energy =                  0.0000000000000000
    Total Energy =                       -158.4029496803111670

Computation Completed


Properties will be evaluated at   0.000000,   0.000000,   0.000000 [a0]

Properties computed using the SCF density matrix

  Nuclear Dipole Moment: [e a0]
     X:    -0.1660      Y:     0.4035      Z:     0.9236

  Electronic Dipole Moment: [e a0]
     X:     0.1697      Y:    -0.4126      Z:    -0.9441

  Dipole Moment: [e a0]
     X:     0.0037      Y:    -0.0090      Z:    -0.0205     Total:     0.0227

  Dipole Moment: [D]
     X:     0.0093      Y:    -0.0230      Z:    -0.0520     Total:     0.0576


*** tstop() called on daniele-Precision-5750 at Mon May 24 20:00:34 2021
Module time:
	user time   =      19.56 seconds =       0.33 minutes
	system time =       0.26 seconds =       0.00 minutes
	total time  =          2 seconds =       0.03 minutes
Total time:
	user time   =      52.45 seconds =       0.87 minutes
	system time =       0.96 seconds =       0.02 minutes
	total time  =          7 seconds =       0.12 minutes

*** tstart() called on daniele-Precision-5750
*** at Mon May 24 20:00:34 2021


         ------------------------------------------------------------
                                   SCF GRAD                          
                          Rob Parrish, Justin Turney,                
                       Andy Simmonett, and Alex Sokolov              
         ------------------------------------------------------------

  ==> Geometry <==

    Molecular point group: c1
    Full point group: C1

    Geometry (in Angstrom), charge = 0, multiplicity = 1:

       Center              X                  Y                   Z               Mass       
    ------------   -----------------  -----------------  -----------------  -----------------
         C           -0.159854284496    -0.958381040143    -0.380552303354    12.000000000000
         C            0.386925548068     0.408887986585    -0.878102164335    12.000000000000
         C           -0.939235613099    -0.883481327001     0.934982709756    12.000000000000
         C            0.727039905459     1.396823282540     0.240928644291    12.000000000000
         H            0.692918877749    -1.635190922523    -0.240995019912     1.007825032230
         H           -0.802170494166    -1.370639069443    -1.164883084915     1.007825032230
         H           -0.373786386018     0.864962207837    -1.524886651173     1.007825032230
         H            1.279535376871     0.216556080574    -1.481592807605     1.007825032230
         H           -1.811848665187    -0.222918929451     0.852411793732     1.007825032230
         H           -0.312477986175    -0.532223804830     1.760552119724     1.007825032230
         H           -1.310518732600    -1.878038769058     1.215746451139     1.007825032230
         H            1.492370972183     0.995234635575     0.917513496636     1.007825032230
         H           -0.154771777358     1.662851390197     0.832084179324     1.007825032230
         H            1.123628118675     2.329852111886    -0.180742398205     1.007825032230

  Nuclear repulsion =  132.778196594639269

  ==> Basis Set <==

  Basis Set: 6-31G*
    Blend: 6-31G*
    Number of shells: 44
    Number of basis function: 80
    Number of Cartesian functions: 80
    Spherical Harmonics?: false
    Max angular momentum: 2

  ==> DFJKGrad: Density-Fitted SCF Gradients <==

    Gradient:                    1
    J tasked:                  Yes
    K tasked:                  Yes
    wK tasked:                 Yes
    Omega:               2.000E-01
    OpenMP threads:              8
    Integrals threads:           8
    Memory [MiB]:              500
    Schwarz Cutoff:          0E+00
    Fitting Condition:       1E-10

   => Auxiliary Basis Set <=

  Basis Set: (6-31G* AUX)
    Blend: CC-PVDZ-JKFIT
    Number of shells: 186
    Number of basis function: 574
    Number of Cartesian functions: 574
    Spherical Harmonics?: false
    Max angular momentum: 3

  ==> DFT Potential <==

   => Composite Functional: WB97X-D <= 

    wB97X-D Hyb-GGA Exchange-Correlation Functional

    J.-D. Chai and M. Head-Gordon, Phys. Chem. Chem. Phys. 10, 6615 (2008)

    Deriv               =              1
    GGA                 =           TRUE
    Meta                =          FALSE

    Exchange Hybrid     =           TRUE
    MP2 Hybrid          =          FALSE

   => Exchange-Correlation Functionals <=

    1.0000   wB97D range-separated functional

   => Exact (HF) Exchange <=

    0.7780            HF,LR [omega = 0.2000]
    0.2220               HF 

   => Molecular Quadrature <=

    Radial Scheme          =       TREUTLER
    Pruning Scheme         =           FLAT
    Nuclear Scheme         =       TREUTLER

    BS radius alpha        =              1
    Pruning alpha          =              1
    Radial Points          =             75
    Spherical Points       =            302
    Total Points           =         310210
    Total Blocks           =           2373
    Max Points             =            256
    Max Functions          =             80


  -Total Gradient:
     Atom            X                  Y                   Z
    ------   -----------------  -----------------  -----------------
       1       -0.005917397425    -0.008674731287    -0.003803810627
       2        0.007741834175     0.003829914913    -0.006562118787
       3        0.004110796464     0.005639843211     0.001727912918
       4       -0.005089246490    -0.002972264121     0.003726045136
       5        0.002214082226     0.002181149427     0.000667000733
       6       -0.001510333410     0.003941573073    -0.000061788652
       7       -0.002516628586    -0.001270333390     0.001201450611
       8        0.000938566663    -0.002500649333     0.003112735730
       9       -0.001355914339    -0.000516385638    -0.000574451521
      10        0.000437838915    -0.000927528074     0.000657795867
      11       -0.000150784313    -0.001260766695     0.000813771131
      12        0.001479514489     0.000092353775    -0.000264426813
      13       -0.000453272950     0.001009286865    -0.000287237168
      14        0.000063727857     0.001443953495    -0.000314419091


*** tstop() called on daniele-Precision-5750 at Mon May 24 20:00:35 2021
Module time:
	user time   =       8.50 seconds =       0.14 minutes
	system time =       0.04 seconds =       0.00 minutes
	total time  =          1 seconds =       0.02 minutes
Total time:
	user time   =      60.96 seconds =       1.02 minutes
	system time =       1.00 seconds =       0.02 minutes
	total time  =          8 seconds =       0.13 minutes

			-----------------------------------------
			 OPTKING 2.0: for geometry optimizations 
			  - R.A. King,  Bethel University        
			-----------------------------------------
	At level 1: Red. Int., RFO, no backsteps, dynamic trust

	Previous internal coordinate definitions found.
	---Fragment 1 Geometry and Gradient---
	 C          -0.3020808177       -1.8110776897       -0.7191396298
	 C           0.7311833168        0.7726863106       -1.6593726008
	 C          -1.7748980760       -1.6695377450        1.7668612535
	 C           1.3739063036        2.6396134497        0.4552891535
	 H           1.3094269061       -3.0900630064       -0.4554145852
	 H          -1.5158825399       -2.5901324581       -2.2013099987
	 H          -0.7063538990        1.6345416817       -2.8816181431
	 H           2.4179714301        0.4092316831       -2.7998046358
	 H          -3.4238977580       -0.4212557248        1.6108248363
	 H          -0.5904978141       -1.0057572286        3.3269613359
	 H          -2.4765214869       -3.5489789265        2.2974278306
	 H           2.8201724150        1.8807208918        1.7338492251
	 H          -0.2924762712        3.1423337148        1.5724112122
	 H           2.1233494112        4.4027824043       -0.3415536319
	            -0.0059173974       -0.0086747313       -0.0038038106
	             0.0077418342        0.0038299149       -0.0065621188
	             0.0041107965        0.0056398432        0.0017279129
	            -0.0050892465       -0.0029722641        0.0037260451
	             0.0022140822        0.0021811494        0.0006670007
	            -0.0015103334        0.0039415731       -0.0000617887
	            -0.0025166286       -0.0012703334        0.0012014506
	             0.0009385667       -0.0025006493        0.0031127357
	            -0.0013559143       -0.0005163856       -0.0005744515
	             0.0004378389       -0.0009275281        0.0006577959
	            -0.0001507843       -0.0012607667        0.0008137711
	             0.0014795145        0.0000923538       -0.0002644268
	            -0.0004532729        0.0010092869       -0.0002872372
	             0.0000637279        0.0014439535       -0.0003144191

	---Fragment 1 Intrafragment Coordinates---
	 - Coordinate -           - BOHR/RAD -       - ANG/DEG -
	 R(1,2)           =         2.937262	       1.554332
	 R(1,3)           =         2.892996	       1.530907
	 R(1,5)           =         2.074201	       1.097620
	 R(1,6)           =         2.068108	       1.094396
	 R(2,4)           =         2.893148	       1.530988
	 R(2,7)           =         2.074414	       1.097732
	 R(2,8)           =         2.068318	       1.094507
	 R(3,9)           =         2.074067	       1.097549
	 R(3,10)          =         2.068168	       1.094428
	 R(3,11)          =         2.075109	       1.098100
	 R(4,12)          =         2.074203	       1.097621
	 R(4,13)          =         2.068217	       1.094453
	 R(4,14)          =         2.074943	       1.098013
	 B(1,2,4)         =         1.995235	     114.318535
	 B(1,2,7)         =         1.886302	     108.077141
	 B(1,2,8)         =         1.884739	     107.987615
	 B(1,3,9)         =         1.949330	     111.688394
	 B(1,3,10)        =         1.952356	     111.861766
	 B(1,3,11)        =         1.925735	     110.336477
	 B(2,1,3)         =         1.994483	     114.275481
	 B(2,1,5)         =         1.885779	     108.047156
	 B(2,1,6)         =         1.884322	     107.963697
	 B(2,4,12)        =         1.949108	     111.675666
	 B(2,4,13)        =         1.952668	     111.879611
	 B(2,4,14)        =         1.926101	     110.357448
	 B(3,1,5)         =         1.892773	     108.447925
	 B(3,1,6)         =         1.912920	     109.602239
	 B(4,2,7)         =         1.892843	     108.451906
	 B(4,2,8)         =         1.912652	     109.586876
	 B(5,1,6)         =         1.891079	     108.350822
	 B(7,2,8)         =         1.889450	     108.257510
	 B(9,3,10)        =         1.895364	     108.596339
	 B(9,3,11)        =         1.870794	     107.188591
	 B(10,3,11)       =         1.866537	     106.944702
	 B(12,4,13)       =         1.894181	     108.528590
	 B(12,4,14)       =         1.871063	     107.204026
	 B(13,4,14)       =         1.867004	     106.971461
	*D(1,2,4,12)      =         1.043704	      59.799856
	 D(1,2,4,13)      =        -1.083469	     -62.078229
	 D(1,2,4,14)      =         3.123109	     178.940941
	*D(2,1,3,9)       =         1.044155	      59.825676
	 D(2,1,3,10)      =        -1.084487	     -62.136502
	 D(2,1,3,11)      =         3.123122	     178.941732
	*D(3,1,2,4)       =         0.532042	      30.483738
	 D(3,1,2,7)       =        -1.577277	     -90.371287
	 D(3,1,2,8)       =         2.665580	     152.726494
	 D(4,2,1,5)       =        -1.576323	     -90.316661
	 D(4,2,1,6)       =         2.665114	     152.699805
	 D(5,1,2,7)       =         2.597544	     148.828313
	 D(5,1,2,8)       =         0.557215	      31.926094
	 D(5,1,3,9)       =        -3.134551	    -179.596562
	 D(5,1,3,10)      =         1.019992	      58.441260
	 D(5,1,3,11)      =        -1.055584	     -60.480505
	 D(6,1,2,7)       =         0.555796	      31.844779
	 D(6,1,2,8)       =        -1.484532	     -85.057439
	 D(6,1,3,9)       =        -1.073210	     -61.490387
	 D(6,1,3,10)      =         3.081334	     176.547435
	 D(6,1,3,11)      =         1.005758	      57.625669
	 D(7,2,4,12)      =        -3.133791	    -179.553005
	 D(7,2,4,13)      =         1.022220	      58.568911
	 D(7,2,4,14)      =        -1.054387	     -60.411920
	 D(8,2,4,12)      =        -1.074522	     -61.565560
	 D(8,2,4,13)      =         3.081490	     176.556356
	 D(8,2,4,14)      =         1.004882	      57.575525

	Current energy   :      -158.4029496803

	Energy change for the previous step:
		Projected    :        -0.0187465106
		Actual       :        -0.0140881504
	Energy ratio indicates good step: Trust radius increased to 1.000e+00.


	Performing BFGS update.
	Previous computed or guess Hessian on step 1.
	Steps to be used in Hessian update: 1
	Taking RFO optimization step.
	Going to follow RFO solution 1.
	Using RFO vector 1.
	Norm of target step-size    0.15669
	Projected energy change by RFO approximation:        -0.0008776862

	Back-transformation to cartesian coordinates...
	Successfully converged to displaced geometry.

	Back-transformation to cartesian coordinates to adjust frozen coordinates...
	Successfully converged to displaced geometry.

	--- Internal Coordinate Step in ANG or DEG, aJ/ANG or AJ/DEG ---
	 ---------------------------------------------------------------------------
	   Coordinate                Previous        Force       Change         New 
	   ----------                --------       ------       ------       ------
	    1 R(1,2)          =      1.554332    -0.002102    -0.003464     1.550868
	    2 R(1,3)          =      1.530907    -0.006865    -0.001826     1.529081
	    3 R(1,5)          =      1.097620    -0.003846    -0.002274     1.095346
	    4 R(1,6)          =      1.094396     0.004582     0.000485     1.094880
	    5 R(2,4)          =      1.530988    -0.007497    -0.001948     1.529039
	    6 R(2,7)          =      1.097732    -0.004246    -0.002393     1.095339
	    7 R(2,8)          =      1.094507     0.004232     0.000415     1.094922
	    8 R(3,9)          =      1.097549    -0.006571    -0.002688     1.094861
	    9 R(3,10)         =      1.094428    -0.003743    -0.001247     1.093180
	   10 R(3,11)         =      1.098100    -0.011569    -0.004018     1.094082
	   11 R(4,12)         =      1.097621    -0.006773    -0.002764     1.094857
	   12 R(4,13)         =      1.094453    -0.003793    -0.001253     1.093200
	   13 R(4,14)         =      1.098013    -0.011321    -0.003970     1.094042
	   14 B(1,2,4)        =    114.318535     0.000309     1.616206   115.934741
	   15 B(1,2,7)        =    108.077141     0.000001     0.352875   108.430016
	   16 B(1,2,8)        =    107.987615     0.000011     0.850767   108.838382
	   17 B(1,3,9)        =    111.688394     0.000005    -0.094022   111.594372
	   18 B(1,3,10)       =    111.861766    -0.000013    -0.042891   111.818875
	   19 B(1,3,11)       =    110.336477    -0.000010     0.090361   110.426837
	   20 B(2,1,3)        =    114.275481     0.000314     1.653107   115.928588
	   21 B(2,1,5)        =    108.047156     0.000001     0.379560   108.426717
	   22 B(2,1,6)        =    107.963697     0.000013     0.876671   108.840368
	   23 B(2,4,12)       =    111.675666     0.000005    -0.081867   111.593799
	   24 B(2,4,13)       =    111.879611    -0.000017    -0.052049   111.827563
	   25 B(2,4,14)       =    110.357448    -0.000011     0.067026   110.424474
	   26 B(3,1,5)        =    108.447925    -0.000137    -0.983724   107.464200
	   27 B(3,1,6)        =    109.602239    -0.000119    -0.014387   109.587852
	   28 B(4,2,7)        =    108.451906    -0.000136    -0.983485   107.468421
	   29 B(4,2,8)        =    109.586876    -0.000116     0.003425   109.590301
	   30 B(5,1,6)        =    108.350822    -0.000088    -2.205655   106.145167
	   31 B(7,2,8)        =    108.257510    -0.000084    -2.128538   106.128971
	   32 B(9,3,10)       =    108.596339    -0.000031    -0.525551   108.070788
	   33 B(9,3,11)       =    107.188591     0.000002     0.085430   107.274021
	   34 B(10,3,11)      =    106.944702     0.000049     0.506775   107.451477
	   35 B(12,4,13)      =    108.528590    -0.000026    -0.471601   108.056989
	   36 B(12,4,14)      =    107.204026     0.000003     0.074653   107.278679
	   37 B(13,4,14)      =    106.971461     0.000049     0.483208   107.454669
	   38 *D(1,2,4,12)    =     59.799856     0.000000     0.000000    59.799856
	   39 D(1,2,4,13)     =    -62.078229     0.000010     0.704328   -61.373900
	   40 D(1,2,4,14)     =    178.940941    -0.000000     0.085101   179.026042
	   41 *D(2,1,3,9)     =     59.825676     0.000000     0.000000    59.825676
	   42 D(2,1,3,10)     =    -62.136502     0.000011     0.776376   -61.360126
	   43 D(2,1,3,11)     =    178.941732    -0.000000     0.106217   179.047949
	   44 *D(3,1,2,4)     =     30.483738    -0.000000     0.000000    30.483738
	   45 D(3,1,2,7)      =    -90.371287    -0.000006    -0.069120   -90.440408
	   46 D(3,1,2,8)      =    152.726494     0.000015     1.803611   154.530105
	   47 D(4,2,1,5)      =    -90.316661    -0.000007    -0.111536   -90.428197
	   48 D(4,2,1,6)      =    152.699805     0.000015     1.824096   154.523901
	   49 D(5,1,2,7)      =    148.828313    -0.000013    -0.180656   148.647657
	   50 D(5,1,2,8)      =     31.926094     0.000008     1.692075    33.618169
	   51 D(5,1,3,9)      =   -179.596562     0.000025     0.849522  -178.747039
	   52 D(5,1,3,10)     =     58.441260     0.000035     1.625898    60.067159
	   53 D(5,1,3,11)     =    -60.480505     0.000024     0.955740   -59.524766
	   54 D(6,1,2,7)      =     31.844779     0.000009     1.754975    33.599755
	   55 D(6,1,2,8)      =    -85.057439     0.000030     3.627706   -81.429733
	   56 D(6,1,3,9)      =    -61.490387    -0.000033    -2.335627   -63.826014
	   57 D(6,1,3,10)     =    176.547435    -0.000023    -1.559251   174.988183
	   58 D(6,1,3,11)     =     57.625669    -0.000034    -2.229410    55.396259
	   59 D(7,2,4,12)     =   -179.553005     0.000024     0.791737  -178.761268
	   60 D(7,2,4,13)     =     58.568911     0.000034     1.496065    60.064976
	   61 D(7,2,4,14)     =    -60.411920     0.000024     0.876838   -59.535082
	   62 D(8,2,4,12)     =    -61.565560    -0.000032    -2.290243   -63.855803
	   63 D(8,2,4,13)     =    176.556356    -0.000023    -1.585915   174.970441
	   64 D(8,2,4,14)     =     57.575525    -0.000033    -2.205142    55.370383
	 ---------------------------------------------------------------------------
	Successfully symmetrized geometry.

  ==> Convergence Check <==

  Measures of convergence in internal coordinates in au.
  Criteria marked as inactive (o), active & met (*), and active & unmet ( ).
  ---------------------------------------------------------------------------------------------
   Step     Total Energy     Delta E     MAX Force     RMS Force      MAX Disp      RMS Disp   
  ---------------------------------------------------------------------------------------------
    Convergence Criteria             o    2.50e-03 *    1.70e-03 *    1.00e-02 *    6.70e-03 *
  ---------------------------------------------------------------------------------------------
      2    -158.40294968   -1.41e-02 o    4.13e-03      1.23e-03 *    6.33e-02      1.96e-02    ~
  ---------------------------------------------------------------------------------------------

	Writing optimization data to binary file.
	Structure for next step:
	Cartesian Geometry (in Angstrom)
	    C    -0.1644682518  -0.9495977828  -0.3678256912
	    C     0.3867002326   0.4129781488  -0.8625911804
	    C    -0.9514434828  -0.9163559213   0.9427672475
	    C     0.7404392564   1.4264208019   0.2263368870
	    H     0.6791767676  -1.6339435702  -0.2274077483
	    H    -0.7840091108  -1.3879718252  -1.1569771515
	    H    -0.3651534805   0.8758619748  -1.5108368343
	    H     1.2626760664   0.2317747253  -1.4940071745
	    H    -1.8283671424  -0.2648952835   0.8697949685
	    H    -0.3373709418  -0.5662452084   1.7766623300
	    H    -1.3109525183  -1.9177201109   1.1977947026
	    H     1.5079439290   1.0384162888   0.9039073544
	    H    -0.1321870733   1.7013510339   0.8246878311
	    H     1.1347706104   2.3442205601  -0.2198405792
			--------------------------
			 OPTKING Finished Execution 
			--------------------------

    Structure for next step:
    Molecular point group: c1
    Full point group: C1

    Geometry (in Angstrom), charge = 0, multiplicity = 1:

    C           -0.163777851643    -0.951414037795    -0.371881710919
    C            0.387390634924     0.411161899087    -0.866647202107
    C           -0.950753085710    -0.918172176243     0.938711232914
    C            0.741129660163     1.424604556217     0.222280869571
    H            0.679867171091    -1.635759827960    -0.231463767466
    H           -0.783318713069    -1.389788081920    -1.161033174368
    H           -0.364463081059     0.874045726919    -1.514892858540
    H            1.263366472216     0.229958474928    -1.498063198626
    H           -1.827676748690    -0.266711535885     0.865738953589
    H           -0.336680542291    -0.568061461934     1.772606318684
    H           -1.310262122622    -1.919536369689     1.193738688993
    H            1.508634335779     1.036600041591     0.899851339651
    H           -0.131496673012     1.699534789283     0.820631816068
    H            1.135461015755     2.342404317967    -0.223896598342

gradient() will perform analytic gradient computation.

*** tstart() called on daniele-Precision-5750
*** at Mon May 24 20:00:36 2021

   => Loading Basis Set <=

    Name: 6-31G*
    Role: ORBITAL
    Keyword: BASIS
    atoms 1-4  entry C          line   111 file /home/daniele/anaconda3/envs/poltype/share/psi4/basis/6-31gs.gbs 
    atoms 5-14 entry H          line    44 file /home/daniele/anaconda3/envs/poltype/share/psi4/basis/6-31gs.gbs 


         ---------------------------------------------------------
                                   SCF
               by Justin Turney, Rob Parrish, Andy Simmonett
                          and Daniel G. A. Smith
                              RKS Reference
                        8 Threads,    667 MiB Core
         ---------------------------------------------------------

  ==> Geometry <==

    Molecular point group: c1
    Full point group: C1

    Geometry (in Angstrom), charge = 0, multiplicity = 1:

       Center              X                  Y                   Z               Mass       
    ------------   -----------------  -----------------  -----------------  -----------------
         C           -0.163777851643    -0.951414037795    -0.371881710919    12.000000000000
         C            0.387390634924     0.411161899087    -0.866647202107    12.000000000000
         C           -0.950753085710    -0.918172176243     0.938711232914    12.000000000000
         C            0.741129660163     1.424604556217     0.222280869571    12.000000000000
         H            0.679867171091    -1.635759827960    -0.231463767466     1.007825032230
         H           -0.783318713069    -1.389788081920    -1.161033174368     1.007825032230
         H           -0.364463081059     0.874045726919    -1.514892858540     1.007825032230
         H            1.263366472216     0.229958474928    -1.498063198626     1.007825032230
         H           -1.827676748690    -0.266711535885     0.865738953589     1.007825032230
         H           -0.336680542291    -0.568061461934     1.772606318684     1.007825032230
         H           -1.310262122622    -1.919536369689     1.193738688993     1.007825032230
         H            1.508634335779     1.036600041591     0.899851339651     1.007825032230
         H           -0.131496673012     1.699534789283     0.820631816068     1.007825032230
         H            1.135461015755     2.342404317967    -0.223896598342     1.007825032230

  Running in c1 symmetry.

  Rotational constants: A =      0.40922  B =      0.17136  C =      0.13461 [cm^-1]
  Rotational constants: A =  12268.08933  B =   5137.22940  C =   4035.51066 [MHz]
  Nuclear repulsion =  132.421625546890056

  Charge       = 0
  Multiplicity = 1
  Electrons    = 34
  Nalpha       = 17
  Nbeta        = 17

  ==> Algorithm <==

  SCF Algorithm Type is DF.
  DIIS enabled.
  MOM disabled.
  Fractional occupation disabled.
  Guess Type is READ.
  Energy threshold   = 1.00e-08
  Density threshold  = 1.00e-08
  Integral threshold = 0.00e+00

  ==> Primary Basis <==

  Basis Set: 6-31G*
    Blend: 6-31G*
    Number of shells: 44
    Number of basis function: 80
    Number of Cartesian functions: 80
    Spherical Harmonics?: false
    Max angular momentum: 2

  ==> DFT Potential <==

   => Composite Functional: WB97X-D <= 

    wB97X-D Hyb-GGA Exchange-Correlation Functional

    J.-D. Chai and M. Head-Gordon, Phys. Chem. Chem. Phys. 10, 6615 (2008)

    Deriv               =              1
    GGA                 =           TRUE
    Meta                =          FALSE

    Exchange Hybrid     =           TRUE
    MP2 Hybrid          =          FALSE

   => Exchange-Correlation Functionals <=

    1.0000   wB97D range-separated functional

   => Exact (HF) Exchange <=

    0.7780            HF,LR [omega = 0.2000]
    0.2220               HF 

   => Molecular Quadrature <=

    Radial Scheme          =       TREUTLER
    Pruning Scheme         =           FLAT
    Nuclear Scheme         =       TREUTLER

    BS radius alpha        =              1
    Pruning alpha          =              1
    Radial Points          =             75
    Spherical Points       =            302
    Total Points           =         310204
    Total Blocks           =           2377
    Max Points             =            256
    Max Functions          =             80

   => WB97X-D: Empirical Dispersion <=

    Chai and Head-Gordon Dispersion Correction
    Chai, J.-D.; Head-Gordon, M. (2010), J. Chem. Phys., 132: 6615-6620

        s6 =       1.000000

   => Loading Basis Set <=

    Name: (6-31G* AUX)
    Role: JKFIT
    Keyword: DF_BASIS_SCF
    atoms 1-4  entry C          line   121 file /home/daniele/anaconda3/envs/poltype/share/psi4/basis/cc-pvdz-jkfit.gbs 
    atoms 5-14 entry H          line    51 file /home/daniele/anaconda3/envs/poltype/share/psi4/basis/cc-pvdz-jkfit.gbs 

   => Loading Basis Set <=

    Name: 6-31G*
    Role: ORBITAL
    Keyword: BASIS
    atoms 1-4  entry C          line   111 file /home/daniele/anaconda3/envs/poltype/share/psi4/basis/6-31gs.gbs 
    atoms 5-14 entry H          line    44 file /home/daniele/anaconda3/envs/poltype/share/psi4/basis/6-31gs.gbs 

  Reading orbitals from file 180, no projection.

  ==> Pre-Iterations <==

   -------------------------------------------------------
    Irrep   Nso     Nmo     Nalpha   Nbeta   Ndocc  Nsocc
   -------------------------------------------------------
     A         80      80       0       0       0       0
   -------------------------------------------------------
    Total      80      80      17      17      17       0
   -------------------------------------------------------

  ==> Integral Setup <==

  ==> DiskDFJK: Density-Fitted J/K Matrices <==

    J tasked:                  Yes
    K tasked:                  Yes
    wK tasked:                 Yes
    Omega:               2.000E-01
    OpenMP threads:              8
    Integrals threads:           8
    Memory [MiB]:               22
    Algorithm:                Disk
    Integral Cache:           NONE
    Schwarz Cutoff:          1E-12
    Fitting Condition:       1E-10

   => Auxiliary Basis Set <=

  Basis Set: (6-31G* AUX)
    Blend: CC-PVDZ-JKFIT
    Number of shells: 186
    Number of basis function: 574
    Number of Cartesian functions: 574
    Spherical Harmonics?: false
    Max angular momentum: 3

  Cached 100.0% of DFT collocation blocks in 0.616 [GiB].

  Minimum eigenvalue in the overlap matrix is 4.7583051767E-03.
  Using Symmetric Orthogonalization.

  SCF Guess: Orbitals guess was supplied from a previous computation.

  ==> Iterations <==

                           Total Energy        Delta E     RMS |[F,P]|

   @DF-RKS iter   0:  -158.40940580286482   -1.58409e+02   4.83766e-04 
   @DF-RKS iter   1:  -158.40341166884622    5.99413e-03   7.86403e-05 DIIS
   @DF-RKS iter   2:  -158.40344282893795   -3.11601e-05   4.30828e-05 DIIS
   @DF-RKS iter   3:  -158.40344894778110   -6.11884e-06   1.30213e-05 DIIS
   @DF-RKS iter   4:  -158.40344979174077   -8.43960e-07   1.22901e-06 DIIS
   @DF-RKS iter   5:  -158.40344980123933   -9.49856e-09   4.72671e-07 DIIS
   @DF-RKS iter   6:  -158.40344980212933   -8.89997e-10   1.62327e-07 DIIS
   @DF-RKS iter   7:  -158.40344980223736   -1.08031e-10   2.16446e-08 DIIS
   @DF-RKS iter   8:  -158.40344980224015   -2.78533e-12   3.63787e-09 DIIS
  Energy and wave function converged.


  ==> Post-Iterations <==

    Orbital Energies [Eh]
    ---------------------

    Doubly Occupied:                                                      

       1A    -10.285888     2A    -10.285706     3A    -10.278374  
       4A    -10.278365     5A     -0.885630     6A     -0.812306  
       7A     -0.734598     8A     -0.649329     9A     -0.546291  
      10A     -0.533155    11A     -0.493078    12A     -0.467521  
      13A     -0.455816    14A     -0.438788    15A     -0.403645  
      16A     -0.397870    17A     -0.387768  

    Virtual:                                                              

      18A      0.170153    19A      0.218569    20A      0.220593  
      21A      0.236802    22A      0.246818    23A      0.251587  
      24A      0.269098    25A      0.272826    26A      0.283409  
      27A      0.291220    28A      0.322778    29A      0.332127  
      30A      0.379826    31A      0.594402    32A      0.608818  
      33A      0.616126    34A      0.657312    35A      0.666956  
      36A      0.715804    37A      0.734990    38A      0.754135  
      39A      0.780791    40A      0.826193    41A      0.940069  
      42A      0.948629    43A      0.976784    44A      0.985850  
      45A      0.987923    46A      1.002761    47A      1.007391  
      48A      1.011580    49A      1.066765    50A      1.072420  
      51A      1.101079    52A      1.110491    53A      1.128416  
      54A      1.415588    55A      1.505859    56A      1.522693  
      57A      1.548880    58A      1.738694    59A      1.792442  
      60A      1.830702    61A      1.940043    62A      2.048404  
      63A      2.056769    64A      2.083503    65A      2.120175  
      66A      2.182491    67A      2.241156    68A      2.342187  
      69A      2.404876    70A      2.409035    71A      2.462663  
      72A      2.480565    73A      2.507432    74A      2.654313  
      75A      2.735820    76A      2.812655    77A      4.216984  
      78A      4.360624    79A      4.446836    80A      4.627025  

    Final Occupation by Irrep:
              A 
    DOCC [    17 ]

  @DF-RKS Final Energy:  -158.40344980224015

   => Energetics <=

    Nuclear Repulsion Energy =            132.4216255468900556
    One-Electron Energy =                -473.4308391025379592
    Two-Electron Energy =                 199.7597049668741249
    DFT Exchange-Correlation Energy =     -17.1471810594832554
    Empirical Dispersion Energy =          -0.0067601539831553
    VV10 Nonlocal Energy =                  0.0000000000000000
    Total Energy =                       -158.4034498022401465

Computation Completed


Properties will be evaluated at   0.000000,   0.000000,   0.000000 [a0]

Properties computed using the SCF density matrix

  Nuclear Dipole Moment: [e a0]
     X:    -0.1562      Y:     0.3775      Z:     0.8655

  Electronic Dipole Moment: [e a0]
     X:     0.1604      Y:    -0.3876      Z:    -0.8888

  Dipole Moment: [e a0]
     X:     0.0042      Y:    -0.0101      Z:    -0.0233     Total:     0.0258

  Dipole Moment: [D]
     X:     0.0107      Y:    -0.0258      Z:    -0.0592     Total:     0.0655


*** tstop() called on daniele-Precision-5750 at Mon May 24 20:00:38 2021
Module time:
	user time   =      18.50 seconds =       0.31 minutes
	system time =       0.17 seconds =       0.00 minutes
	total time  =          2 seconds =       0.03 minutes
Total time:
	user time   =      79.78 seconds =       1.33 minutes
	system time =       1.17 seconds =       0.02 minutes
	total time  =         11 seconds =       0.18 minutes

*** tstart() called on daniele-Precision-5750
*** at Mon May 24 20:00:38 2021


         ------------------------------------------------------------
                                   SCF GRAD                          
                          Rob Parrish, Justin Turney,                
                       Andy Simmonett, and Alex Sokolov              
         ------------------------------------------------------------

  ==> Geometry <==

    Molecular point group: c1
    Full point group: C1

    Geometry (in Angstrom), charge = 0, multiplicity = 1:

       Center              X                  Y                   Z               Mass       
    ------------   -----------------  -----------------  -----------------  -----------------
         C           -0.163777851643    -0.951414037795    -0.371881710919    12.000000000000
         C            0.387390634924     0.411161899087    -0.866647202107    12.000000000000
         C           -0.950753085710    -0.918172176243     0.938711232914    12.000000000000
         C            0.741129660163     1.424604556217     0.222280869571    12.000000000000
         H            0.679867171091    -1.635759827960    -0.231463767466     1.007825032230
         H           -0.783318713069    -1.389788081920    -1.161033174368     1.007825032230
         H           -0.364463081059     0.874045726919    -1.514892858540     1.007825032230
         H            1.263366472216     0.229958474928    -1.498063198626     1.007825032230
         H           -1.827676748690    -0.266711535885     0.865738953589     1.007825032230
         H           -0.336680542291    -0.568061461934     1.772606318684     1.007825032230
         H           -1.310262122622    -1.919536369689     1.193738688993     1.007825032230
         H            1.508634335779     1.036600041591     0.899851339651     1.007825032230
         H           -0.131496673012     1.699534789283     0.820631816068     1.007825032230
         H            1.135461015755     2.342404317967    -0.223896598342     1.007825032230

  Nuclear repulsion =  132.421625546890056

  ==> Basis Set <==

  Basis Set: 6-31G*
    Blend: 6-31G*
    Number of shells: 44
    Number of basis function: 80
    Number of Cartesian functions: 80
    Spherical Harmonics?: false
    Max angular momentum: 2

  ==> DFJKGrad: Density-Fitted SCF Gradients <==

    Gradient:                    1
    J tasked:                  Yes
    K tasked:                  Yes
    wK tasked:                 Yes
    Omega:               2.000E-01
    OpenMP threads:              8
    Integrals threads:           8
    Memory [MiB]:              500
    Schwarz Cutoff:          0E+00
    Fitting Condition:       1E-10

   => Auxiliary Basis Set <=

  Basis Set: (6-31G* AUX)
    Blend: CC-PVDZ-JKFIT
    Number of shells: 186
    Number of basis function: 574
    Number of Cartesian functions: 574
    Spherical Harmonics?: false
    Max angular momentum: 3

  ==> DFT Potential <==

   => Composite Functional: WB97X-D <= 

[...]
         H           -0.139058469820     1.670943077997     0.834040378277     1.007825032230
         H            1.120157667885     2.338611759648    -0.212271127880     1.007825032230

  Nuclear repulsion =  132.715505813374875

  ==> Basis Set <==

  Basis Set: 6-31G*
    Blend: 6-31G*
    Number of shells: 44
    Number of basis function: 80
    Number of Cartesian functions: 80
    Spherical Harmonics?: false
    Max angular momentum: 2

  ==> DFJKGrad: Density-Fitted SCF Gradients <==

    Gradient:                    1
    J tasked:                  Yes
    K tasked:                  Yes
    wK tasked:                 Yes
    Omega:               2.000E-01
    OpenMP threads:              8
    Integrals threads:           8
    Memory [MiB]:              500
    Schwarz Cutoff:          0E+00
    Fitting Condition:       1E-10

   => Auxiliary Basis Set <=

  Basis Set: (6-31G* AUX)
    Blend: CC-PVDZ-JKFIT
    Number of shells: 186
    Number of basis function: 574
    Number of Cartesian functions: 574
    Spherical Harmonics?: false
    Max angular momentum: 3

  ==> DFT Potential <==

   => Composite Functional: WB97X-D <= 

    wB97X-D Hyb-GGA Exchange-Correlation Functional

    J.-D. Chai and M. Head-Gordon, Phys. Chem. Chem. Phys. 10, 6615 (2008)

    Deriv               =              1
    GGA                 =           TRUE
    Meta                =          FALSE

    Exchange Hybrid     =           TRUE
    MP2 Hybrid          =          FALSE

   => Exchange-Correlation Functionals <=

    1.0000   wB97D range-separated functional

   => Exact (HF) Exchange <=

    0.7780            HF,LR [omega = 0.2000]
    0.2220               HF 

   => Molecular Quadrature <=

    Radial Scheme          =       TREUTLER
    Pruning Scheme         =           FLAT
    Nuclear Scheme         =       TREUTLER

    BS radius alpha        =              1
    Pruning alpha          =              1
    Radial Points          =             75
    Spherical Points       =            302
    Total Points           =         310202
    Total Blocks           =           2379
    Max Points             =            256
    Max Functions          =             80


  -Total Gradient:
     Atom            X                  Y                   Z
    ------   -----------------  -----------------  -----------------
       1       -0.007338727519     0.002366298913    -0.003052766517
       2        0.007570116115    -0.002868344332     0.001814356150
       3        0.004057113859    -0.000231153759     0.002017012697
       4       -0.004407810235     0.001066103202    -0.000024721137
       5       -0.000075198925    -0.000101026695    -0.000080548763
       6        0.000087482474    -0.000053729451    -0.000020120997
       7        0.000094381040     0.000021724141    -0.000099114981
       8       -0.000065015681     0.000010689082    -0.000071148080
       9       -0.000283111317    -0.000280846991    -0.000161791814
      10        0.000064723376     0.000234783491    -0.000022025628
      11       -0.000029840652    -0.000107273083    -0.000041189964
      12        0.000353502570     0.000106306881    -0.000215621342
      13       -0.000087557160    -0.000184064729     0.000130268742
      14        0.000049651983     0.000046547841    -0.000111828679


*** tstop() called on daniele-Precision-5750 at Mon May 24 20:00:43 2021
Module time:
	user time   =       8.29 seconds =       0.14 minutes
	system time =       0.06 seconds =       0.00 minutes
	total time  =          2 seconds =       0.03 minutes
Total time:
	user time   =     115.32 seconds =       1.92 minutes
	system time =       1.45 seconds =       0.02 minutes
	total time  =         16 seconds =       0.27 minutes

			-----------------------------------------
			 OPTKING 2.0: for geometry optimizations 
			  - R.A. King,  Bethel University        
			-----------------------------------------
	At level 1: Red. Int., RFO, no backsteps, dynamic trust

	Previous internal coordinate definitions found.
	---Fragment 1 Geometry and Gradient---
	 C          -0.3063255824       -1.7918911166       -0.7117274208
	 C           0.7168331120        0.7734693579       -1.6430046315
	 C          -1.7726441594       -1.7154583823        1.7758084531
	 C           1.3880956041        2.6695110252        0.4300826941
	 H           1.2910943840       -3.0924867686       -0.4537462235
	 H          -1.4820677265       -2.6339994931       -2.1945630224
	 H          -0.7137100808        1.6597651196       -2.8587115568
	 H           2.3628826255        0.4487118516       -2.8576532809
	 H          -3.4332316837       -0.4810565959        1.6505326574
	 H          -0.5931443653       -1.0338510496        3.3318316795
	 H          -2.4430607490       -3.6084110151        2.2768209515
	 H           2.8481397504        1.9307994576        1.7027383563
	 H          -0.2627824234        3.1576247886        1.5761078925
	 H           2.1167912096        4.4193357395       -0.4011342960
	            -0.0073387275        0.0023662989       -0.0030527665
	             0.0075701161       -0.0028683443        0.0018143562
	             0.0040571139       -0.0002311538        0.0020170127
	            -0.0044078102        0.0010661032       -0.0000247211
	            -0.0000751989       -0.0001010267       -0.0000805488
	             0.0000874825       -0.0000537295       -0.0000201210
	             0.0000943810        0.0000217241       -0.0000991150
	            -0.0000650157        0.0000106891       -0.0000711481
	            -0.0002831113       -0.0002808470       -0.0001617918
	             0.0000647234        0.0002347835       -0.0000220256
	            -0.0000298407       -0.0001072731       -0.0000411900
	             0.0003535026        0.0001063069       -0.0002156213
	            -0.0000875572       -0.0001840647        0.0001302687
	             0.0000496520        0.0000465478       -0.0001118287

	---Fragment 1 Intrafragment Coordinates---
	 - Coordinate -           - BOHR/RAD -       - ANG/DEG -
	 R(1,2)           =         2.914654	       1.542368
	 R(1,3)           =         2.888558	       1.528559
	 R(1,5)           =         2.076019	       1.098582
	 R(1,6)           =         2.071308	       1.096089
	 R(2,4)           =         2.888470	       1.528512
	 R(2,7)           =         2.076034	       1.098590
	 R(2,8)           =         2.071308	       1.096089
	 R(3,9)           =         2.072919	       1.096941
	 R(3,10)          =         2.068095	       1.094389
	 R(3,11)          =         2.069720	       1.095249
	 R(4,12)          =         2.072939	       1.096952
	 R(4,13)          =         2.068097	       1.094390
	 R(4,14)          =         2.069736	       1.095257
	 B(1,2,4)         =         2.015302	     115.468292
	 B(1,2,7)         =         1.897548	     108.721514
	 B(1,2,8)         =         1.905340	     109.167930
	 B(1,3,9)         =         1.950202	     111.738329
	 B(1,3,10)        =         1.946731	     111.539475
	 B(1,3,11)        =         1.926970	     110.407230
	 B(2,1,3)         =         2.015362	     115.471721
	 B(2,1,5)         =         1.897582	     108.723447
	 B(2,1,6)         =         1.905362	     109.169206
	 B(2,4,12)        =         1.950228	     111.739836
	 B(2,4,13)        =         1.946722	     111.538936
	 B(2,4,14)        =         1.926809	     110.398046
	 B(3,1,5)         =         1.875662	     107.467489
	 B(3,1,6)         =         1.916773	     109.822985
	 B(4,2,7)         =         1.875684	     107.468765
	 B(4,2,8)         =         1.916772	     109.822966
	 B(5,1,6)         =         1.845261	     105.725650
	 B(7,2,8)         =         1.845371	     105.731956
	 B(9,3,10)        =         1.881882	     107.823917
	 B(9,3,11)        =         1.875253	     107.444092
	 B(10,3,11)       =         1.879730	     107.700607
	 B(12,4,13)       =         1.881932	     107.826766
	 B(12,4,14)       =         1.875345	     107.449348
	 B(13,4,14)       =         1.879740	     107.701152
	*D(1,2,4,12)      =         1.043704	      59.799856
	 D(1,2,4,13)      =        -1.064267	     -60.978010
	 D(1,2,4,14)      =         3.129691	     179.318077
	*D(2,1,3,9)       =         1.044155	      59.825676
	 D(2,1,3,10)      =        -1.063741	     -60.947863
	 D(2,1,3,11)      =         3.130116	     179.342436
	*D(3,1,2,4)       =         0.532042	      30.483738
	 D(3,1,2,7)       =        -1.576835	     -90.346013
	 D(3,1,2,8)       =         2.701125	     154.763034
	 D(4,2,1,5)       =        -1.576873	     -90.348147
	 D(4,2,1,6)       =         2.701188	     154.766654
	 D(5,1,2,7)       =         2.597436	     148.822101
	 D(5,1,2,8)       =         0.592210	      33.931149
	 D(5,1,3,9)       =        -3.118275	    -178.663996
	 D(5,1,3,10)      =         1.057014	      60.562465
	 D(5,1,3,11)      =        -1.032314	     -59.147236
	 D(6,1,2,7)       =         0.592311	      33.936902
	 D(6,1,2,8)       =        -1.412915	     -80.954050
	 D(6,1,3,9)       =        -1.119027	     -64.115519
	 D(6,1,3,10)      =         3.056263	     175.110942
	 D(6,1,3,11)      =         0.966934	      55.401241
	 D(7,2,4,12)      =        -3.118792	    -178.693617
	 D(7,2,4,13)      =         1.056422	      60.528517
	 D(7,2,4,14)      =        -1.032805	     -59.175396
	 D(8,2,4,12)      =        -1.119402	     -64.137024
	 D(8,2,4,13)      =         3.055812	     175.085110
	 D(8,2,4,14)      =         0.966584	      55.381197

	Current energy   :      -158.4035476870

	Energy change for the previous step:
		Projected    :        -0.0003131761
		Actual       :        -0.0000978848

	Performing BFGS update.
	Previous computed or guess Hessian on step 1.
	Steps to be used in Hessian update: 3 2
	Taking RFO optimization step.
	Going to follow RFO solution 1.
	Using RFO vector 1.
	Norm of target step-size    0.01020
	Projected energy change by RFO approximation:        -0.0000044096

	Back-transformation to cartesian coordinates...
	Successfully converged to displaced geometry.

	Back-transformation to cartesian coordinates to adjust frozen coordinates...
	Successfully converged to displaced geometry.

	--- Internal Coordinate Step in ANG or DEG, aJ/ANG or AJ/DEG ---
	 ---------------------------------------------------------------------------
	   Coordinate                Previous        Force       Change         New 
	   ----------                --------       ------       ------       ------
	    1 R(1,2)          =      1.542368     0.006545     0.001573     1.543941
	    2 R(1,3)          =      1.528559     0.003496     0.000690     1.529249
	    3 R(1,5)          =      1.098582    -0.000030     0.000013     1.098594
	    4 R(1,6)          =      1.096089     0.000121    -0.000005     1.096084
	    5 R(2,4)          =      1.528512     0.003749     0.000741     1.529253
	    6 R(2,7)          =      1.098590    -0.000086     0.000004     1.098594
	    7 R(2,8)          =      1.096089     0.000106    -0.000006     1.096084
	    8 R(3,9)          =      1.096941    -0.000445    -0.000051     1.096890
	    9 R(3,10)         =      1.094389    -0.000845    -0.000119     1.094269
	   10 R(3,11)         =      1.095249    -0.000840    -0.000106     1.095143
	   11 R(4,12)         =      1.096952    -0.000521    -0.000064     1.096888
	   12 R(4,13)         =      1.094390    -0.000852    -0.000120     1.094270
	   13 R(4,14)         =      1.095257    -0.000873    -0.000113     1.095144
	   14 B(1,2,4)        =    115.468292     0.000031     0.040288   115.508580
	   15 B(1,2,7)        =    108.721514    -0.000009    -0.053237   108.668277
	   16 B(1,2,8)        =    109.167930    -0.000012    -0.042573   109.125357
	   17 B(1,3,9)        =    111.738329     0.000002     0.022294   111.760623
	   18 B(1,3,10)       =    111.539475     0.000010     0.065655   111.605130
	   19 B(1,3,11)       =    110.407230     0.000003    -0.028998   110.378231
	   20 B(2,1,3)        =    115.471721     0.000030     0.036128   115.507848
	   21 B(2,1,5)        =    108.723447    -0.000009    -0.056101   108.667346
	   22 B(2,1,6)        =    109.169206    -0.000011    -0.041632   109.127573
	   23 B(2,4,12)       =    111.739836     0.000002     0.020584   111.760420
	   24 B(2,4,13)       =    111.538936     0.000010     0.065195   111.604131
	   25 B(2,4,14)       =    110.398046     0.000005    -0.018733   110.379313
	   26 B(3,1,5)        =    107.467489    -0.000010     0.000452   107.467942
	   27 B(3,1,6)        =    109.822985    -0.000011    -0.029009   109.793976
	   28 B(4,2,7)        =    107.468765    -0.000011    -0.000162   107.468603
	   29 B(4,2,8)        =    109.822966    -0.000011    -0.028944   109.794022
	   30 B(5,1,6)        =    105.725650     0.000010     0.097483   105.823133
	   31 B(7,2,8)        =    105.731956     0.000009     0.091023   105.822978
	   32 B(9,3,10)       =    107.823917    -0.000000     0.076499   107.900416
	   33 B(9,3,11)       =    107.444092    -0.000004    -0.063347   107.380744
	   34 B(10,3,11)      =    107.700607    -0.000011    -0.078489   107.622118
	   35 B(12,4,13)      =    107.826766    -0.000000     0.071668   107.898433
	   36 B(12,4,14)      =    107.449348    -0.000005    -0.066685   107.382663
	   37 B(13,4,14)      =    107.701152    -0.000012    -0.078783   107.622369
	   38 *D(1,2,4,12)    =     59.799856    -0.000000    -0.000000    59.799856
	   39 D(1,2,4,13)     =    -60.978010    -0.000002    -0.152073   -61.130083
	   40 D(1,2,4,14)     =    179.318077    -0.000001    -0.083041   179.235036
	   41 *D(2,1,3,9)     =     59.825676    -0.000000    -0.000000    59.825676
	   42 D(2,1,3,10)     =    -60.947863    -0.000002    -0.159791   -61.107653
	   43 D(2,1,3,11)     =    179.342436    -0.000001    -0.084585   179.257851
	   44 *D(3,1,2,4)     =     30.483738     0.000000    -0.000000    30.483738
	   45 D(3,1,2,7)      =    -90.346013    -0.000000     0.013178   -90.332835
	   46 D(3,1,2,8)      =    154.763034    -0.000000    -0.043255   154.719779
	   47 D(4,2,1,5)      =    -90.348147    -0.000000     0.017373   -90.330774
	   48 D(4,2,1,6)      =    154.766654    -0.000000    -0.045678   154.720976
	   49 D(5,1,2,7)      =    148.822101    -0.000000     0.030551   148.852652
	   50 D(5,1,2,8)      =     33.931149    -0.000000    -0.025883    33.905266
	   51 D(5,1,3,9)      =   -178.663996     0.000000    -0.048153  -178.712149
	   52 D(5,1,3,10)     =     60.562465    -0.000002    -0.207943    60.354522
	   53 D(5,1,3,11)     =    -59.147236    -0.000000    -0.132738   -59.279974
	   54 D(6,1,2,7)      =     33.936902    -0.000000    -0.032500    33.904402
	   55 D(6,1,2,8)      =    -80.954050    -0.000000    -0.088933   -81.042983
	   56 D(6,1,3,9)      =    -64.115519     0.000000     0.052234   -64.063285
	   57 D(6,1,3,10)     =    175.110942    -0.000001    -0.107557   175.003386
	   58 D(6,1,3,11)     =     55.401241    -0.000000    -0.032351    55.368890
	   59 D(7,2,4,12)     =   -178.693617     0.000000    -0.042169  -178.735786
	   60 D(7,2,4,13)     =     60.528517    -0.000001    -0.194242    60.334275
	   61 D(7,2,4,14)     =    -59.175396    -0.000000    -0.125211   -59.300607
	   62 D(8,2,4,12)     =    -64.137024     0.000000     0.050301   -64.086723
	   63 D(8,2,4,13)     =    175.085110    -0.000001    -0.101773   174.983338
	   64 D(8,2,4,14)     =     55.381197    -0.000000    -0.032741    55.348456
	 ---------------------------------------------------------------------------
	Successfully symmetrized geometry.

  ==> Convergence Check <==

  Measures of convergence in internal coordinates in au.
  Criteria marked as inactive (o), active & met (*), and active & unmet ( ).
  ---------------------------------------------------------------------------------------------
   Step     Total Energy     Delta E     MAX Force     RMS Force      MAX Disp      RMS Disp   
  ---------------------------------------------------------------------------------------------
    Convergence Criteria             o    2.50e-03 *    1.70e-03 *    1.00e-02 *    6.70e-03 *
  ---------------------------------------------------------------------------------------------
      4    -158.40354769   -9.79e-05 o    7.94e-04 *    1.64e-04 *    3.63e-03 *    1.27e-03 *  ~
  ---------------------------------------------------------------------------------------------


  **** Optimization is complete! (in 4 steps) ****

  ==> Optimization Summary <==

  Measures of convergence in internal coordinates in au.
  --------------------------------------------------------------------------------------------------------------- ~
   Step         Total Energy             Delta E       MAX Force       RMS Force        MAX Disp        RMS Disp  ~
  --------------------------------------------------------------------------------------------------------------- ~
      1    -158.388861529879   -158.388861529879      0.04189500      0.01037229      0.18028177      0.04260009  ~
      2    -158.402949680311     -0.014088150432      0.00412648      0.00122741      0.06331542      0.01959322  ~
      3    -158.403449802240     -0.000500121929      0.00394590      0.00093967      0.01606297      0.00492259  ~
      4    -158.403547687005     -0.000097884764      0.00079443      0.00016396      0.00362930      0.00127493  ~
  --------------------------------------------------------------------------------------------------------------- ~

	Writing optimization data to binary file.
	Final energy is   -158.4035476870046
	Final (previous) structure:
	Cartesian Geometry (in Angstrom)
	    C    -0.1621005166  -0.9482279392  -0.3766299298
	    C     0.3793317452   0.4093023557  -0.8694406046
	    C    -0.9380428881  -0.9077814782   0.9397173602
	    C     0.7345485571   1.4126443926   0.2275899595
	    H     0.6832177222  -1.6364735158  -0.2401121599
	    H    -0.7842764625  -1.3938524992  -1.1613127343
	    H    -0.3776791083   0.8783098729  -1.5127650018
	    H     1.2503836320   0.2374480851  -1.5122049863
	    H    -1.8167879588  -0.2545641866   0.8734242643
	    H    -0.3138784795  -0.5470904125   1.7631293877
	    H    -1.2928120676  -1.9094888684   1.2048417556
	    H     1.5071706428   1.0217350673   0.9010503303
	    H    -0.1390584693   1.6709430714   0.8340403750
	    H     1.1201576635   2.3386117505  -0.2122711270
	Saving final (previous) structure.
			--------------------------
			 OPTKING Finished Execution 
			--------------------------

    Final optimized geometry and variables:
    Molecular point group: c1
    Full point group: C1

    Geometry (in Angstrom), charge = 0, multiplicity = 1:

    C           -0.162100517260    -0.948227942908    -0.376629931286
    C            0.379331746700     0.409302357356    -0.869440608008
    C           -0.938042891795    -0.907781481792     0.939717363874
    C            0.734548559940     1.412644398169     0.227589960435
    H            0.683217724846    -1.636473522252    -0.240112160883
    H           -0.784276465555    -1.393852504651    -1.161312738841
    H           -0.377679109781     0.878309876356    -1.512765007718
    H            1.250383636913     0.237448086028    -1.512204992237
    H           -1.816787965959    -0.254564187567     0.873424267745
    H           -0.313878480757    -0.547090414679     1.763129394591
    H           -1.292812072656    -1.909488875922     1.204841760319
    H            1.507170648719     1.021735071352     0.901050333879
    H           -0.139058469820     1.670943077997     0.834040378277
    H            1.120157667885     2.338611759648    -0.212271127880

	Removing binary optimization data file.
	Cleaning optimization helper files.

    Psi4 stopped on: Monday, 24 May 2021 08:00PM
    Psi4 wall time for execution: 0:00:15.36

*** Psi4 exiting successfully. Buy a developer a beer!
