
    -----------------------------------------------------------------------
          Psi4: An Open-Source Ab Initio Electronic Structure Package
                               Psi4 1.3.2 release

                         Git: Rev {HEAD} ecbda83 


    R. M. Parrish, L. A. Burns, D. G. A. Smith, A. C. Simmonett,
    A. E. DePrince III, E. G. Hohenstein, U. Bozkaya, A. Yu. Sokolov,
    R. Di Remigio, R. M. Richard, J. F. Gonthier, A. M. James,
    H. R. McAlexander, A. Kumar, M. Saitow, X. Wang, B. P. Pritchard,
    P. Verma, H. F. Schaefer III, K. Patkowski, R. A. King, E. F. Valeev,
    F. A. Evangelista, J. M. Turney, T. D. Crawford, and C. D. Sherrill,
    J. Chem. Theory Comput. 13(7) pp 3185--3197 (2017).
    (doi: 10.1021/acs.jctc.7b00174)


                         Additional Contributions by
    P. Kraus, H. Kruse, M. H. Lechner, M. C. Schieber, R. A. Shaw,
    A. Alenaizan, R. Galvelis, Z. L. Glick, S. Lehtola, and J. P. Misiewicz

    -----------------------------------------------------------------------


    Psi4 started on: Monday, 24 May 2021 08:08PM

    Process ID: 72152
    Host:       daniele-Precision-5750
    PSIDATADIR: /home/daniele/anaconda3/envs/poltype/share/psi4
    Memory:     500.0 MiB
    Threads:    1
    
  ==> Input File <==

--------------------------------------------------------------------------
molecule { 
0 1
 C   -0.162101   -0.948228   -0.376630
 C    0.379332    0.409302   -0.869441
 C   -0.938043   -0.907781    0.939717
 C    0.734549    1.412644    0.227590
 H    0.683218   -1.636474   -0.240112
 H   -0.784276   -1.393853   -1.161313
 H   -0.377679    0.878310   -1.512765
 H    1.250384    0.237448   -1.512205
 H   -1.816788   -0.254564    0.873424
 H   -0.313878   -0.547090    1.763129
 H   -1.292812   -1.909489    1.204842
 H    1.507171    1.021735    0.901050
 H   -0.139058    1.670943    0.834040
 H    1.120158    2.338612   -0.212271
}
memory 700MB
set_num_threads(8)
psi4_io.set_default_path("/home/daniele/PSI4_sctatch/Psi4-butane")
set freeze_core True
E, wfn = energy('wb97x-d/6-311+G*',return_wfn=True)
oeprop(wfn,"WIBERG_LOWDIN_INDICES")
clean()
--------------------------------------------------------------------------

  Memory set to 667.572 MiB by Python driver.
  Threads set to 8 by Python driver.

*** tstart() called on daniele-Precision-5750
*** at Mon May 24 20:08:09 2021

   => Loading Basis Set <=

    Name: 6-311+G*
    Role: ORBITAL
    Keyword: BASIS
    atoms 1-4  entry C          line   130 file /home/daniele/anaconda3/envs/poltype/share/psi4/basis/6-311pgs.gbs 
    atoms 5-14 entry H          line    47 file /home/daniele/anaconda3/envs/poltype/share/psi4/basis/6-311pgs.gbs 


         ---------------------------------------------------------
                                   SCF
               by Justin Turney, Rob Parrish, Andy Simmonett
                          and Daniel G. A. Smith
                              RKS Reference
                        8 Threads,    667 MiB Core
         ---------------------------------------------------------

  ==> Geometry <==

    Molecular point group: c1
    Full point group: C1

    Geometry (in Angstrom), charge = 0, multiplicity = 1:

       Center              X                  Y                   Z               Mass       
    ------------   -----------------  -----------------  -----------------  -----------------
         C           -0.162101071244    -0.948227925289    -0.376629818588    12.000000000000
         C            0.379331928756     0.409302074711    -0.869440818588    12.000000000000
         C           -0.938043071244    -0.907780925289     0.939717181412    12.000000000000
         C            0.734548928756     1.412644074711     0.227590181412    12.000000000000
         H            0.683217928756    -1.636473925289    -0.240111818588     1.007825032230
         H           -0.784276071244    -1.393852925289    -1.161312818588     1.007825032230
         H           -0.377679071244     0.878310074711    -1.512764818588     1.007825032230
         H            1.250383928756     0.237448074711    -1.512204818588     1.007825032230
         H           -1.816788071244    -0.254563925289     0.873424181412     1.007825032230
         H           -0.313878071244    -0.547089925289     1.763129181412     1.007825032230
         H           -1.292812071244    -1.909488925289     1.204842181412     1.007825032230
         H            1.507170928756     1.021735074711     0.901050181412     1.007825032230
         H           -0.139058071244     1.670943074711     0.834040181412     1.007825032230
         H            1.120157928756     2.338612074711    -0.212270818588     1.007825032230

  Running in c1 symmetry.

  Rotational constants: A =      0.40688  B =      0.17410  C =      0.13609 [cm^-1]
  Rotational constants: A =  12197.91604  B =   5219.50664  C =   4079.78375 [MHz]
  Nuclear repulsion =  132.715503457195297

  Charge       = 0
  Multiplicity = 1
  Electrons    = 34
  Nalpha       = 17
  Nbeta        = 17

  ==> Algorithm <==

  SCF Algorithm Type is DF.
  DIIS enabled.
  MOM disabled.
  Fractional occupation disabled.
  Guess Type is SAD.
  Energy threshold   = 1.00e-06
  Density threshold  = 1.00e-06
  Integral threshold = 0.00e+00

  ==> Primary Basis <==

  Basis Set: 6-311+G*
    Blend: 6-311+G*
    Number of shells: 70
    Number of basis function: 118
    Number of Cartesian functions: 122
    Spherical Harmonics?: true
    Max angular momentum: 2

  ==> DFT Potential <==

   => Composite Functional: WB97X-D <= 

    wB97X-D Hyb-GGA Exchange-Correlation Functional

    J.-D. Chai and M. Head-Gordon, Phys. Chem. Chem. Phys. 10, 6615 (2008)

    Deriv               =              1
    GGA                 =           TRUE
    Meta                =          FALSE

    Exchange Hybrid     =           TRUE
    MP2 Hybrid          =          FALSE

   => Exchange-Correlation Functionals <=

    1.0000   wB97D range-separated functional

   => Exact (HF) Exchange <=

    0.7780            HF,LR [omega = 0.2000]
    0.2220               HF 

   => Molecular Quadrature <=

    Radial Scheme          =       TREUTLER
    Pruning Scheme         =           FLAT
    Nuclear Scheme         =       TREUTLER

    BS radius alpha        =              1
    Pruning alpha          =              1
    Radial Points          =             75
    Spherical Points       =            302
    Total Points           =         317100
    Total Blocks           =           2384
    Max Points             =            256
    Max Functions          =            118

   => WB97X-D: Empirical Dispersion <=

    Chai and Head-Gordon Dispersion Correction
    Chai, J.-D.; Head-Gordon, M. (2010), J. Chem. Phys., 132: 6615-6620

        s6 =       1.000000

   => Loading Basis Set <=

    Name: (6-311+G* AUX)
    Role: JKFIT
    Keyword: DF_BASIS_SCF
    atoms 1-4  entry C          line   200 file /home/daniele/anaconda3/envs/poltype/share/psi4/basis/heavy-aug-cc-pvtz-jkfit.gbs 
    atoms 5-14 entry H          line   116 file /home/daniele/anaconda3/envs/poltype/share/psi4/basis/heavy-aug-cc-pvtz-jkfit.gbs 

  ==> Pre-Iterations <==

   -------------------------------------------------------
    Irrep   Nso     Nmo     Nalpha   Nbeta   Ndocc  Nsocc
   -------------------------------------------------------
     A        118     118       0       0       0       0
   -------------------------------------------------------
    Total     118     118      17      17      17       0
   -------------------------------------------------------

  ==> Integral Setup <==

  ==> DiskDFJK: Density-Fitted J/K Matrices <==

    J tasked:                  Yes
    K tasked:                  Yes
    wK tasked:                 Yes
    Omega:               2.000E-01
    OpenMP threads:              8
    Integrals threads:           8
    Memory [MiB]:               51
    Algorithm:                Disk
    Integral Cache:           NONE
    Schwarz Cutoff:          1E-12
    Fitting Condition:       1E-10

   => Auxiliary Basis Set <=

  Basis Set: (6-311+G* AUX)
    Blend: HEAVY-AUG-CC-PVTZ-JKFIT
    Number of shells: 220
    Number of basis function: 716
    Number of Cartesian functions: 874
    Spherical Harmonics?: true
    Max angular momentum: 4

  Cached 50.0% of DFT collocation blocks in 0.449 [GiB].

  Minimum eigenvalue in the overlap matrix is 3.8420936745E-05.
  Using Symmetric Orthogonalization.

  SCF Guess: Superposition of Atomic Densities via on-the-fly atomic UHF.

  ==> Iterations <==

                           Total Energy        Delta E     RMS |[F,P]|

   @DF-RKS iter SAD:  -157.78849225332331   -1.57788e+02   0.00000e+00 
   @DF-RKS iter   1:  -158.05942850323481   -2.70936e-01   7.12263e-03 DIIS
   @DF-RKS iter   2:  -158.18284793631474   -1.23419e-01   5.95552e-03 DIIS
   @DF-RKS iter   3:  -158.43232735068543   -2.49479e-01   3.35854e-04 DIIS
   @DF-RKS iter   4:  -158.43332333908157   -9.95988e-04   1.33090e-04 DIIS
   @DF-RKS iter   5:  -158.43346098047860   -1.37641e-04   4.53870e-05 DIIS
   @DF-RKS iter   6:  -158.43347598001557   -1.49995e-05   8.11067e-06 DIIS
   @DF-RKS iter   7:  -158.43347661066193   -6.30646e-07   1.07359e-06 DIIS
   @DF-RKS iter   8:  -158.43347663199683   -2.13349e-08   2.33686e-07 DIIS
  Energy and wave function converged.


  ==> Post-Iterations <==

    Orbital Energies [Eh]
    ---------------------

    Doubly Occupied:                                                      

       1A    -10.273939     2A    -10.273750     3A    -10.266136  
       4A    -10.266126     5A     -0.892815     6A     -0.816714  
       7A     -0.739882     8A     -0.653374     9A     -0.551866  
      10A     -0.540830    11A     -0.497621    12A     -0.474073  
      13A     -0.460182    14A     -0.443635    15A     -0.409077  
      16A     -0.405092    17A     -0.392040  

    Virtual:                                                              

      18A      0.067665    19A      0.084495    20A      0.085952  
      21A      0.094041    22A      0.114355    23A      0.126686  
      24A      0.129210    25A      0.131326    26A      0.132400  
      27A      0.162360    28A      0.163089    29A      0.171340  
      30A      0.177088    31A      0.180178    32A      0.194606  
      33A      0.205012    34A      0.241960    35A      0.245689  
      36A      0.251172    37A      0.259852    38A      0.289330  
      39A      0.291678    40A      0.306921    41A      0.319097  
      42A      0.330846    43A      0.345344    44A      0.349904  
      45A      0.358140    46A      0.376977    47A      0.473565  
      48A      0.478980    49A      0.502576    50A      0.528362  
      51A      0.540609    52A      0.554047    53A      0.561470  
      54A      0.635808    55A      0.645655    56A      0.672370  
      57A      0.688970    58A      0.701156    59A      0.719895  
      60A      0.737797    61A      0.752824    62A      0.756320  
      63A      0.770062    64A      0.778712    65A      0.786300  
      66A      0.825982    67A      0.835505    68A      0.853097  
      69A      0.936635    70A      1.046244    71A      1.062891  
      72A      1.128467    73A      1.206065    74A      1.231882  
      75A      1.412902    76A      1.476984    77A      1.568720  
      78A      1.596365    79A      1.653606    80A      1.661896  
      81A      1.673578    82A      1.691390    83A      1.751594  
      84A      1.767924    85A      1.810278    86A      1.848938  
      87A      1.897356    88A      1.939121    89A      1.964208  
      90A      2.071084    91A      2.189905    92A      2.241514  
      93A      2.531602    94A      2.581953    95A      2.598188  
      96A      2.608661    97A      2.618491    98A      2.636006  
      99A      2.648211   100A      2.666378   101A      2.724737  
     102A      2.780261   103A      2.986549   104A      3.096791  
     105A      3.099061   106A      3.221694   107A      3.236950  
     108A      3.259156   109A      3.289158   110A      3.366483  
     111A      3.367154   112A      3.784778   113A      3.868958  
     114A      4.174486   115A     23.544105   116A     23.716069  
     117A     23.813539   118A     23.850549  

    Final Occupation by Irrep:
              A 
    DOCC [    17 ]

  @DF-RKS Final Energy:  -158.43347663199683

   => Energetics <=

    Nuclear Repulsion Energy =            132.7155034571952967
    One-Electron Energy =                -474.0139862671042579
    Two-Electron Energy =                 200.0432975328304508
    DFT Exchange-Correlation Energy =     -17.1715015333132328
    Empirical Dispersion Energy =          -0.0067898216051132
    VV10 Nonlocal Energy =                  0.0000000000000000
    Total Energy =                       -158.4334766319968253

Computation Completed


Properties will be evaluated at   0.000000,   0.000000,   0.000000 [a0]

Properties computed using the SCF density matrix

  Nuclear Dipole Moment: [e a0]
     X:    -0.1533      Y:     0.3802      Z:     0.8792

  Electronic Dipole Moment: [e a0]
     X:     0.1593      Y:    -0.3951      Z:    -0.9136

  Dipole Moment: [e a0]
     X:     0.0060      Y:    -0.0149      Z:    -0.0344     Total:     0.0380

  Dipole Moment: [D]
     X:     0.0152      Y:    -0.0378      Z:    -0.0875     Total:     0.0965


*** tstop() called on daniele-Precision-5750 at Mon May 24 20:08:15 2021
Module time:
	user time   =      32.06 seconds =       0.53 minutes
	system time =       0.74 seconds =       0.01 minutes
	total time  =          6 seconds =       0.10 minutes
Total time:
	user time   =      32.06 seconds =       0.53 minutes
	system time =       0.74 seconds =       0.01 minutes
	total time  =          6 seconds =       0.10 minutes


Properties will be evaluated at   0.000000,   0.000000,   0.000000 [a0]
OEProp: No title given, name of density matrix used for the following properties is 'SCF density'


  Wiberg Bond Indices using Orthogonal Lowdin Orbitals:

  Irrep: 1 Size: 14 x 14

                 1                   2                   3                   4                   5

    1     0.00000000000000     1.16002946378900     1.20448411993959     0.09489066034395     0.86906425469622
    2     1.16002946378900     0.00000000000000     0.09487952236125     1.20451536163306     0.04065865809098
    3     1.20448411993959     0.09487952236125     0.00000000000000     0.06299106369305     0.04166969832879
    4     0.09489066034395     1.20451536163306     0.06299106369305     0.00000000000000     0.00862961317243
    5     0.86906425469622     0.04065865809098     0.04166969832879     0.00862961317243     0.00000000000000
    6     0.87394125956397     0.04453540803603     0.03932620838990     0.01026548195021     0.00758194692096
    7     0.04065934336501     0.86905681858050     0.00862851613601     0.04167304588312     0.00634930738219
    8     0.04453636047673     0.87393436371001     0.01026564534937     0.03932955271386     0.00715631778416
    9     0.03999908181254     0.01197643113096     0.90663660817252     0.00836946797145     0.00986099266277
   10     0.03910633597422     0.01031319186106     0.90433405325017     0.01426771311580     0.00451743599198
   11     0.04878767590705     0.01271327246680     0.91272100366707     0.00220988282449     0.00348908079991
   12     0.01198322006848     0.03999979189785     0.00837597334619     0.90662395547780     0.00007389620691
   13     0.01030889978356     0.03911075787023     0.01425898851907     0.90433528922955     0.00005024155634
   14     0.01271522895017     0.04879586351588     0.00221061718705     0.91270995196438     0.00005278438179

                 6                   7                   8                   9                  10

    1     0.87394125956397     0.04065934336501     0.04453636047673     0.03999908181254     0.03910633597422
    2     0.04453540803603     0.86905681858050     0.87393436371001     0.01197643113096     0.01031319186106
    3     0.03932620838990     0.00862851613601     0.01026564534937     0.90663660817252     0.90433405325017
    4     0.01026548195021     0.04167304588312     0.03932955271386     0.00836946797145     0.01426771311580
    5     0.00758194692096     0.00634930738219     0.00715631778416     0.00986099266277     0.00451743599198
    6     0.00000000000000     0.00715598222241     0.00079896889106     0.00358736284682     0.01017558621415
    7     0.00715598222241     0.00000000000000     0.00758216369497     0.00007375656009     0.00005031132424
    8     0.00079896889106     0.00758216369497     0.00000000000000     0.00011752989938     0.00006393887398
    9     0.00358736284682     0.00007375656009     0.00011752989938     0.00000000000000     0.00774253490788
   10     0.01017558621415     0.00005031132424     0.00006393887398     0.00774253490788     0.00000000000000
   11     0.00344703386420     0.00005277546971     0.00009837313559     0.00944806931452     0.00940467728028
   12     0.00011767890936     0.00986204507119     0.00358409141815     0.00015223821830     0.00105543746947
   13     0.00006383218570     0.00452227986026     0.01017597635781     0.00105351802352     0.00172125958829
   14     0.00009837391351     0.00348649922230     0.00345163008449     0.00006436823556     0.00046224113537

                11                  12                  13                  14

    1     0.04878767590705     0.01198322006848     0.01030889978356     0.01271522895017
    2     0.01271327246680     0.03999979189785     0.03911075787023     0.04879586351588
    3     0.91272100366707     0.00837597334619     0.01425898851907     0.00221061718705
    4     0.00220988282449     0.90662395547780     0.90433528922955     0.91270995196438
    5     0.00348908079991     0.00007389620691     0.00005024155634     0.00005278438179
    6     0.00344703386420     0.00011767890936     0.00006383218570     0.00009837391351
    7     0.00005277546971     0.00986204507119     0.00452227986026     0.00348649922230
    8     0.00009837313559     0.00358409141815     0.01017597635781     0.00345163008449
    9     0.00944806931452     0.00015223821830     0.00105351802352     0.00006436823556
   10     0.00940467728028     0.00105543746947     0.00172125958829     0.00046224113537
   11     0.00000000000000     0.00006447601926     0.00046210222150     0.00001557833682
   12     0.00006447601926     0.00000000000000     0.00774215361922     0.00944792215981
   13     0.00046210222150     0.00774215361922     0.00000000000000     0.00940435857745
   14     0.00001557833682     0.00944792215981     0.00940435857745     0.00000000000000



  Atomic Valences: 

 #  #
 Irrep: 1
      1:  4.4505059
      2:  4.4505189
      3:  4.2107820
      4:  4.2108110
      5:  0.9991542
      6:  1.0010951
      7:  0.9991528
      8:  1.0010949
      9:  0.9990820
     10:  1.0032147
     11:  1.0029140
     12:  0.9990829
     13:  1.0032097
     14:  1.0029154


    Psi4 stopped on: Monday, 24 May 2021 08:08PM
    Psi4 wall time for execution: 0:00:05.71

*** Psi4 exiting successfully. Buy a developer a beer!
