Generated by Psi4
        SP                        DF-MP2                      6-311G**
Number of atoms                            I                7
Charge                                     I                0
Multiplicity                               I                1
Number of electrons                        I               18
Number of alpha electrons                  I                9
Number of beta electrons                   I                9
Number of basis functions                  I               66
Number of independent functions            I               66
Atomic numbers                             I   N=           7
           7           6           1           1           1           1
           1
Nuclear charges                            R   N=           7
  7.00000000e+00  6.00000000e+00  1.00000000e+00  1.00000000e+00  1.00000000e+00
  1.00000000e+00  1.00000000e+00
Current cartesian coordinates              R   N=          21
  1.35765223e+00  6.13523959e-07 -1.90899888e-01 -1.39654801e+00  6.13523959e-07
  8.00490441e-02 -2.10013084e+00 -7.49755211e-05  2.03693604e+00 -2.16065877e+00
 -1.66482921e+00 -8.71957183e-01 -2.16063987e+00  1.66488712e+00 -8.71824903e-01
  2.09309585e+00 -1.53559084e+00  7.03072850e-01  2.09309585e+00  1.53559206e+00
  7.03072850e-01
Integer atomic weights                     I   N=           7
          14          12           1           1           1           1
           1
Real atomic weights                        R   N=           7
  1.40030740e+01  1.20000000e+01  1.00782503e+00  1.00782503e+00  1.00782503e+00
  1.00782503e+00  1.00782503e+00
Number of primitive shells                 I               64
Number of contracted shells                I               36
Pure/Cartesian d shells                    I                0
Pure/Cartesian f shells                    I                0
Highest angular momentum                   I                2
Largest degree of contraction              I                6
Shell types                                I   N=          36
           0           0           1           0           1           0
           1          -2           0           0           1           0
           1           0           1          -2           0           0
           0           1           0           0           0           1
           0           0           0           1           0           0
           0           1           0           0           0           1
Number of primitives per shell             I   N=          36
           6           3           3           1           1           1
           1           1           6           3           3           1
           1           1           1           1           3           1
           1           1           3           1           1           1
           3           1           1           1           3           1
           1           1           3           1           1           1
Shell to atom map                          I   N=          36
           1           1           1           1           1           1
           1           1           2           2           2           2
           2           2           2           2           3           3
           3           3           4           4           4           4
           5           5           5           5           6           6
           6           6           7           7           7           7
Primitive exponents                        R   N=          64
  6.29348000e+03  9.49044000e+02  2.18776000e+02  6.36916000e+01  1.88282000e+01
  2.72023000e+00  3.06331000e+01  7.02614000e+00  2.11205000e+00  3.06331000e+01
  7.02614000e+00  2.11205000e+00  6.84009000e-01  6.84009000e-01  2.00878000e-01
  2.00878000e-01  9.13000000e-01  4.56324000e+03  6.82024000e+02  1.54973000e+02
  4.44553000e+01  1.30290000e+01  1.82773000e+00  2.09642000e+01  4.80331000e+00
  1.45933000e+00  2.09642000e+01  4.80331000e+00  1.45933000e+00  4.83456000e-01
  4.83456000e-01  1.45585000e-01  1.45585000e-01  6.26000000e-01  3.38650000e+01
  5.09479000e+00  1.15879000e+00  3.25840000e-01  1.02741000e-01  7.50000000e-01
  3.38650000e+01  5.09479000e+00  1.15879000e+00  3.25840000e-01  1.02741000e-01
  7.50000000e-01  3.38650000e+01  5.09479000e+00  1.15879000e+00  3.25840000e-01
  1.02741000e-01  7.50000000e-01  3.38650000e+01  5.09479000e+00  1.15879000e+00
  3.25840000e-01  1.02741000e-01  7.50000000e-01  3.38650000e+01  5.09479000e+00
  1.15879000e+00  3.25840000e-01  1.02741000e-01  7.50000000e-01
Contraction coefficients                   R   N=          64
  1.96978815e-03  1.49612859e-02  7.35005308e-02  2.48936766e-01  6.02459433e-01
  2.56201759e-01  1.11906080e-01  9.21666655e-01 -2.56919183e-03  3.83119186e-02
  2.37403116e-01  8.17592398e-01  1.00000000e+00  1.00000000e+00  1.00000000e+00
  1.00000000e+00  1.00000000e+00  1.96665025e-03  1.52306019e-02  7.61269097e-02
  2.60801033e-01  6.16462078e-01  2.21006028e-01  1.14660081e-01  9.19999648e-01
 -3.03068213e-03  4.02486927e-02  2.37593957e-01  8.15853851e-01  1.00000000e+00
  1.00000000e+00  1.00000000e+00  1.00000000e+00  1.00000000e+00  2.54938145e-02
  1.90373109e-01  8.52161486e-01  1.00000000e+00  1.00000000e+00  1.00000000e+00
  2.54938145e-02  1.90373109e-01  8.52161486e-01  1.00000000e+00  1.00000000e+00
  1.00000000e+00  2.54938145e-02  1.90373109e-01  8.52161486e-01  1.00000000e+00
  1.00000000e+00  1.00000000e+00  2.54938145e-02  1.90373109e-01  8.52161486e-01
  1.00000000e+00  1.00000000e+00  1.00000000e+00  2.54938145e-02  1.90373109e-01
  8.52161486e-01  1.00000000e+00  1.00000000e+00  1.00000000e+00
Coordinates of each shell                  R   N=         108
  1.35765223e+00  6.13523959e-07 -1.90899888e-01  1.35765223e+00  6.13523959e-07
 -1.90899888e-01  1.35765223e+00  6.13523959e-07 -1.90899888e-01  1.35765223e+00
  6.13523959e-07 -1.90899888e-01  1.35765223e+00  6.13523959e-07 -1.90899888e-01
  1.35765223e+00  6.13523959e-07 -1.90899888e-01  1.35765223e+00  6.13523959e-07
 -1.90899888e-01  1.35765223e+00  6.13523959e-07 -1.90899888e-01 -1.39654801e+00
  6.13523959e-07  8.00490441e-02 -1.39654801e+00  6.13523959e-07  8.00490441e-02
 -1.39654801e+00  6.13523959e-07  8.00490441e-02 -1.39654801e+00  6.13523959e-07
  8.00490441e-02 -1.39654801e+00  6.13523959e-07  8.00490441e-02 -1.39654801e+00
  6.13523959e-07  8.00490441e-02 -1.39654801e+00  6.13523959e-07  8.00490441e-02
 -1.39654801e+00  6.13523959e-07  8.00490441e-02 -2.10013084e+00 -7.49755211e-05
  2.03693604e+00 -2.10013084e+00 -7.49755211e-05  2.03693604e+00 -2.10013084e+00
 -7.49755211e-05  2.03693604e+00 -2.10013084e+00 -7.49755211e-05  2.03693604e+00
 -2.16065877e+00 -1.66482921e+00 -8.71957183e-01 -2.16065877e+00 -1.66482921e+00
 -8.71957183e-01 -2.16065877e+00 -1.66482921e+00 -8.71957183e-01 -2.16065877e+00
 -1.66482921e+00 -8.71957183e-01 -2.16063987e+00  1.66488712e+00 -8.71824903e-01
 -2.16063987e+00  1.66488712e+00 -8.71824903e-01 -2.16063987e+00  1.66488712e+00
 -8.71824903e-01 -2.16063987e+00  1.66488712e+00 -8.71824903e-01  2.09309585e+00
 -1.53559084e+00  7.03072850e-01  2.09309585e+00 -1.53559084e+00  7.03072850e-01
  2.09309585e+00 -1.53559084e+00  7.03072850e-01  2.09309585e+00 -1.53559084e+00
  7.03072850e-01  2.09309585e+00  1.53559206e+00  7.03072850e-01  2.09309585e+00
  1.53559206e+00  7.03072850e-01  2.09309585e+00  1.53559206e+00  7.03072850e-01
  2.09309585e+00  1.53559206e+00  7.03072850e-01
Total Energy                               R     -9.558738176726689e+01
Alpha Orbital Energies                     R   N=          66
 -1.55313215e+01 -1.12406606e+01 -1.16477419e+00 -8.91751396e-01 -6.56660162e-01
 -5.99926170e-01 -5.50892010e-01 -5.13666850e-01 -3.89056812e-01  1.56522668e-01
  1.92868482e-01  2.09734576e-01  2.31569964e-01  2.57524187e-01  3.75600988e-01
  4.63847828e-01  4.84350572e-01  5.46975829e-01  5.59326331e-01  7.04073607e-01
  7.58515796e-01  8.06748516e-01  8.07923993e-01  8.53015385e-01  9.33020956e-01
  9.53149828e-01  9.70932821e-01  1.26693831e+00  1.29473239e+00  1.29497085e+00
  1.58609650e+00  1.63859317e+00  1.72694564e+00  1.74486796e+00  1.76007721e+00
  1.82846376e+00  1.89330658e+00  1.92318798e+00  1.98532442e+00  2.03322170e+00
  2.14276561e+00  2.25863989e+00  2.32646173e+00  2.44159153e+00  2.47500957e+00
  2.63761093e+00  2.66142341e+00  2.71920421e+00  2.78031998e+00  2.79423187e+00
  2.86577930e+00  2.87071293e+00  2.94269248e+00  3.08566550e+00  3.08851253e+00
  3.19761480e+00  3.31655289e+00  3.50063405e+00  3.82545872e+00  4.15294436e+00
  4.21362332e+00  4.49707555e+00  5.20591909e+00  5.32393963e+00  2.50446723e+01
  3.69972155e+01
Alpha MO coefficients                      R   N=        4356
  5.57661834e-01  4.68260508e-01 -4.99351741e-04 -1.79173127e-09  1.85584825e-03
  4.97782496e-03  1.94063893e-04  1.48219517e-09 -7.47844837e-04 -1.23855328e-03
  2.61162247e-04 -4.25652631e-10  1.69302207e-05  1.58910345e-04 -4.26271869e-05
 -9.64748309e-11 -4.30759153e-05  7.85032362e-11  7.96931640e-06 -3.37293710e-05
  3.82852367e-05  9.39145428e-11 -2.60609617e-05  1.32019211e-04  3.60926523e-04
 -2.06358828e-09  5.29907925e-05  6.79961564e-04  2.72371060e-04  4.33418887e-09
 -7.76739788e-05 -7.03719796e-05  3.30934978e-05 -1.06366829e-09  1.61069589e-04
 -1.91035391e-11  3.84033740e-06 -5.48088002e-05 -1.24289525e-05 -3.26876495e-05
  2.75770092e-10 -1.19240725e-05  1.99320505e-05 -6.07342747e-05 -1.74610348e-05
  9.48503120e-06  1.92735677e-05  1.86962698e-05  1.99336072e-05 -6.07352684e-05
 -1.74673158e-05  9.48350123e-06 -1.92753209e-05  1.86946630e-05  2.53373700e-04
  2.81845883e-04  5.28191673e-05 -8.99489921e-05  1.02406661e-04  7.67753446e-06
  2.53373594e-04  2.81844582e-04  5.28195698e-05 -8.99484962e-05 -1.02406185e-04
  7.67807449e-06 -8.65888320e-05 -1.38531473e-04 -9.37898507e-05  2.05328510e-10
  1.74950387e-05  2.75467292e-04 -4.98854799e-04 -6.56999685e-10  1.54567726e-05
  2.30728198e-04 -1.26379515e-04 -2.21973466e-09 -1.07519423e-05 -8.20577134e-05
 -6.99172158e-05  2.61735757e-10  1.92383997e-04  7.65475172e-10  5.63424807e-01
  4.66559595e-01  5.21986291e-04 -7.70716176e-09  5.67092161e-06  4.14721848e-03
 -4.84490326e-04  3.16929397e-08 -1.93909057e-05 -1.23143888e-03  6.56214728e-05
 -1.20875400e-09  4.20599306e-05  7.00461481e-05  3.94666758e-05 -1.38313632e-08
 -1.85895368e-04 -1.14228771e-08  3.43554115e-04  1.21403335e-04  2.23776275e-04
  3.54580657e-05 -4.96244049e-10 -3.63636623e-06  3.42285070e-04  9.87892111e-05
  2.56550366e-04  2.35604120e-05 -1.28478385e-05 -1.05286760e-05  3.42291343e-04
  9.87474482e-05  2.56570344e-04  2.35530706e-05  1.28632256e-05 -1.05371411e-05
  6.54325353e-07  6.29461879e-05 -1.37439360e-05 -2.40407570e-05  4.66977320e-05
 -2.19277399e-05  6.53743655e-07  6.29497022e-05 -1.37470241e-05 -2.40409350e-05
 -4.66978221e-05 -2.19280843e-05  9.88893845e-02  1.63601475e-01  1.59582073e-02
 -3.42099893e-08 -2.72955915e-02 -4.35792648e-01  3.26635459e-02 -4.84601336e-08
 -4.56402556e-02 -3.22772109e-01  2.44469842e-02 -7.51694937e-08 -1.78691678e-02
  5.22283845e-03 -7.66985105e-04 -3.88199089e-09 -2.64846825e-03  7.99005892e-09
  5.08137019e-02  8.35240416e-02 -3.80612995e-02 -3.27583403e-07  2.17914485e-03
 -2.12370875e-01 -7.85985658e-02 -1.73782898e-07  3.13809768e-03 -5.76584349e-02
  4.78647344e-04  6.94918821e-09 -5.52319666e-03  1.12710900e-02  1.42645532e-03
  2.39774928e-08 -1.85961436e-02 -6.18650736e-10 -2.58367891e-02 -3.89631931e-02
  2.68507843e-03 -4.37110462e-03 -3.47114507e-07  9.00127260e-03 -2.66049625e-02
 -4.26649277e-02  1.18961043e-03 -4.52065607e-03 -8.01173894e-03 -4.40172310e-03
 -2.66058703e-02 -4.26658830e-02  1.18974451e-03 -4.52070229e-03  8.01219553e-03
 -4.40120701e-03 -7.80340256e-02 -7.91631411e-02 -6.96454838e-04  9.26839273e-03
 -1.71101219e-02  7.88973471e-03 -7.80340608e-02 -7.91631569e-02 -6.96467805e-04
  9.26840794e-03  1.71101243e-02  7.88972602e-03  4.11361844e-02  6.83846176e-02
 -6.74414115e-02  2.60532685e-07 -2.31068447e-02 -1.84263618e-01 -1.11564274e-01
  4.16916011e-07 -3.74579768e-02 -1.62345568e-01 -4.98128575e-02  2.61815553e-07
 -1.43042848e-02 -3.86213528e-03 -8.21456141e-03  4.14099864e-08  1.30140163e-02
 -3.84226931e-08 -8.86377048e-02 -1.46985517e-01 -4.01667286e-02  1.44761628e-06
 -3.12128402e-03  3.79181962e-01 -5.25406258e-02  1.69678411e-06 -5.11741969e-03
  2.51919691e-01 -2.47103289e-02  2.76576638e-07  6.89713769e-03  3.48655593e-03
 -6.03710007e-04 -2.04385851e-07 -8.15538746e-03 -1.06611504e-07  8.10856072e-02
  1.09042888e-01  5.53135520e-03  4.20380919e-03  7.28542328e-07 -1.71313315e-02
  8.45380644e-02  1.17652920e-01  9.28594740e-03  4.95075143e-03  1.56317601e-02
  8.67176338e-03  8.45406107e-02  1.17655618e-01  9.28614768e-03  4.95080115e-03
 -1.56326116e-02  8.67078642e-03 -6.24006781e-02 -7.84798338e-02 -1.17820519e-02
  1.74979028e-03 -1.21168374e-02  4.65504576e-03 -6.24003950e-02 -7.84794563e-02
 -1.17820770e-02  1.74974069e-03  1.21168190e-02  4.65499981e-03 -1.36607471e-07
 -2.26962118e-07  5.79208582e-07  1.75575236e-01 -4.85254041e-07  6.43561496e-07
  9.55141364e-07  2.77731651e-01 -7.97989120e-07  6.09996382e-07  3.43962317e-07
  1.67464466e-01 -9.08169108e-07 -3.45628827e-08  1.45115982e-07  2.54742273e-02
 -6.51612969e-08  3.71999138e-03  3.57965921e-07  6.14572232e-07 -1.98209267e-07
  9.87686919e-02 -1.82544285e-06 -1.54728221e-06 -2.04636165e-07  1.62862378e-01
 -2.72940622e-06 -2.65988918e-06  5.25375012e-08  1.04152861e-01 -6.79710136e-07
 -1.56388115e-06  6.49693695e-08 -1.33358861e-02 -1.03773866e-06  5.99053891e-03
 -4.54474078e-06 -6.59121522e-06 -2.30147011e-06 -2.64188795e-07  4.16291642e-03
  6.31130350e-07 -6.36086797e-02 -8.51042885e-02 -2.26568951e-02 -2.52970544e-03
 -3.48154578e-03 -5.03343111e-03  6.36125966e-02  8.51098432e-02  2.26586133e-02
  2.52992102e-03 -3.48233112e-03  5.03294911e-03 -1.18781769e-01 -1.79224591e-01
 -4.91804955e-02  1.24321847e-02 -1.02062711e-02  1.14323834e-02  1.18782086e-01
  1.79225589e-01  4.91808634e-02 -1.24321687e-02 -1.02063753e-02 -1.14325078e-02
  1.62125813e-02  2.75488420e-02  1.03811652e-01  1.92732022e-06  9.87977691e-02
 -8.43121850e-02  1.67881810e-01  3.08071851e-06  1.55504501e-01 -9.43592403e-02
  1.05730681e-01  1.89270646e-06  1.26653224e-01  1.10507253e-02  1.95642058e-03
  2.68948426e-07 -1.35835150e-02  1.25247484e-07 -2.74253101e-03 -4.20455636e-03
 -8.85680159e-02 -4.87080793e-07  1.35894459e-01  4.26666593e-03 -1.53119412e-01
 -4.91337135e-07  2.18741512e-01  2.33427165e-02 -6.87234269e-02  5.66996961e-07
  1.16643860e-01  2.64484287e-02  2.30737317e-04 -1.90434446e-06 -1.14169626e-02
  6.96475284e-08  1.36513652e-01  2.11293394e-01  8.60072601e-02  3.23135683e-03
  8.15508882e-07 -1.48970918e-02 -2.01551138e-02 -3.38075348e-02 -1.49199716e-02
 -5.30947302e-03 -4.25238189e-03  5.27788895e-03 -2.01494031e-02 -3.37993662e-02
 -1.49170489e-02 -5.30933126e-03  4.25181065e-03  5.27879356e-03  5.60407171e-02
  7.89088521e-02  2.96231160e-02  2.14821176e-03  1.05350825e-02  2.98787304e-03
  5.60434474e-02  7.89129072e-02  2.96246003e-02  2.14805601e-03 -1.05352650e-02
  2.98760801e-03  1.54486262e-03  2.58779964e-03 -1.51425545e-01  4.35743943e-06
  2.79407229e-02 -8.01467041e-03 -2.40469966e-01  6.79409986e-06  4.81321204e-02
  7.43256317e-03 -1.80625895e-01  4.89702088e-06  4.84142629e-02 -1.24488679e-03
 -2.05498566e-02  6.37191904e-07  1.47588471e-02  5.34505076e-07 -3.76667977e-03
 -6.72891943e-03  1.34786086e-01 -4.74511701e-06  1.10135139e-01  2.27865052e-02
  2.25931108e-01 -6.95238122e-06  1.75543011e-01 -1.76788394e-03  1.23508452e-01
 -3.84535474e-06  1.22627087e-01 -7.29151181e-05 -1.28925741e-02 -1.19778254e-06
  3.44935083e-02  8.02070851e-07  5.80697373e-02  9.00657886e-02  4.32854084e-02
  8.73588084e-03  1.00152377e-07 -3.48959132e-03 -8.75735802e-02 -1.35448357e-01
 -5.42371441e-02  1.33228059e-03 -1.05526046e-02 -7.32000438e-04 -8.75743732e-02
 -1.35449740e-01 -5.42372663e-02  1.33228850e-03  1.05527531e-02 -7.31183017e-04
 -4.59993542e-02 -8.02851332e-02 -3.52692520e-02 -7.68947890e-03 -8.38286982e-03
  6.74426921e-03 -4.59928286e-02 -8.02749977e-02 -3.52647927e-02 -7.68992433e-03
  8.38238167e-03  6.74368265e-03 -3.01132938e-07 -5.14794239e-07  3.52893587e-06
  1.07653117e-01 -2.72356761e-06  1.56160481e-06  5.54583743e-06  1.65621667e-01
 -4.31508238e-06  1.70451956e-06  4.90354607e-06  1.22891967e-01 -3.98329153e-06
 -3.97484563e-08  5.79883269e-07  1.66390836e-02 -2.54843862e-07  1.67610602e-02
 -3.29781736e-08 -8.05289234e-08 -3.42860347e-06 -1.65734203e-01 -3.42404300e-06
  9.06933594e-08 -6.01254658e-06 -2.61262587e-01 -5.95332306e-06  3.39450162e-06
 -3.79926941e-06 -1.78837578e-01 -4.82437437e-06  2.28609147e-06  2.98587457e-07
  2.40971302e-02  5.96310972e-07  2.74885556e-02  3.82502061e-06  6.28140297e-06
  2.81410670e-06  4.48927821e-08 -9.73098896e-03 -8.27239108e-07  1.26842802e-01
  2.07384243e-01  9.46459824e-02  7.32513758e-03  7.00196356e-03  1.05778363e-02
 -1.26843168e-01 -2.07384819e-01 -9.46455684e-02 -7.32551505e-03  7.00271132e-03
 -1.05770669e-02 -8.42633063e-02 -1.39007242e-01 -7.05465633e-02  6.94850168e-03
 -6.82400234e-03  7.45400187e-03  8.42644629e-02  1.39008977e-01  7.05478632e-02
 -6.94788798e-03 -6.82414031e-03 -7.45448780e-03  2.98014203e-02  5.07863241e-02
 -5.50512705e-02  2.08498821e-07  2.29466826e-01 -1.54311379e-01 -7.98604831e-02
  2.55836924e-07  3.45007623e-01 -2.05049876e-01 -1.23540655e-01 -3.97911580e-07
  4.26687562e-01  1.12108109e-02 -1.93770137e-03  1.01674892e-07  4.20259458e-04
  8.63561201e-08 -5.69876602e-03 -9.58349790e-03  2.95406599e-02 -8.37586868e-07
 -7.49339215e-02  2.76531632e-02  4.66807568e-02 -1.63944603e-06 -1.15147703e-01
 -2.96176708e-02  4.84281113e-03 -1.33195759e-06 -7.50055321e-02 -1.73554594e-02
  3.11523440e-02  1.55471847e-06 -5.03904737e-04  2.04063271e-07 -8.94598643e-02
 -1.76863951e-01 -9.63075850e-02 -2.24528839e-03 -6.31601215e-07  7.81737360e-03
  3.60638253e-02  8.27832132e-02  2.98666105e-02  3.82506804e-03  5.88078298e-03
 -2.25001298e-03  3.60571427e-02  8.27699846e-02  2.98585264e-02  3.82477808e-03
 -5.88024713e-03 -2.25112851e-03  4.22347457e-02  5.45501096e-02  3.23350893e-02
 -8.05946474e-03  8.83705934e-03  1.61792524e-02  4.22353286e-02  5.45522833e-02
  3.23363862e-02 -8.05970706e-03 -8.83718727e-03  1.61792087e-02  2.69953665e-02
  4.40416852e-02 -4.37516451e-02 -2.93488724e-08 -3.70855515e-02 -8.70046072e-02
 -3.92863001e-02 -2.34182620e-08 -5.42942730e-02 -6.46489397e-01 -3.10209652e-01
 -7.44275987e-08 -1.25569657e-01 -1.91959282e-03 -2.23324117e-03 -6.19984399e-08
  5.86317349e-04 -7.21909407e-08  2.79868704e-02  4.41735142e-02  5.43186737e-02
  1.94291876e-07 -1.64624170e-02 -1.07804250e-02  6.63854721e-02 -2.10017032e-08
 -1.16803700e-02 -1.60024763e+00  2.20587380e-01 -1.45811506e-06 -9.47083589e-02
  4.10893322e-03 -4.96304769e-03 -3.13358428e-08 -3.20708138e-03  1.78376387e-07
  3.49761814e-03  2.03833378e-03  7.86857252e-01  5.61905624e-03 -2.20556991e-08
  1.70949364e-03  1.23416057e-03  3.79415691e-02  5.21300996e-01  6.75629505e-03
  2.60442111e-03  1.81988362e-03  1.23395139e-03  3.79419017e-02  5.21320856e-01
  6.75625036e-03 -2.60437321e-03  1.81957640e-03  1.73382833e-02 -6.18131278e-02
  6.69597931e-01  4.42850790e-03 -5.92448136e-03  4.66809087e-04  1.73380087e-02
 -6.18139422e-02  6.69598137e-01  4.42842847e-03  5.92445773e-03  4.66760012e-04
  2.89195174e-02  4.72495394e-02 -8.54782596e-03 -1.94775425e-07 -4.23781604e-02
 -8.10460253e-02  1.76923627e-02 -1.53638570e-07 -6.20539277e-02 -8.39513998e-01
 -9.55106865e-02 -1.30170689e-06 -1.70780804e-01 -3.51200655e-03  5.40644893e-04
 -4.05338644e-08  3.76435079e-03  2.18191544e-07 -3.74931070e-02 -6.07714379e-02
 -1.60391174e-02 -1.81920259e-06 -1.47115585e-02  8.29438110e-02  1.81191099e-02
 -2.40627441e-06 -7.00879211e-03  1.40538838e+00 -2.25327984e-01 -9.45038252e-06
 -1.63123420e-01  2.96267520e-04 -3.78895353e-03 -1.67110732e-07 -3.09545499e-03
 -1.71901911e-07 -1.15127436e-02  8.11469007e-02 -5.89945558e-01  8.18390730e-03
 -2.86790235e-09 -2.50801580e-03 -1.28267714e-02  7.12892716e-02 -9.21464216e-01
  7.42532489e-03  2.86274749e-03  3.97058236e-03 -1.28253389e-02  7.12902412e-02
 -9.21436541e-01  7.42513017e-03 -2.86306861e-03  3.97021084e-03  2.02750509e-02
 -6.01776940e-02  7.93828593e-01  7.16173624e-03 -1.42803091e-04 -2.00532595e-03
  2.02757376e-02 -6.01769020e-02  7.93841483e-01  7.16184849e-03  1.42811966e-04
 -2.00549205e-03  1.94577341e-10 -4.39387133e-09 -1.80753573e-07  8.92064307e-02
  2.14994538e-07 -3.28872862e-08 -1.07597441e-08  8.31910684e-02 -3.18902151e-07
  2.70146246e-07  9.47997387e-07  4.52258151e-01  6.16796686e-06  2.08605188e-07
  3.19574052e-07  3.98600941e-03  1.29755522e-07 -1.27772097e-02 -1.37299058e-07
 -1.29590381e-07 -1.13947407e-07  9.51315103e-02 -4.01827777e-06 -1.24372428e-06
  7.28787323e-07  4.74122670e-02 -1.00895761e-06  1.70045400e-05 -2.95504659e-06
  7.49299463e-01 -3.79443806e-05  1.98648785e-06 -5.68723104e-07  1.25577565e-02
  1.33557232e-06  1.88500392e-02  1.00243422e-06 -6.54918990e-06  1.07555117e-04
 -4.35583561e-07 -2.95358138e-03  1.75340765e-06  1.10886522e-02 -9.44673341e-02
  1.17687125e+00 -8.62749266e-03 -1.65262516e-02 -7.68255919e-03 -1.10885823e-02
  9.44780096e-02 -1.17700374e+00  8.62842709e-03 -1.65291564e-02  7.68259014e-03
  2.09777704e-02 -7.66744944e-02  1.16345296e+00  4.71815403e-03 -7.17621527e-03
  3.46276525e-03 -2.09776518e-02  7.66683455e-02 -1.16344308e+00 -4.71794046e-03
 -7.17628632e-03 -3.46228844e-03  7.74312374e-03  1.26925711e-02  5.23778938e-03
  1.11630077e-06 -1.63261548e-02 -1.77229839e-02  8.56503045e-03  8.35347020e-07
 -9.09890588e-03 -2.78945583e-01 -1.40428291e-03  6.54969396e-06 -1.97339956e-01
 -9.36679271e-04 -1.08332744e-02  5.48025414e-07 -7.85346855e-04 -4.27079158e-07
 -2.66073257e-03 -4.49006453e-03  1.35613210e-02  4.39174043e-06  1.38300200e-01
  6.40531480e-03  1.95936894e-02  4.30427980e-06  7.87029324e-02  9.11199879e-02
  1.31399969e-01  3.23138107e-05  1.15262777e+00 -1.96118346e-02  1.91720195e-02
  3.08717041e-06 -1.28934105e-02  5.14365974e-07 -1.78116195e-02  1.91545096e-01
 -2.21141805e+00  1.05528339e-02  1.35354348e-06 -3.08714042e-02  6.58663996e-03
 -8.26998251e-02  1.06875060e+00 -4.01972081e-03 -1.51822127e-02 -5.79376167e-03
  6.58358354e-03 -8.26825773e-02  1.06851411e+00 -4.01861713e-03  1.51805236e-02
 -5.79099318e-03 -1.96038981e-03  2.29560950e-02  1.38617129e-01 -1.72647613e-03
  1.23637323e-03 -5.02965579e-03 -1.96098292e-03  2.29619541e-02  1.38561295e-01
 -1.72681807e-03 -1.23642770e-03 -5.02882375e-03  8.34538394e-08  1.51477557e-07
 -5.37975380e-08  9.44149017e-02  4.39319886e-07 -4.85569014e-07 -2.54459054e-07
  8.20692577e-02  8.87993306e-07 -8.49950706e-07 -1.37595524e-06  6.19791340e-01
 -1.08552640e-06 -2.82139204e-07 -1.37657441e-07  9.00983991e-04 -2.18450097e-07
  3.01353821e-03  4.41541099e-08 -1.27804611e-08 -2.13863481e-07 -1.01344036e-01
  1.61708305e-06  1.55617812e-06 -9.89615047e-07 -6.24331266e-02 -5.88134377e-07
 -1.80196264e-05  8.30572223e-07 -9.68879434e-01  1.43130740e-05 -2.08855680e-06
  6.69840420e-07 -1.99291784e-02 -1.22525807e-06 -1.01867824e-02 -3.86052483e-07
  1.19468935e-05 -1.04967732e-04  4.66843692e-07 -6.80340028e-03 -1.81864030e-06
 -1.43785789e-02  7.03495876e-02 -1.54148445e+00  4.72312863e-03  1.44378684e-02
  1.19703989e-02  1.43776024e-02 -7.03636805e-02  1.54161069e+00 -4.72400201e-03
  1.44404306e-02 -1.19706048e-02  8.26812595e-03 -6.36076639e-02  1.18318232e+00
  1.08481475e-03 -6.36211331e-03  6.79354705e-03 -8.26755549e-03  6.36154764e-02
 -1.18319274e+00 -1.08516912e-03 -6.36167278e-03 -6.79427248e-03  2.50545757e-02
  4.12226542e-02  1.37500028e-01  4.57878687e-08  1.23495064e-02 -4.22871671e-02
  1.57535911e-01 -3.04275210e-08  3.12981806e-03 -1.56498370e+00  1.22491154e+00
  1.61686496e-06 -8.30621917e-02  7.19292388e-03  1.33570098e-03 -3.69644152e-08
  5.75217284e-03  2.48593724e-08 -1.20732812e-02 -1.84661777e-02  8.55096314e-02
 -2.66796433e-07 -1.04410499e-02 -3.20647434e-02  4.52590267e-02 -4.73720810e-07
 -1.98308164e-03  1.14637982e+00  2.22009210e+00 -6.93422994e-06 -1.89607686e-01
  1.10410439e-02  8.12466792e-03 -1.40162768e-07 -2.08167423e-02  2.76306553e-07
  1.04035176e-02  1.32147554e-01  4.48578788e-01  5.85246683e-04 -2.49463376e-07
  6.27605416e-03  2.20070071e-02  2.18257766e-01  9.99985386e-02 -4.54375804e-04
 -8.54896146e-04 -9.96376629e-04  2.20065977e-02  2.18253297e-01  1.00030075e-01
 -4.54176220e-04  8.54929328e-04 -9.96264472e-04 -4.31261710e-03  1.50163477e-01
 -5.80049322e-01 -1.14529241e-02  1.98925188e-02 -5.50259522e-03 -4.31276273e-03
  1.50160994e-01 -5.80046671e-01 -1.14528901e-02 -1.98923976e-02 -5.50282986e-03
 -5.04216605e-07 -9.00112318e-07  5.93806999e-07  9.82908940e-03 -2.00384854e-06
  1.76884969e-06  1.51791378e-06  3.94746248e-02 -1.69932722e-06  1.93580937e-05
  3.92983439e-06 -5.00294219e-01 -9.03232419e-06  5.26254722e-07 -2.84741589e-07
 -1.24369876e-02  4.48251406e-07 -2.53567265e-02  2.36993829e-07  1.63220047e-07
  8.23726039e-07  5.69907140e-03  2.02518552e-06  1.57382665e-06 -8.91661104e-07
  7.32722371e-02  1.25551953e-06  3.11735439e-05 -7.04761397e-06  1.82408992e+00
  6.42035412e-05 -2.33081845e-06 -9.18556462e-07 -2.62610123e-02 -2.87347057e-06
 -2.44968423e-02 -7.61784119e-07 -8.18533939e-06 -1.27557618e-06  7.61126067e-07
  1.36343096e-02  4.20877536e-07  5.08453593e-02  1.24827193e+00 -1.59281411e-01
  3.73734372e-02  5.22767213e-02  2.33943468e-02 -5.08443420e-02 -1.24827425e+00
  1.59251057e-01 -3.73745175e-02  5.22819467e-02 -2.33913413e-02  3.84435141e-02
 -1.08172443e-01  3.28220391e-01  4.41539241e-02 -7.20184977e-03  1.14484104e-02
 -3.84453809e-02  1.08137217e-01 -3.28207759e-01 -4.41522357e-02 -7.20143377e-03
 -1.14462703e-02  7.65726682e-03  1.32677036e-02 -1.25818505e-02  1.57416873e-06
  5.35812030e-02 -6.90962942e-02 -3.20949733e-02  5.05914866e-06  7.25953115e-02
  1.19515768e-01  2.27862987e-01  3.92544944e-05  6.16548234e-01  6.77389019e-03
  2.29336348e-02 -2.11383194e-07 -3.41485924e-03 -6.32422521e-07 -2.87667408e-03
 -6.43111438e-03  1.60734234e-02  1.37368734e-06 -2.37719492e-02  6.00656187e-02
  4.73232930e-02  8.03874212e-06 -8.35994995e-02 -1.09389426e-01 -2.10483921e-03
  6.55265409e-05 -1.91569138e+00 -1.74001375e-02  4.09193688e-02  2.17075252e-07
 -6.48102182e-03 -1.46714150e-06  5.56315954e-02  1.48210066e+00  9.06670916e-03
  4.11644631e-02  2.80029983e-06 -6.53711301e-02 -2.46737189e-02 -6.72732958e-01
  2.70672295e-02 -1.64630811e-02 -1.52683040e-02 -2.99670874e-02 -2.46771786e-02
 -6.72749200e-01  2.70498922e-02 -1.64604226e-02  1.52727869e-02 -2.99674707e-02
  2.35239363e-02 -2.31670851e-01  7.57209151e-02  2.50004859e-02 -2.05192943e-02
  9.60009762e-03  2.35173300e-02 -2.31789457e-01  7.57789219e-02  2.50029509e-02
  2.05239137e-02  9.60103840e-03 -3.61465738e-07 -6.05285097e-07 -1.17209520e-06
  7.73010388e-02 -3.21460228e-06  4.10042126e-06  3.82755099e-07  1.33076967e-01
 -5.82885326e-06 -2.16524018e-05 -3.11073536e-05  1.53508871e+00 -3.72595316e-05
 -3.19003359e-07 -1.68673764e-06  4.79626517e-03 -5.67175278e-07 -5.50425054e-03
  8.61738145e-07  1.80634719e-06 -2.77809920e-06  3.80443088e-02  2.65109157e-06
 -1.11209051e-05 -9.04114856e-06  9.72868715e-02  7.77453756e-06 -7.13294622e-06
  4.20151810e-06 -9.34779760e-01  9.07322094e-05  2.13446345e-06 -9.23242462e-07
  2.62297971e-03  2.01151006e-06  4.36330820e-02 -1.35436613e-06 -6.44230487e-05
 -2.34765154e-05 -3.12217425e-06 -1.96481605e-04  2.89078623e-06  3.79315703e-02
 -1.33101027e-01 -1.72667754e-01 -5.87272156e-02 -8.83961488e-03 -2.52868502e-03
 -3.79292137e-02  1.33179712e-01  1.72681702e-01  5.87285512e-02 -8.84123374e-03
  2.53102839e-03  6.42886406e-02  1.43472251e+00 -6.84482346e-01 -2.81663975e-02
  3.61809052e-02 -5.98573958e-03 -6.42896758e-02 -1.43466079e+00  6.84470411e-01
  2.81614160e-02  3.61790216e-02  5.98308489e-03  9.92569472e-03  1.79135106e-02
 -7.56675071e-02 -1.44830964e-06 -2.76003731e-02  2.93284778e-02 -5.81048785e-02
 -2.20357863e-06 -8.10300027e-02 -1.52220880e+00 -8.62992359e-01 -3.43476400e-05
 -8.14927504e-01  1.16344576e-02 -7.99413325e-03 -1.37033465e-07 -2.55094702e-02
 -6.01842004e-07  2.65176795e-02  5.49229722e-02 -1.24110659e-01  8.91858211e-07
 -2.76305052e-02 -3.77262148e-01 -4.51677054e-01  4.00806468e-06 -7.89552544e-02
  4.20464153e-01  6.02968210e-01  4.44938581e-05  3.86093817e-01 -4.14638323e-04
 -2.31166487e-02 -1.89567522e-06  7.61255584e-03 -6.21647981e-07  4.18297704e-02
  7.03919280e-02 -2.65296501e-01 -6.05789134e-02 -3.94207412e-07  1.48704687e-02
 -8.56369911e-03 -3.02719632e-02  7.85661756e-02 -1.17503866e-02 -2.32996842e-03
 -9.77028360e-03 -8.56364477e-03 -3.03122971e-02  7.85359304e-02 -1.17540295e-02
  2.33324694e-03 -9.77044390e-03  4.22301242e-02  1.33742308e+00 -3.17343092e-01
 -5.79639505e-02  3.63274844e-02 -2.20743597e-02  4.22308761e-02  1.33747556e+00
 -3.17372376e-01 -5.79668809e-02 -3.63290157e-02 -2.20743121e-02  5.72660362e-02
  1.02420400e-01  7.52098902e-02  1.20113406e-06 -4.38200354e-02 -3.10689356e-01
 -3.69128391e-03  2.64709397e-06 -8.74506784e-02 -1.06707903e+00  5.02887174e-01
  2.00006217e-06 -5.38181836e-01 -4.37767000e-02  3.27829098e-03 -1.72327997e-07
  3.68709117e-02 -3.05751191e-07 -5.52960541e-02 -1.07388695e-01  1.63183901e-01
 -1.66926768e-06 -3.16116263e-02  3.60680183e-01  5.27009867e-01 -3.23608843e-06
 -1.13444037e-01  1.91601572e+00 -3.81168518e-01  2.41608669e-05  3.61269921e-01
  2.01758946e-02 -1.90331292e-02 -8.83305403e-07 -4.99947825e-02  8.58079848e-08
 -8.44626457e-03 -7.83812740e-01 -6.39227359e-02 -1.42899650e-02 -5.18263459e-07
  1.43875440e-02 -2.92083532e-02 -7.35850122e-01  1.24109219e-01  2.75555980e-02
 -7.36907880e-03 -2.46524645e-03 -2.92082964e-02 -7.35864138e-01  1.24067574e-01