 Entering Gaussian System, Link 0=g09
 Input=methanol-sp-6-1-2-3-341.com
 Output=methanol-sp-6-1-2-3-341.log
 Initial command:
 /opt/g09gh/gaussian/g09/l1.exe /scratch/bdw2292/Gau-methanol/Gau-41291.inp -scrdir=/scratch/bdw2292/Gau-methanol/
 Entering Link 1 = /opt/g09gh/gaussian/g09/l1.exe PID=     41292.
  
 Copyright (c) 1988,1990,1992,1993,1995,1998,2003,2009, Gaussian, Inc.
                  All Rights Reserved.
  
 This is part of the Gaussian(R) 09 program.  It is based on
 the Gaussian(R) 03 system (copyright 2003, Gaussian, Inc.),
 the Gaussian(R) 98 system (copyright 1998, Gaussian, Inc.),
 the Gaussian(R) 94 system (copyright 1995, Gaussian, Inc.),
 the Gaussian 92(TM) system (copyright 1992, Gaussian, Inc.),
 the Gaussian 90(TM) system (copyright 1990, Gaussian, Inc.),
 the Gaussian 88(TM) system (copyright 1988, Gaussian, Inc.),
 the Gaussian 86(TM) system (copyright 1986, Carnegie Mellon
 University), and the Gaussian 82(TM) system (copyright 1983,
 Carnegie Mellon University). Gaussian is a federally registered
 trademark of Gaussian, Inc.
  
 This software contains proprietary and confidential information,
 including trade secrets, belonging to Gaussian, Inc.
  
 This software is provided under written license and may be
 used, copied, transmitted, or stored only in accord with that
 written license.
  
 The following legend is applicable only to US Government
 contracts under FAR:
  
                    RESTRICTED RIGHTS LEGEND
  
 Use, reproduction and disclosure by the US Government is
 subject to restrictions as set forth in subparagraphs (a)
 and (c) of the Commercial Computer Software - Restricted
 Rights clause in FAR 52.227-19.
  
 Gaussian, Inc.
 340 Quinnipiac St., Bldg. 40, Wallingford CT 06492
  
  
 ---------------------------------------------------------------
 Warning -- This program may not be used in any manner that
 competes with the business of Gaussian, Inc. or will provide
 assistance to any competitor of Gaussian, Inc.  The licensee
 of this program is prohibited from giving any competitor of
 Gaussian, Inc. access to this program.  By using this program,
 the user acknowledges that Gaussian, Inc. is engaged in the
 business of creating and licensing software in the field of
 computational chemistry and represents and warrants to the
 licensee that it is not a competitor of Gaussian, Inc. and that
 it will not use this program in any manner prohibited above.
 ---------------------------------------------------------------
  

 Cite this work as:
 Gaussian 09, Revision A.02,
 M. J. Frisch, G. W. Trucks, H. B. Schlegel, G. E. Scuseria, 
 M. A. Robb, J. R. Cheeseman, G. Scalmani, V. Barone, B. Mennucci, 
 G. A. Petersson, H. Nakatsuji, M. Caricato, X. Li, H. P. Hratchian, 
 A. F. Izmaylov, J. Bloino, G. Zheng, J. L. Sonnenberg, M. Hada, 
 M. Ehara, K. Toyota, R. Fukuda, J. Hasegawa, M. Ishida, T. Nakajima, 
 Y. Honda, O. Kitao, H. Nakai, T. Vreven, J. A. Montgomery, Jr., 
 J. E. Peralta, F. Ogliaro, M. Bearpark, J. J. Heyd, E. Brothers, 
 K. N. Kudin, V. N. Staroverov, R. Kobayashi, J. Normand, 
 K. Raghavachari, A. Rendell, J. C. Burant, S. S. Iyengar, J. Tomasi, 
 M. Cossi, N. Rega, J. M. Millam, M. Klene, J. E. Knox, J. B. Cross, 
 V. Bakken, C. Adamo, J. Jaramillo, R. Gomperts, R. E. Stratmann, 
 O. Yazyev, A. J. Austin, R. Cammi, C. Pomelli, J. W. Ochterski, 
 R. L. Martin, K. Morokuma, V. G. Zakrzewski, G. A. Voth, 
 P. Salvador, J. J. Dannenberg, S. Dapprich, A. D. Daniels, 
 O. Farkas, J. B. Foresman, J. V. Ortiz, J. Cioslowski, 
 and D. J. Fox, Gaussian, Inc., Wallingford CT, 2009.
 
 ******************************************
 Gaussian 09:  EM64L-G09RevA.02 11-Jun-2009
                29-Dec-2019 
 ******************************************
 %RWF=/scratch/bdw2292/Gau-methanol/,100GB
 %Nosave
 %Chk=methanol-sp-6-1-2-3-341.chk
 %Mem=700MB
 %Nproc=1
 Will use up to    1 processors via shared memory.
 ----------------------------------------------------------------------
 #P MP2/6-311++G(2d,2p) SP SCF=(qc,maxcycle=800) Guess=Indo MaxDisk=100
 GB SCRF=(PCM)
 ----------------------------------------------------------------------
 1/38=1/1;
 2/12=2,17=6,18=5,40=1/2;
 3/5=4,6=6,7=1212,11=9,16=1,25=1,30=1,70=2201,72=1/1,2,3;
 4/5=4,11=3/1;
 5/5=2,7=800,8=3,38=5/8;
 8/10=2/1;
 9/16=-3/6;
 6/7=2,8=2,9=2,10=2/1;
 99/5=1,9=1/99;
 Leave Link    1 at Sun Dec 29 12:29:14 2019, MaxMem=   91750400 cpu:       0.0
 (Enter /opt/g09gh/gaussian/g09/l101.exe)
 ---------------------------------------------------------------
 methanol Rotatable Bond SP Calculation on node36.bme.utexas.edu
 ---------------------------------------------------------------
 Symbolic Z-matrix:
 Charge =  0 Multiplicity = 1
 O                    -0.74226   0.06298  -0.22287 
 C                     0.679    -0.01329  -0.03812 
 H                     0.8907   -0.63003   0.84055 
 H                     1.0671    1.00304   0.07661 
 H                     1.1068   -0.47998  -0.93099 
 H                    -1.12615  -0.68098   0.27486 
 
 NAtoms=      6 NQM=      6 NQMF=      0 NMic=      0 NMicF=      0 NTot=      6.
                    Isotopes and Nuclear Properties:
 (Nuclear quadrupole moments (NQMom) in fm**2, nuclear magnetic moments (NMagM)
  in nuclear magnetons)

  Atom         1           2           3           4           5           6
 IAtWgt=          16          12           1           1           1           1
 AtmWgt=  15.9949146  12.0000000   1.0078250   1.0078250   1.0078250   1.0078250
 NucSpn=           0           0           1           1           1           1
 AtZEff=   0.0000000   0.0000000   0.0000000   0.0000000   0.0000000   0.0000000
 NQMom=    0.0000000   0.0000000   0.0000000   0.0000000   0.0000000   0.0000000
 NMagM=    0.0000000   0.0000000   2.7928460   2.7928460   2.7928460   2.7928460
 Leave Link  101 at Sun Dec 29 12:29:14 2019, MaxMem=   91750400 cpu:       0.1
 (Enter /opt/g09gh/gaussian/g09/l202.exe)
                          Input orientation:                          
 ---------------------------------------------------------------------
 Center     Atomic      Atomic             Coordinates (Angstroms)
 Number     Number       Type             X           Y           Z
 ---------------------------------------------------------------------
      1          8           0       -0.742263    0.062984   -0.222869
      2          6           0        0.678996   -0.013289   -0.038118
      3          1           0        0.890701   -0.630034    0.840551
      4          1           0        1.067099    1.003036    0.076605
      5          1           0        1.106802   -0.479982   -0.930990
      6          1           0       -1.126147   -0.680983    0.274859
 ---------------------------------------------------------------------
                    Distance matrix (angstroms):
                    1          2          3          4          5
     1  O    0.000000
     2  C    1.435245   0.000000
     3  H    2.068262   1.094190   0.000000
     4  H    2.060867   1.093939   1.811532   0.000000
     5  H    2.053117   1.094550   1.790970   1.793367   0.000000
     6  H    0.973954   1.949952   2.095299   2.772283   2.545689
                    6
     6  H    0.000000
 Stoichiometry    CH4O
 Framework group  C1[X(CH4O)]
 Deg. of freedom    12
 Full point group                 C1      NOp   1
 Largest Abelian subgroup         C1      NOp   1
 Largest concise Abelian subgroup C1      NOp   1
                         Standard orientation:                         
 ---------------------------------------------------------------------
 Center     Atomic      Atomic             Coordinates (Angstroms)
 Number     Number       Type             X           Y           Z
 ---------------------------------------------------------------------
      1          8           0       -0.750197   -0.130401    0.001260
      2          6           0        0.677203    0.019390   -0.003356
      3          1           0        0.928084    1.024305   -0.356142
      4          1           0        1.103354   -0.754961   -0.647930
      5          1           0        1.029640   -0.111893    1.024551
      6          1           0       -1.122719    0.769420   -0.010423
 ---------------------------------------------------------------------
 Rotational constants (GHZ):    124.4375031     24.6863542     23.7098691
 Leave Link  202 at Sun Dec 29 12:29:14 2019, MaxMem=   91750400 cpu:       0.0
 (Enter /opt/g09gh/gaussian/g09/l301.exe)
 Standard basis: 6-311++G(2d,2p) (5D, 7F)
 Ernie: Thresh=  0.10000D-02 Tol=  0.10000D-05 Strict=F.
 There are    94 symmetry adapted basis functions of A   symmetry.
 Integral buffers will be    131072 words long.
 Raffenetti 1 integral format.
 Two-electron integral symmetry is turned on.
    94 basis functions,   132 primitive gaussians,    98 cartesian basis functions
     9 alpha electrons        9 beta electrons
       nuclear repulsion energy        40.0744965104 Hartrees.
 IExCor=    0 DFT=F Ex=HF Corr=None ExCW=0 ScaHFX=  1.000000
 ScaDFX=  1.000000  1.000000  1.000000  1.000000 ScalE2=  1.000000  1.000000
 IRadAn=      0 IRanWt=     -1 IRanGd=            0 ICorTp=0
 NAtoms=    6 NActive=    6 NUniq=    6 SFac= 7.50D-01 NAtFMM=   80 NAOKFM=F Big=F
 ------------------------------------------------------------------------------
 Polarizable Continuum Model (PCM)
 =================================
 Model                : PCM.
 Atomic radii         : UFF (Universal Force Field).
 Polarization charges : Total charges.
 Charge compensation  : None.
 Solution method      : Matrix inversion.
 Cavity type          : Scaled VdW (van der Waals Surface) (Alpha=1.100).
 Cavity algorithm     : GePol (No added spheres)
                        Default sphere list used, NSphG=    6.
                        Lebedev-Laikov grids with approx.  5.0 points / Ang**2.
                        Smoothing algorithm: Karplus/York (Gamma=1.0000).
                        Polarization charges: spherical gaussians, with
                                              point-specific exponents (IZeta= 3).
                        Self-potential: point-specific (ISelfS= 7).
                        Self-field    : sphere-specific E.n sum rule (ISelfD= 2).
 Solvent              : Water, Eps=  78.355300 Eps(inf)=   1.777849
 ------------------------------------------------------------------------------
 Spheres list:
 ISph  on   Nord    Re0     Alpha      Xe            Ye            Ze
    1   O      1    1.750   1.100     -0.750197     -0.130401      0.001260
    2   C      2    1.926   1.100      0.677203      0.019390     -0.003356
    3   H      3    1.443   1.100      0.928084      1.024305     -0.356142
    4   H      4    1.443   1.100      1.103354     -0.754961     -0.647930
    5   H      5    1.443   1.100      1.029640     -0.111893      1.024551
    6   H      6    1.443   1.100     -1.122719      0.769420     -0.010423
 ------------------------------------------------------------------------------
 GePol: Number of generator spheres                  =       6
 GePol: Total number of spheres                      =       6
 GePol: Number of exposed spheres                    =       6 (100.00%)
 GePol: Number of points                             =     609
 GePol: Average weight of points                     =       0.14
 GePol: Minimum weight of points                     =   0.12D-07
 GePol: Maximum weight of points                     =    0.20577
 GePol: Number of points with low weight             =      24
 GePol: Fraction of low-weight points (<1% of avg)   =       3.94%
 GePol: Cavity surface area                          =     83.843 Ang**2
 GePol: Cavity volume                                =     65.241 Ang**3
 Leave Link  301 at Sun Dec 29 12:29:14 2019, MaxMem=   91750400 cpu:       0.1
 (Enter /opt/g09gh/gaussian/g09/l302.exe)
 NPDir=0 NMtPBC=     1 NCelOv=     1 NCel=       1 NClECP=     1 NCelD=      1
         NCelK=      1 NCelE2=     1 NClLst=     1 CellRange=     0.0.
 One-electron integrals computed using PRISM.
 NBasis=    94 RedAO= T  NBF=    94
 NBsUse=    94 1.00D-06 NBFU=    94
 Leave Link  302 at Sun Dec 29 12:29:15 2019, MaxMem=   91750400 cpu:       0.2
 (Enter /opt/g09gh/gaussian/g09/l303.exe)
 DipDrv:  MaxL=1.
 Leave Link  303 at Sun Dec 29 12:29:15 2019, MaxMem=   91750400 cpu:       0.0
 (Enter /opt/g09gh/gaussian/g09/l401.exe)
 Projected INDO guess.
 Initial guess orbital symmetries:
       Occupied  (A) (A) (A) (A) (A) (A) (A) (A) (A)
       Virtual   (A) (A) (A) (A) (A) (A) (A) (A) (A) (A) (A) (A)
                 (A) (A) (A) (A) (A) (A) (A) (A) (A) (A) (A) (A)
                 (A) (A) (A) (A) (A) (A) (A) (A) (A) (A) (A) (A)
                 (A) (A) (A) (A) (A) (A) (A) (A) (A) (A) (A) (A)
                 (A) (A) (A) (A) (A) (A) (A) (A) (A) (A) (A) (A)
                 (A) (A) (A) (A) (A) (A) (A) (A) (A) (A) (A) (A)
                 (A) (A) (A) (A) (A) (A) (A) (A) (A) (A) (A) (A)
                 (A)
 The electronic state of the initial guess is 1-A.
 Leave Link  401 at Sun Dec 29 12:29:15 2019, MaxMem=   91750400 cpu:       0.1
 (Enter /opt/g09gh/gaussian/g09/l508.exe)
 Direct SCF.
 Tight linear equation convergence will be used.
 RHF wavefunction.
 Quadratic Convergence SCF Method.
 Line search only if initial step raises energy.
 Integral symmetry usage will be decided dynamically.
 ReadGW:  IGet=1 IStart=           2 Next=           2 LGW=           0.
 Keep R1 ints in memory in canonical form, NReq=15228716.
 Symmetry not used in FoFDir.
 MinBra= 0 MaxBra= 2 Meth= 1.
 IRaf=       0 NMat=   1 IRICut=       1 DoRegI=T DoRafI=F ISym2E= 0 JSym2E=0.
 Iteration   1 EE= -114.498024832734                                    Grad=2.171D+00
 Gradient too large for Newton-Raphson -- use scaled steepest descent instead.
     ILin= 1 X=0.000D+00 Y=-1.144980248327D+02 DE= 0.00D+00
     ILin= 2 X=3.000D-01 Y=-1.147754098998D+02 DE=-2.77D-01
     ILin= 3 X=4.243D-01 Y=-1.148638562949D+02 DE=-3.66D-01
     ILin= 4 X=6.000D-01 Y=-1.149620958206D+02 DE=-4.64D-01
     ILin= 5 X=8.485D-01 Y=-1.150467324504D+02 DE=-5.49D-01
     ILin= 6 X=1.200D+00 Y=-1.150564720275D+02 DE=-5.58D-01
     ILin= 7 X=1.697D+00 Y=-1.148480876663D+02 DE=-3.50D-01
     An  expanding polynomial of degree  7 produced  1.0508
 Iteration   2 EE= -115.068164178888     Delta-E=       -0.570139346154 Grad=1.807D-01
 Gradient too large for Newton-Raphson -- use scaled steepest descent instead.
     ILin= 1 X=0.000D+00 Y=-1.150681641789D+02 DE= 0.00D+00
     ILin= 2 X=1.051D+00 Y=-1.150821478766D+02 DE=-1.40D-02
     ILin= 3 X=1.486D+00 Y=-1.150738384994D+02 DE=-5.67D-03
     An  expanding polynomial of degree  3 produced  0.8306
 Iteration   3 EE= -115.083230314991     Delta-E=       -0.015066136103 Grad=6.940D-02
 Gradient too large for Newton-Raphson -- use scaled steepest descent instead.
     ILin= 1 X=0.000D+00 Y=-1.150832303150D+02 DE= 0.00D+00
     ILin= 2 X=8.306D-01 Y=-1.150861804969D+02 DE=-2.95D-03
     ILin= 3 X=1.175D+00 Y=-1.150861541485D+02 DE=-2.92D-03
     An  expanding polynomial of degree  3 produced  0.9903
 Iteration   4 EE= -115.086259940436     Delta-E=       -0.003029625445 Grad=3.704D-02
 Gradient too large for Newton-Raphson -- use scaled steepest descent instead.
     ILin= 1 X=0.000D+00 Y=-1.150862599404D+02 DE= 0.00D+00
     ILin= 2 X=9.903D-01 Y=-1.150869896463D+02 DE=-7.30D-04
     ILin= 3 X=1.400D+00 Y=-1.150866930771D+02 DE=-4.33D-04
     An  expanding polynomial of degree  3 produced  0.8486
 Iteration   5 EE= -115.087010714459     Delta-E=       -0.000750774023 Grad=1.747D-02
 Gradient too large for Newton-Raphson -- use scaled steepest descent instead.
     ILin= 1 X=0.000D+00 Y=-1.150870107145D+02 DE= 0.00D+00
     ILin= 2 X=8.486D-01 Y=-1.150872073847D+02 DE=-1.97D-04
     ILin= 3 X=1.200D+00 Y=-1.150872009435D+02 DE=-1.90D-04
     An  expanding polynomial of degree  3 produced  0.9803
 Iteration   6 EE= -115.087211018483     Delta-E=       -0.000200304024 Grad=9.934D-03
 QCNR:  CnvC1=3.91D-09 CnvC2=3.91D-08
 LinEq1:  Iter=  0 NonCon=     1 RMS=1.90D-04 Max=1.57D-03
 AX will form     1 AO Fock derivatives at one time.
 LinEq1:  Iter=  1 NonCon=     1 RMS=1.11D-04 Max=1.05D-03
 LinEq1:  Iter=  2 NonCon=     1 RMS=4.30D-06 Max=3.10D-05
 LinEq1:  Iter=  3 NonCon=     1 RMS=1.40D-06 Max=9.28D-06
 LinEq1:  Iter=  4 NonCon=     1 RMS=1.92D-07 Max=1.48D-06
 LinEq1:  Iter=  5 NonCon=     1 RMS=1.69D-08 Max=1.37D-07
 LinEq1:  Iter=  6 NonCon=     0 RMS=1.54D-09 Max=1.02D-08
 Linear equations converged to 3.912D-09 3.912D-08 after     6 iterations.
 Angle between quadratic step and gradient=  46.55 degrees.
     ILin= 1 X=0.000D+00 Y=-1.150872110185D+02 DE= 0.00D+00
     ILin= 2 X=1.000D+00 Y=-1.150872863152D+02 DE=-7.53D-05
     ILin= 3 X=1.414D+00 Y=-1.150872736107D+02 DE=-6.26D-05
     An  expanding polynomial of degree  3 produced  1.0024
 Iteration   7 EE= -115.087286315516     Delta-E=       -0.000075297033 Grad=2.224D-05
 QCNR:  CnvC1=2.22D-10 CnvC2=2.22D-09
 LinEq1:  Iter=  0 NonCon=     1 RMS=3.78D-07 Max=3.09D-06
 LinEq1:  Iter=  1 NonCon=     1 RMS=7.61D-08 Max=6.07D-07
 LinEq1:  Iter=  2 NonCon=     1 RMS=2.51D-08 Max=2.35D-07
 LinEq1:  Iter=  3 NonCon=     1 RMS=4.49D-09 Max=3.21D-08
 LinEq1:  Iter=  4 NonCon=     1 RMS=9.13D-10 Max=4.88D-09
 LinEq1:  Iter=  5 NonCon=     1 RMS=2.36D-10 Max=2.01D-09
 LinEq1:  Iter=  6 NonCon=     0 RMS=5.54D-11 Max=3.18D-10
 Linear equations converged to 2.224D-10 2.224D-09 after     6 iterations.
 Angle between quadratic step and gradient=  43.00 degrees.
     ILin= 1 X=0.000D+00 Y=-1.150872863155D+02 DE= 0.00D+00
     ILin= 2 X=1.000D+00 Y=-1.150872863158D+02 DE=-3.29D-10
 Iteration   8 EE= -115.087286315845     Delta-E=       -0.000000000329 Grad=8.734D-09
 Error on total polarization charges =  0.00639
 Rotation gradient small -- convergence achieved.
 SCF Done:  E(RHF) =  -115.087286316     a.u. after    8 cycles
            Convg  =    0.8734D-08                    36 Fock formations.
              S**2 =  0.0000                  -V/T =  2.0016
 Leave Link  508 at Sun Dec 29 12:29:26 2019, MaxMem=   91750400 cpu:      10.9
 (Enter /opt/g09gh/gaussian/g09/l801.exe)
 ExpMin= 3.60D-02 ExpMax= 8.59D+03 ExpMxC= 1.30D+03 IAcc=3 IRadAn=         5 AccDes= 0.00D+00
 HarFok:  IExCor=  205 AccDes= 0.00D+00 IRadAn=         5 IDoV=-2
 ScaDFX=  1.000000  1.000000  1.000000  1.000000
 Largest valence mixing into a core orbital is  1.37D-04
 Largest core mixing into a valence orbital is  3.63D-05
 Range of M.O.s used for correlation:     3    94
 NBasis=    94 NAE=     9 NBE=     9 NFC=     2 NFV=     0
 NROrb=     92 NOA=     7 NOB=     7 NVA=    85 NVB=    85

 **** Warning!!: The largest alpha MO coefficient is  0.15671114D+02

 Leave Link  801 at Sun Dec 29 12:29:26 2019, MaxMem=   91750400 cpu:       0.4
 (Enter /opt/g09gh/gaussian/g09/l906.exe)
 FulOut=F Deriv=F AODrv=F NAtomX=     6
   MMem=        1402  MDisk=           7 MDiskD=           7
  W3Min=       58310 MinDsk=      182258 NBas6D=          98
 NBas2D=        4983    NTT=        4851    LW2=     2000000
    MDV=    91690351 MDiskM=       12711 NBas2p=        4983
 Fully in-core method, ICMem=    31042459.
 IMap=   1   2   3   4   5   6   7
 JobTyp=1 Pass  1 fully in-core, NPsUse=  1.
 Compute canonical integrals, IntTyp=   4.
 Symmetry not used in FoFDir.
 MinBra= 0 MaxBra= 2 Meth= 1.
 IRaf=       0 NMat=   1 IRICut=       1 DoRegI=T DoRafI=F ISym2E= 0 JSym2E=0.
 Spin components of T(2) and E(2):
     alpha-alpha T2 =       0.1322156707D-01 E2=     -0.4652647138D-01
     alpha-beta  T2 =       0.8255970851D-01 E2=     -0.2992465336D+00
     beta-beta   T2 =       0.1322156707D-01 E2=     -0.4652647138D-01
 The integrals were generated   1 times.
 ANorm=    0.1053092039D+01
 E2 =    -0.3922994764D+00 EUMP2 =    -0.11547958579224D+03
 Leave Link  906 at Sun Dec 29 12:29:28 2019, MaxMem=   91750400 cpu:       1.9
 (Enter /opt/g09gh/gaussian/g09/l601.exe)
 Copying SCF densities to generalized density rwf, IOpCl= 0 IROHF=0.

 **********************************************************************

            Population analysis using the SCF density.

 **********************************************************************

 Orbital symmetries:
       Occupied  (A) (A) (A) (A) (A) (A) (A) (A) (A)
       Virtual   (A) (A) (A) (A) (A) (A) (A) (A) (A) (A) (A) (A)
                 (A) (A) (A) (A) (A) (A) (A) (A) (A) (A) (A) (A)
                 (A) (A) (A) (A) (A) (A) (A) (A) (A) (A) (A) (A)
                 (A) (A) (A) (A) (A) (A) (A) (A) (A) (A) (A) (A)
                 (A) (A) (A) (A) (A) (A) (A) (A) (A) (A) (A) (A)
                 (A) (A) (A) (A) (A) (A) (A) (A) (A) (A) (A) (A)
                 (A) (A) (A) (A) (A) (A) (A) (A) (A) (A) (A) (A)
                 (A)
 The electronic state is 1-A.
 Alpha  occ. eigenvalues --  -20.56151 -11.27054  -1.35458  -0.92091  -0.68838
 Alpha  occ. eigenvalues --   -0.61931  -0.59348  -0.50804  -0.45202
 Alpha virt. eigenvalues --    0.04442   0.06815   0.07727   0.08008   0.12679
 Alpha virt. eigenvalues --    0.15356   0.15773   0.18640   0.25221   0.27257
 Alpha virt. eigenvalues --    0.28465   0.30350   0.30830   0.33135   0.34650
 Alpha virt. eigenvalues --    0.38943   0.46397   0.56043   0.57200   0.66762
 Alpha virt. eigenvalues --    0.71094   0.72777   0.75149   0.76459   0.78774
 Alpha virt. eigenvalues --    0.79069   0.89257   0.98161   1.04726   1.09550
 Alpha virt. eigenvalues --    1.14513   1.21562   1.22100   1.26152   1.29824
 Alpha virt. eigenvalues --    1.30591   1.34461   1.39301   1.50005   1.53625
 Alpha virt. eigenvalues --    1.54621   1.65330   1.67063   1.68290   1.76747
 Alpha virt. eigenvalues --    1.81613   2.11693   2.23798   2.29721   2.52729
 Alpha virt. eigenvalues --    2.54875   2.88593   2.91865   3.09702   3.19819
 Alpha virt. eigenvalues --    3.49746   3.50563   3.65492   3.67493   3.77766
 Alpha virt. eigenvalues --    3.94510   3.97359   4.01338   4.13568   4.14898
 Alpha virt. eigenvalues --    4.20415   4.31733   4.41391   4.44702   4.46506
 Alpha virt. eigenvalues --    4.47626   4.58094   4.76965   5.43572   5.45190
 Alpha virt. eigenvalues --    5.59681   5.97057   6.46000   7.46597   7.55706
 Alpha virt. eigenvalues --    7.63834   7.71540   8.00633  25.11499  51.63730
          Condensed to atoms (all electrons):
              1          2          3          4          5          6
     1  O    8.277663   0.154842  -0.029382  -0.055384  -0.057969   0.275207
     2  C    0.154842   4.414527   0.434573   0.439649   0.436564  -0.022213
     3  H   -0.029382   0.434573   0.626289  -0.028298  -0.031557  -0.015573
     4  H   -0.055384   0.439649  -0.028298   0.636314  -0.046580   0.006300
     5  H   -0.057969   0.436564  -0.031557  -0.046580   0.651440   0.002831
     6  H    0.275207  -0.022213  -0.015573   0.006300   0.002831   0.467746
 Mulliken atomic charges:
              1
     1  O   -0.564977
     2  C    0.142058
     3  H    0.043948
     4  H    0.048000
     5  H    0.045270
     6  H    0.285702
 Sum of Mulliken atomic charges =   0.00000
 Mulliken charges with hydrogens summed into heavy atoms:
              1
     1  O   -0.279275
     2  C    0.279275
 Sum of Mulliken charges with hydrogens summed into heavy atoms =   0.00000
 Electronic spatial extent (au):  <R**2>=             84.5837
 Charge=              0.0000 electrons
 Dipole moment (field-independent basis, Debye):
    X=              1.2505    Y=              1.9692    Z=             -0.0485  Tot=              2.3332
 Quadrupole moment (field-independent basis, Debye-Ang):
   XX=            -13.1543   YY=            -11.8818   ZZ=            -13.7446
   XY=             -2.4463   XZ=             -0.0430   YZ=             -0.0046
 Traceless Quadrupole moment (field-independent basis, Debye-Ang):
   XX=             -0.2274   YY=              1.0451   ZZ=             -0.8177
   XY=             -2.4463   XZ=             -0.0430   YZ=             -0.0046
 Octapole moment (field-independent basis, Debye-Ang**2):
  XXX=             -3.4024  YYY=              2.3020  ZZZ=              0.5556  XYY=             -1.6357
  XXY=              2.8621  XXZ=             -0.1405  XZZ=              0.1148  YZZ=              0.0343
  YYZ=             -0.6334  XYZ=              0.1165
 Hexadecapole moment (field-independent basis, Debye-Ang**3):
 XXXX=            -62.4217 YYYY=            -19.4333 ZZZZ=            -19.5515 XXXY=             -4.3475
 XXXZ=             -0.1722 YYYX=             -2.2490 YYYZ=             -0.1225 ZZZX=              0.5606
 ZZZY=              0.0478 XXYY=            -12.4895 XXZZ=            -14.3634 YYZZ=             -6.7691
 XXYZ=              0.1449 YYXZ=             -0.6823 ZZXY=             -0.8476
 N-N= 4.007449651039D+01 E-N=-3.513526097086D+02  KE= 1.149047173328D+02
 Leave Link  601 at Sun Dec 29 12:29:28 2019, MaxMem=   91750400 cpu:       0.1
 (Enter /opt/g09gh/gaussian/g09/l9999.exe)
 1\1\GINC-NODE36\SP\RMP2-FC\6-311++G(2d,2p)\C1H4O1\BDW2292\29-Dec-2019\
 0\\#P MP2/6-311++G(2d,2p) SP SCF=(qc,maxcycle=800) Guess=Indo MaxDisk=
 100GB SCRF=(PCM)\\methanol Rotatable Bond SP Calculation on node36.bme
 .utexas.edu\\0,1\O,0,-0.742263,0.062984,-0.222869\C,0,0.678996,-0.0132
 89,-0.038118\H,0,0.890701,-0.630034,0.840551\H,0,1.067099,1.003036,0.0
 76605\H,0,1.106802,-0.479982,-0.93099\H,0,-1.126147,-0.680983,0.274859
 \\Version=EM64L-G09RevA.02\State=1-A\HF=-115.0872863\MP2=-115.4795858\
 RMSD=0.000e+00\PG=C01 [X(C1H4O1)]\\@


 Once you get people laughing, they're
 listening and you can tell them almost anything.
                                 -- Herb Gardner
 Job cpu time:  0 days  0 hours  0 minutes 13.9 seconds.
 File lengths (MBytes):  RWF=     12 Int=      0 D2E=      0 Chk=      2 Scr=      1
 Normal termination of Gaussian 09 at Sun Dec 29 12:29:28 2019.
