6
methanol-opt-6-1-2-3-009.log	Energy:  -72203.5790800
O         -0.73592        0.11949       -0.00008
C          0.65518       -0.01965       -0.00002
H          1.01212       -0.54457       -0.88284
H          1.01131       -0.54223        0.88443
H          1.07635        0.97518       -0.00101
H         -1.14348       -0.72638        0.00019
