6
methanol-opt-6-1-2-3-037.log	Energy:  -72203.5791189
O          0.73584        0.11949        0.00000
C         -0.65516       -0.01964        0.00000
H         -1.01149       -0.54261        0.88415
H         -1.01136       -0.54428       -0.88321
H         -1.07620        0.97520       -0.00098
H          1.14324       -0.72638        0.00001
