 Entering Gaussian System, Link 0=g09
 Input=methanol-sp-6-1-2-3-009.com
 Output=methanol-sp-6-1-2-3-009.log
 Initial command:
 /opt/g09gh/gaussian/g09/l1.exe /scratch/bdw2292/Gau-methanol/Gau-41289.inp -scrdir=/scratch/bdw2292/Gau-methanol/
 Entering Link 1 = /opt/g09gh/gaussian/g09/l1.exe PID=     41290.
  
 Copyright (c) 1988,1990,1992,1993,1995,1998,2003,2009, Gaussian, Inc.
                  All Rights Reserved.
  
 This is part of the Gaussian(R) 09 program.  It is based on
 the Gaussian(R) 03 system (copyright 2003, Gaussian, Inc.),
 the Gaussian(R) 98 system (copyright 1998, Gaussian, Inc.),
 the Gaussian(R) 94 system (copyright 1995, Gaussian, Inc.),
 the Gaussian 92(TM) system (copyright 1992, Gaussian, Inc.),
 the Gaussian 90(TM) system (copyright 1990, Gaussian, Inc.),
 the Gaussian 88(TM) system (copyright 1988, Gaussian, Inc.),
 the Gaussian 86(TM) system (copyright 1986, Carnegie Mellon
 University), and the Gaussian 82(TM) system (copyright 1983,
 Carnegie Mellon University). Gaussian is a federally registered
 trademark of Gaussian, Inc.
  
 This software contains proprietary and confidential information,
 including trade secrets, belonging to Gaussian, Inc.
  
 This software is provided under written license and may be
 used, copied, transmitted, or stored only in accord with that
 written license.
  
 The following legend is applicable only to US Government
 contracts under FAR:
  
                    RESTRICTED RIGHTS LEGEND
  
 Use, reproduction and disclosure by the US Government is
 subject to restrictions as set forth in subparagraphs (a)
 and (c) of the Commercial Computer Software - Restricted
 Rights clause in FAR 52.227-19.
  
 Gaussian, Inc.
 340 Quinnipiac St., Bldg. 40, Wallingford CT 06492
  
  
 ---------------------------------------------------------------
 Warning -- This program may not be used in any manner that
 competes with the business of Gaussian, Inc. or will provide
 assistance to any competitor of Gaussian, Inc.  The licensee
 of this program is prohibited from giving any competitor of
 Gaussian, Inc. access to this program.  By using this program,
 the user acknowledges that Gaussian, Inc. is engaged in the
 business of creating and licensing software in the field of
 computational chemistry and represents and warrants to the
 licensee that it is not a competitor of Gaussian, Inc. and that
 it will not use this program in any manner prohibited above.
 ---------------------------------------------------------------
  

 Cite this work as:
 Gaussian 09, Revision A.02,
 M. J. Frisch, G. W. Trucks, H. B. Schlegel, G. E. Scuseria, 
 M. A. Robb, J. R. Cheeseman, G. Scalmani, V. Barone, B. Mennucci, 
 G. A. Petersson, H. Nakatsuji, M. Caricato, X. Li, H. P. Hratchian, 
 A. F. Izmaylov, J. Bloino, G. Zheng, J. L. Sonnenberg, M. Hada, 
 M. Ehara, K. Toyota, R. Fukuda, J. Hasegawa, M. Ishida, T. Nakajima, 
 Y. Honda, O. Kitao, H. Nakai, T. Vreven, J. A. Montgomery, Jr., 
 J. E. Peralta, F. Ogliaro, M. Bearpark, J. J. Heyd, E. Brothers, 
 K. N. Kudin, V. N. Staroverov, R. Kobayashi, J. Normand, 
 K. Raghavachari, A. Rendell, J. C. Burant, S. S. Iyengar, J. Tomasi, 
 M. Cossi, N. Rega, J. M. Millam, M. Klene, J. E. Knox, J. B. Cross, 
 V. Bakken, C. Adamo, J. Jaramillo, R. Gomperts, R. E. Stratmann, 
 O. Yazyev, A. J. Austin, R. Cammi, C. Pomelli, J. W. Ochterski, 
 R. L. Martin, K. Morokuma, V. G. Zakrzewski, G. A. Voth, 
 P. Salvador, J. J. Dannenberg, S. Dapprich, A. D. Daniels, 
 O. Farkas, J. B. Foresman, J. V. Ortiz, J. Cioslowski, 
 and D. J. Fox, Gaussian, Inc., Wallingford CT, 2009.
 
 ******************************************
 Gaussian 09:  EM64L-G09RevA.02 11-Jun-2009
                29-Dec-2019 
 ******************************************
 %RWF=/scratch/bdw2292/Gau-methanol/,100GB
 %Nosave
 %Chk=methanol-sp-6-1-2-3-009.chk
 %Mem=700MB
 %Nproc=1
 Will use up to    1 processors via shared memory.
 ----------------------------------------------------------------------
 #P MP2/6-311++G(2d,2p) SP SCF=(qc,maxcycle=800) Guess=Indo MaxDisk=100
 GB SCRF=(PCM)
 ----------------------------------------------------------------------
 1/38=1/1;
 2/12=2,17=6,18=5,40=1/2;
 3/5=4,6=6,7=1212,11=9,16=1,25=1,30=1,70=2201,72=1/1,2,3;
 4/5=4,11=3/1;
 5/5=2,7=800,8=3,38=5/8;
 8/10=2/1;
 9/16=-3/6;
 6/7=2,8=2,9=2,10=2/1;
 99/5=1,9=1/99;
 Leave Link    1 at Sun Dec 29 12:29:00 2019, MaxMem=   91750400 cpu:       0.0
 (Enter /opt/g09gh/gaussian/g09/l101.exe)
 ---------------------------------------------------------------
 methanol Rotatable Bond SP Calculation on node36.bme.utexas.edu
 ---------------------------------------------------------------
 Symbolic Z-matrix:
 Charge =  0 Multiplicity = 1
 O                    -0.73747   0.01982   0.27061 
 C                     0.68093  -0.03285   0.05685 
 H                     0.88619  -0.64745  -0.82483 
 H                     1.15021  -0.44386   0.95553 
 H                     1.03031   0.99008  -0.1149 
 H                    -1.13462  -0.62387  -0.34293 
 
 NAtoms=      6 NQM=      6 NQMF=      0 NMic=      0 NMicF=      0 NTot=      6.
                    Isotopes and Nuclear Properties:
 (Nuclear quadrupole moments (NQMom) in fm**2, nuclear magnetic moments (NMagM)
  in nuclear magnetons)

  Atom         1           2           3           4           5           6
 IAtWgt=          16          12           1           1           1           1
 AtmWgt=  15.9949146  12.0000000   1.0078250   1.0078250   1.0078250   1.0078250
 NucSpn=           0           0           1           1           1           1
 AtZEff=   0.0000000   0.0000000   0.0000000   0.0000000   0.0000000   0.0000000
 NQMom=    0.0000000   0.0000000   0.0000000   0.0000000   0.0000000   0.0000000
 NMagM=    0.0000000   0.0000000   2.7928460   2.7928460   2.7928460   2.7928460
 Leave Link  101 at Sun Dec 29 12:29:00 2019, MaxMem=   91750400 cpu:       0.1
 (Enter /opt/g09gh/gaussian/g09/l202.exe)
                          Input orientation:                          
 ---------------------------------------------------------------------
 Center     Atomic      Atomic             Coordinates (Angstroms)
 Number     Number       Type             X           Y           Z
 ---------------------------------------------------------------------
      1          8           0       -0.737474    0.019822    0.270611
      2          6           0        0.680932   -0.032853    0.056846
      3          1           0        0.886193   -0.647452   -0.824827
      4          1           0        1.150214   -0.443863    0.955529
      5          1           0        1.030312    0.990080   -0.114899
      6          1           0       -1.134619   -0.623869   -0.342930
 ---------------------------------------------------------------------
                    Distance matrix (angstroms):
                    1          2          3          4          5
     1  O    0.000000
     2  C    1.435390   0.000000
     3  H    2.069187   1.094172   0.000000
     4  H    2.060942   1.093977   1.811304   0.000000
     5  H    2.053067   1.094511   1.790609   1.793428   0.000000
     6  H    0.973907   1.950730   2.077610   2.634172   2.709936
                    6
     6  H    0.000000
 Stoichiometry    CH4O
 Framework group  C1[X(CH4O)]
 Deg. of freedom    12
 Full point group                 C1      NOp   1
 Largest Abelian subgroup         C1      NOp   1
 Largest concise Abelian subgroup C1      NOp   1
                         Standard orientation:                         
 ---------------------------------------------------------------------
 Center     Atomic      Atomic             Coordinates (Angstroms)
 Number     Number       Type             X           Y           Z
 ---------------------------------------------------------------------
      1          8           0        0.750266   -0.130006   -0.003978
      2          6           0       -0.677176    0.020680    0.003158
      3          1           0       -0.924756    1.079031   -0.122575
      4          1           0       -1.061218   -0.375922    0.947618
      5          1           0       -1.077381   -0.555911   -0.836683
      6          1           0        1.124284    0.768768    0.024511
 ---------------------------------------------------------------------
 Rotational constants (GHZ):    124.4799735     24.6553818     23.7216730
 Leave Link  202 at Sun Dec 29 12:29:00 2019, MaxMem=   91750400 cpu:       0.0
 (Enter /opt/g09gh/gaussian/g09/l301.exe)
 Standard basis: 6-311++G(2d,2p) (5D, 7F)
 Ernie: Thresh=  0.10000D-02 Tol=  0.10000D-05 Strict=F.
 There are    94 symmetry adapted basis functions of A   symmetry.
 Integral buffers will be    131072 words long.
 Raffenetti 1 integral format.
 Two-electron integral symmetry is turned on.
    94 basis functions,   132 primitive gaussians,    98 cartesian basis functions
     9 alpha electrons        9 beta electrons
       nuclear repulsion energy        40.0710207238 Hartrees.
 IExCor=    0 DFT=F Ex=HF Corr=None ExCW=0 ScaHFX=  1.000000
 ScaDFX=  1.000000  1.000000  1.000000  1.000000 ScalE2=  1.000000  1.000000
 IRadAn=      0 IRanWt=     -1 IRanGd=            0 ICorTp=0
 NAtoms=    6 NActive=    6 NUniq=    6 SFac= 7.50D-01 NAtFMM=   80 NAOKFM=F Big=F
 ------------------------------------------------------------------------------
 Polarizable Continuum Model (PCM)
 =================================
 Model                : PCM.
 Atomic radii         : UFF (Universal Force Field).
 Polarization charges : Total charges.
 Charge compensation  : None.
 Solution method      : Matrix inversion.
 Cavity type          : Scaled VdW (van der Waals Surface) (Alpha=1.100).
 Cavity algorithm     : GePol (No added spheres)
                        Default sphere list used, NSphG=    6.
                        Lebedev-Laikov grids with approx.  5.0 points / Ang**2.
                        Smoothing algorithm: Karplus/York (Gamma=1.0000).
                        Polarization charges: spherical gaussians, with
                                              point-specific exponents (IZeta= 3).
                        Self-potential: point-specific (ISelfS= 7).
                        Self-field    : sphere-specific E.n sum rule (ISelfD= 2).
 Solvent              : Water, Eps=  78.355300 Eps(inf)=   1.777849
 ------------------------------------------------------------------------------
 Spheres list:
 ISph  on   Nord    Re0     Alpha      Xe            Ye            Ze
    1   O      1    1.750   1.100      0.750266     -0.130006     -0.003978
    2   C      2    1.926   1.100     -0.677176      0.020680      0.003158
    3   H      3    1.443   1.100     -0.924756      1.079031     -0.122575
    4   H      4    1.443   1.100     -1.061218     -0.375922      0.947618
    5   H      5    1.443   1.100     -1.077381     -0.555911     -0.836683
    6   H      6    1.443   1.100      1.124284      0.768768      0.024511
 ------------------------------------------------------------------------------
 GePol: Number of generator spheres                  =       6
 GePol: Total number of spheres                      =       6
 GePol: Number of exposed spheres                    =       6 (100.00%)
 GePol: Number of points                             =     614
 GePol: Average weight of points                     =       0.14
 GePol: Minimum weight of points                     =   0.19D-06
 GePol: Maximum weight of points                     =    0.20577
 GePol: Number of points with low weight             =      32
 GePol: Fraction of low-weight points (<1% of avg)   =       5.21%
 GePol: Cavity surface area                          =     83.886 Ang**2
 GePol: Cavity volume                                =     65.262 Ang**3
 Leave Link  301 at Sun Dec 29 12:29:00 2019, MaxMem=   91750400 cpu:       0.1
 (Enter /opt/g09gh/gaussian/g09/l302.exe)
 NPDir=0 NMtPBC=     1 NCelOv=     1 NCel=       1 NClECP=     1 NCelD=      1
         NCelK=      1 NCelE2=     1 NClLst=     1 CellRange=     0.0.
 One-electron integrals computed using PRISM.
 NBasis=    94 RedAO= T  NBF=    94
 NBsUse=    94 1.00D-06 NBFU=    94
 Leave Link  302 at Sun Dec 29 12:29:01 2019, MaxMem=   91750400 cpu:       0.1
 (Enter /opt/g09gh/gaussian/g09/l303.exe)
 DipDrv:  MaxL=1.
 Leave Link  303 at Sun Dec 29 12:29:01 2019, MaxMem=   91750400 cpu:       0.1
 (Enter /opt/g09gh/gaussian/g09/l401.exe)
 Projected INDO guess.
 Initial guess orbital symmetries:
       Occupied  (A) (A) (A) (A) (A) (A) (A) (A) (A)
       Virtual   (A) (A) (A) (A) (A) (A) (A) (A) (A) (A) (A) (A)
                 (A) (A) (A) (A) (A) (A) (A) (A) (A) (A) (A) (A)
                 (A) (A) (A) (A) (A) (A) (A) (A) (A) (A) (A) (A)
                 (A) (A) (A) (A) (A) (A) (A) (A) (A) (A) (A) (A)
                 (A) (A) (A) (A) (A) (A) (A) (A) (A) (A) (A) (A)
                 (A) (A) (A) (A) (A) (A) (A) (A) (A) (A) (A) (A)
                 (A) (A) (A) (A) (A) (A) (A) (A) (A) (A) (A) (A)
                 (A)
 The electronic state of the initial guess is 1-A.
 Leave Link  401 at Sun Dec 29 12:29:01 2019, MaxMem=   91750400 cpu:       0.1
 (Enter /opt/g09gh/gaussian/g09/l508.exe)
 Direct SCF.
 Tight linear equation convergence will be used.
 RHF wavefunction.
 Quadratic Convergence SCF Method.
 Line search only if initial step raises energy.
 Integral symmetry usage will be decided dynamically.
 ReadGW:  IGet=1 IStart=           2 Next=           2 LGW=           0.
 Keep R1 ints in memory in canonical form, NReq=15235564.
 Symmetry not used in FoFDir.
 MinBra= 0 MaxBra= 2 Meth= 1.
 IRaf=       0 NMat=   1 IRICut=       1 DoRegI=T DoRafI=F ISym2E= 0 JSym2E=0.
 Iteration   1 EE= -114.497426063994                                    Grad=2.171D+00
 Gradient too large for Newton-Raphson -- use scaled steepest descent instead.
     ILin= 1 X=0.000D+00 Y=-1.144974260640D+02 DE= 0.00D+00
     ILin= 2 X=3.000D-01 Y=-1.147749408564D+02 DE=-2.78D-01
     ILin= 3 X=4.243D-01 Y=-1.148634337019D+02 DE=-3.66D-01
     ILin= 4 X=6.000D-01 Y=-1.149617308084D+02 DE=-4.64D-01
     ILin= 5 X=8.485D-01 Y=-1.150464313998D+02 DE=-5.49D-01
     ILin= 6 X=1.200D+00 Y=-1.150562238888D+02 DE=-5.59D-01
     ILin= 7 X=1.697D+00 Y=-1.148478362689D+02 DE=-3.50D-01
     An  expanding polynomial of degree  7 produced  1.0510
 Iteration   2 EE= -115.067899124616     Delta-E=       -0.570473060622 Grad=1.809D-01
 Gradient too large for Newton-Raphson -- use scaled steepest descent instead.
     ILin= 1 X=0.000D+00 Y=-1.150678991246D+02 DE= 0.00D+00
     ILin= 2 X=1.051D+00 Y=-1.150819263014D+02 DE=-1.40D-02
     ILin= 3 X=1.486D+00 Y=-1.150736066331D+02 DE=-5.71D-03
     An  expanding polynomial of degree  3 produced  0.8311
 Iteration   3 EE= -115.083007581457     Delta-E=       -0.015108456841 Grad=6.953D-02
 Gradient too large for Newton-Raphson -- use scaled steepest descent instead.
     ILin= 1 X=0.000D+00 Y=-1.150830075815D+02 DE= 0.00D+00
     ILin= 2 X=8.311D-01 Y=-1.150859674756D+02 DE=-2.96D-03
     ILin= 3 X=1.175D+00 Y=-1.150859384225D+02 DE=-2.93D-03
     An  expanding polynomial of degree  3 produced  0.9896
 Iteration   4 EE= -115.086046161399     Delta-E=       -0.003038579943 Grad=3.709D-02
 Gradient too large for Newton-Raphson -- use scaled steepest descent instead.
     ILin= 1 X=0.000D+00 Y=-1.150860461614D+02 DE= 0.00D+00
     ILin= 2 X=9.896D-01 Y=-1.150867785213D+02 DE=-7.32D-04
     ILin= 3 X=1.399D+00 Y=-1.150864825608D+02 DE=-4.36D-04
     An  expanding polynomial of degree  3 produced  0.8490
 Iteration   5 EE= -115.086799311799     Delta-E=       -0.000753150400 Grad=1.751D-02
 Gradient too large for Newton-Raphson -- use scaled steepest descent instead.
     ILin= 1 X=0.000D+00 Y=-1.150867993118D+02 DE= 0.00D+00
     ILin= 2 X=8.490D-01 Y=-1.150869967523D+02 DE=-1.97D-04
     ILin= 3 X=1.201D+00 Y=-1.150869901203D+02 DE=-1.91D-04
     An  expanding polynomial of degree  3 produced  0.9798
 Iteration   6 EE= -115.087000349779     Delta-E=       -0.000201037980 Grad=9.953D-03
 QCNR:  CnvC1=3.91D-09 CnvC2=3.91D-08
 LinEq1:  Iter=  0 NonCon=     1 RMS=1.90D-04 Max=1.62D-03
 AX will form     1 AO Fock derivatives at one time.
 LinEq1:  Iter=  1 NonCon=     1 RMS=1.11D-04 Max=1.20D-03
 LinEq1:  Iter=  2 NonCon=     1 RMS=4.34D-06 Max=3.10D-05
 LinEq1:  Iter=  3 NonCon=     1 RMS=1.41D-06 Max=9.38D-06
 LinEq1:  Iter=  4 NonCon=     1 RMS=1.93D-07 Max=1.51D-06
 LinEq1:  Iter=  5 NonCon=     1 RMS=1.68D-08 Max=1.40D-07
 LinEq1:  Iter=  6 NonCon=     0 RMS=1.50D-09 Max=1.17D-08
 Linear equations converged to 3.912D-09 3.912D-08 after     6 iterations.
 Angle between quadratic step and gradient=  46.56 degrees.
     ILin= 1 X=0.000D+00 Y=-1.150870003498D+02 DE= 0.00D+00
     ILin= 2 X=1.000D+00 Y=-1.150870760059D+02 DE=-7.57D-05
     ILin= 3 X=1.414D+00 Y=-1.150870632408D+02 DE=-6.29D-05
     An  expanding polynomial of degree  3 produced  1.0024
 Iteration   7 EE= -115.087076006205     Delta-E=       -0.000075656426 Grad=2.233D-05
 QCNR:  CnvC1=2.23D-10 CnvC2=2.23D-09
 LinEq1:  Iter=  0 NonCon=     1 RMS=3.79D-07 Max=3.44D-06
 LinEq1:  Iter=  1 NonCon=     1 RMS=7.57D-08 Max=6.01D-07
 LinEq1:  Iter=  2 NonCon=     1 RMS=2.49D-08 Max=2.33D-07
 LinEq1:  Iter=  3 NonCon=     1 RMS=4.49D-09 Max=3.39D-08
 LinEq1:  Iter=  4 NonCon=     1 RMS=8.92D-10 Max=4.93D-09
 LinEq1:  Iter=  5 NonCon=     0 RMS=2.16D-10 Max=1.95D-09
 Linear equations converged to 2.233D-10 2.233D-09 after     5 iterations.
 Angle between quadratic step and gradient=  42.95 degrees.
     ILin= 1 X=0.000D+00 Y=-1.150870760062D+02 DE= 0.00D+00
     ILin= 2 X=1.000D+00 Y=-1.150870760065D+02 DE=-3.31D-10
 Iteration   8 EE= -115.087076006536     Delta-E=       -0.000000000331 Grad=3.513D-08
 Error on total polarization charges =  0.00639
 Rotation gradient small -- convergence achieved.
 SCF Done:  E(RHF) =  -115.087076007     a.u. after    8 cycles
            Convg  =    0.3513D-07                    35 Fock formations.
              S**2 =  0.0000                  -V/T =  2.0016
 Leave Link  508 at Sun Dec 29 12:29:12 2019, MaxMem=   91750400 cpu:      10.9
 (Enter /opt/g09gh/gaussian/g09/l801.exe)
 ExpMin= 3.60D-02 ExpMax= 8.59D+03 ExpMxC= 1.30D+03 IAcc=3 IRadAn=         5 AccDes= 0.00D+00
 HarFok:  IExCor=  205 AccDes= 0.00D+00 IRadAn=         5 IDoV=-2
 ScaDFX=  1.000000  1.000000  1.000000  1.000000
 Largest valence mixing into a core orbital is  1.37D-04
 Largest core mixing into a valence orbital is  3.63D-05
 Range of M.O.s used for correlation:     3    94
 NBasis=    94 NAE=     9 NBE=     9 NFC=     2 NFV=     0
 NROrb=     92 NOA=     7 NOB=     7 NVA=    85 NVB=    85

 **** Warning!!: The largest alpha MO coefficient is  0.15679008D+02

 Leave Link  801 at Sun Dec 29 12:29:12 2019, MaxMem=   91750400 cpu:       0.4
 (Enter /opt/g09gh/gaussian/g09/l906.exe)
 FulOut=F Deriv=F AODrv=F NAtomX=     6
   MMem=        1402  MDisk=           7 MDiskD=           7
  W3Min=       58310 MinDsk=      182258 NBas6D=          98
 NBas2D=        4983    NTT=        4851    LW2=     2000000
    MDV=    91690323 MDiskM=       12711 NBas2p=        4983
 Fully in-core method, ICMem=    31042459.
 IMap=   1   2   3   4   5   6   7
 JobTyp=1 Pass  1 fully in-core, NPsUse=  1.
 Compute canonical integrals, IntTyp=   4.
 Symmetry not used in FoFDir.
 MinBra= 0 MaxBra= 2 Meth= 1.
 IRaf=       0 NMat=   1 IRICut=       1 DoRegI=T DoRafI=F ISym2E= 0 JSym2E=0.
 Spin components of T(2) and E(2):
     alpha-alpha T2 =       0.1322510049D-01 E2=     -0.4653425243D-01
     alpha-beta  T2 =       0.8257096496D-01 E2=     -0.2992717041D+00
     beta-beta   T2 =       0.1322510049D-01 E2=     -0.4653425243D-01
 The integrals were generated   1 times.
 ANorm=    0.1053100739D+01
 E2 =    -0.3923402090D+00 EUMP2 =    -0.11547941621554D+03
 Leave Link  906 at Sun Dec 29 12:29:14 2019, MaxMem=   91750400 cpu:       1.8
 (Enter /opt/g09gh/gaussian/g09/l601.exe)
 Copying SCF densities to generalized density rwf, IOpCl= 0 IROHF=0.

 **********************************************************************

            Population analysis using the SCF density.

 **********************************************************************

 Orbital symmetries:
       Occupied  (A) (A) (A) (A) (A) (A) (A) (A) (A)
       Virtual   (A) (A) (A) (A) (A) (A) (A) (A) (A) (A) (A) (A)
                 (A) (A) (A) (A) (A) (A) (A) (A) (A) (A) (A) (A)
                 (A) (A) (A) (A) (A) (A) (A) (A) (A) (A) (A) (A)
                 (A) (A) (A) (A) (A) (A) (A) (A) (A) (A) (A) (A)
                 (A) (A) (A) (A) (A) (A) (A) (A) (A) (A) (A) (A)
                 (A) (A) (A) (A) (A) (A) (A) (A) (A) (A) (A) (A)
                 (A) (A) (A) (A) (A) (A) (A) (A) (A) (A) (A) (A)
                 (A)
 The electronic state is 1-A.
 Alpha  occ. eigenvalues --  -20.56143 -11.27050  -1.35447  -0.92096  -0.68836
 Alpha  occ. eigenvalues --   -0.62013  -0.59284  -0.50684  -0.45280
 Alpha virt. eigenvalues --    0.04442   0.06834   0.07723   0.07999   0.12711
 Alpha virt. eigenvalues --    0.15393   0.15682   0.18634   0.24767   0.27282
 Alpha virt. eigenvalues --    0.28630   0.30378   0.30870   0.33367   0.34777
 Alpha virt. eigenvalues --    0.38999   0.46457   0.56363   0.56949   0.66664
 Alpha virt. eigenvalues --    0.70577   0.72082   0.75063   0.76681   0.78263
 Alpha virt. eigenvalues --    0.78854   0.90324   0.98175   1.05055   1.11536
 Alpha virt. eigenvalues --    1.14760   1.21674   1.22061   1.23563   1.29533
 Alpha virt. eigenvalues --    1.30522   1.34556   1.39209   1.49894   1.53273
 Alpha virt. eigenvalues --    1.54371   1.65647   1.66575   1.68218   1.76578
 Alpha virt. eigenvalues --    1.82351   2.11510   2.24230   2.30645   2.52532
 Alpha virt. eigenvalues --    2.54986   2.88646   2.90608   3.08725   3.19264
 Alpha virt. eigenvalues --    3.49498   3.50905   3.65293   3.66858   3.80879
 Alpha virt. eigenvalues --    3.94452   3.97330   4.01275   4.12064   4.15353
 Alpha virt. eigenvalues --    4.19541   4.31905   4.41314   4.44670   4.45221
 Alpha virt. eigenvalues --    4.47660   4.59216   4.76946   5.43566   5.45531
 Alpha virt. eigenvalues --    5.59684   5.97033   6.46179   7.46034   7.56463
 Alpha virt. eigenvalues --    7.64461   7.71022   8.00532  25.11743  51.63848
          Condensed to atoms (all electrons):
              1          2          3          4          5          6
     1  O    8.281919   0.155557  -0.027794  -0.057099  -0.058937   0.274231
     2  C    0.155557   4.411059   0.433658   0.437977   0.439837  -0.021964
     3  H   -0.027794   0.433658   0.624313  -0.028280  -0.029708  -0.017029
     4  H   -0.057099   0.437977  -0.028280   0.645983  -0.049110   0.004498
     5  H   -0.058937   0.439837  -0.029708  -0.049110   0.646037   0.005785
     6  H    0.274231  -0.021964  -0.017029   0.004498   0.005785   0.467444
 Mulliken atomic charges:
              1
     1  O   -0.567876
     2  C    0.143875
     3  H    0.044840
     4  H    0.046031
     5  H    0.046096
     6  H    0.287035
 Sum of Mulliken atomic charges =   0.00000
 Mulliken charges with hydrogens summed into heavy atoms:
              1
     1  O   -0.280842
     2  C    0.280842
 Sum of Mulliken charges with hydrogens summed into heavy atoms =   0.00000
 Electronic spatial extent (au):  <R**2>=             84.6015
 Charge=              0.0000 electrons
 Dipole moment (field-independent basis, Debye):
    X=             -1.2455    Y=              1.9806    Z=              0.0476  Tot=              2.3402
 Quadrupole moment (field-independent basis, Debye-Ang):
   XX=            -13.1563   YY=            -11.9124   ZZ=            -13.7069
   XY=              2.4075   XZ=              0.1023   YZ=              0.0159
 Traceless Quadrupole moment (field-independent basis, Debye-Ang):
   XX=             -0.2311   YY=              1.0128   ZZ=             -0.7817
   XY=              2.4075   XZ=              0.1023   YZ=              0.0159
 Octapole moment (field-independent basis, Debye-Ang**2):
  XXX=              3.4345  YYY=              2.6447  ZZZ=              0.2189  XYY=              1.7091
  XXY=              2.9262  XXZ=              0.0529  XZZ=             -0.1870  YZZ=             -0.2866
  YYZ=             -0.1923  XYZ=              0.0767
 Hexadecapole moment (field-independent basis, Debye-Ang**3):
 XXXX=            -62.4754 YYYY=            -19.3592 ZZZZ=            -19.5480 XXXY=              4.2296
 XXXZ=              0.1903 YYYX=              1.8225 YYYZ=             -0.0423 ZZZX=             -0.1449
 ZZZY=              0.0112 XXYY=            -12.6099 XXZZ=            -14.2527 YYZZ=             -6.7881
 XXYZ=              0.0740 YYXZ=              0.3062 ZZXY=              1.1898
 N-N= 4.007102072375D+01 E-N=-3.513469023084D+02  KE= 1.149048336164D+02
 Leave Link  601 at Sun Dec 29 12:29:14 2019, MaxMem=   91750400 cpu:       0.0
 (Enter /opt/g09gh/gaussian/g09/l9999.exe)
 1\1\GINC-NODE36\SP\RMP2-FC\6-311++G(2d,2p)\C1H4O1\BDW2292\29-Dec-2019\
 0\\#P MP2/6-311++G(2d,2p) SP SCF=(qc,maxcycle=800) Guess=Indo MaxDisk=
 100GB SCRF=(PCM)\\methanol Rotatable Bond SP Calculation on node36.bme
 .utexas.edu\\0,1\O,0,-0.737474,0.019822,0.270611\C,0,0.680932,-0.03285
 3,0.056846\H,0,0.886193,-0.647452,-0.824827\H,0,1.150214,-0.443863,0.9
 55529\H,0,1.030312,0.99008,-0.114899\H,0,-1.134619,-0.623869,-0.34293\
 \Version=EM64L-G09RevA.02\State=1-A\HF=-115.087076\MP2=-115.4794162\RM
 SD=0.000e+00\PG=C01 [X(C1H4O1)]\\@


    THE DOUGHNUT CREED
 AS YOU RAMBLE ON THROUGH LIFE, BROTHER
 WHATEVER BE YOUR GOAL
 KEEP YOUR EYE UPON THE DOUGHNUT
 AND NOT UPON THE HOLE.
 Job cpu time:  0 days  0 hours  0 minutes 13.7 seconds.
 File lengths (MBytes):  RWF=     13 Int=      0 D2E=      0 Chk=      2 Scr=      1
 Normal termination of Gaussian 09 at Sun Dec 29 12:29:14 2019.
