 Entering Gaussian System, Link 0=g09
 Input=methanol-opt-6-1-2-3-229.com
 Output=methanol-opt-6-1-2-3-229.log
 Initial command:
 /opt/g09gh/gaussian/g09/l1.exe /scratch/bdw2292/Gau-methanol/Gau-40318.inp -scrdir=/scratch/bdw2292/Gau-methanol/
 Entering Link 1 = /opt/g09gh/gaussian/g09/l1.exe PID=     40319.
  
 Copyright (c) 1988,1990,1992,1993,1995,1998,2003,2009, Gaussian, Inc.
                  All Rights Reserved.
  
 This is part of the Gaussian(R) 09 program.  It is based on
 the Gaussian(R) 03 system (copyright 2003, Gaussian, Inc.),
 the Gaussian(R) 98 system (copyright 1998, Gaussian, Inc.),
 the Gaussian(R) 94 system (copyright 1995, Gaussian, Inc.),
 the Gaussian 92(TM) system (copyright 1992, Gaussian, Inc.),
 the Gaussian 90(TM) system (copyright 1990, Gaussian, Inc.),
 the Gaussian 88(TM) system (copyright 1988, Gaussian, Inc.),
 the Gaussian 86(TM) system (copyright 1986, Carnegie Mellon
 University), and the Gaussian 82(TM) system (copyright 1983,
 Carnegie Mellon University). Gaussian is a federally registered
 trademark of Gaussian, Inc.
  
 This software contains proprietary and confidential information,
 including trade secrets, belonging to Gaussian, Inc.
  
 This software is provided under written license and may be
 used, copied, transmitted, or stored only in accord with that
 written license.
  
 The following legend is applicable only to US Government
 contracts under FAR:
  
                    RESTRICTED RIGHTS LEGEND
  
 Use, reproduction and disclosure by the US Government is
 subject to restrictions as set forth in subparagraphs (a)
 and (c) of the Commercial Computer Software - Restricted
 Rights clause in FAR 52.227-19.
  
 Gaussian, Inc.
 340 Quinnipiac St., Bldg. 40, Wallingford CT 06492
  
  
 ---------------------------------------------------------------
 Warning -- This program may not be used in any manner that
 competes with the business of Gaussian, Inc. or will provide
 assistance to any competitor of Gaussian, Inc.  The licensee
 of this program is prohibited from giving any competitor of
 Gaussian, Inc. access to this program.  By using this program,
 the user acknowledges that Gaussian, Inc. is engaged in the
 business of creating and licensing software in the field of
 computational chemistry and represents and warrants to the
 licensee that it is not a competitor of Gaussian, Inc. and that
 it will not use this program in any manner prohibited above.
 ---------------------------------------------------------------
  

 Cite this work as:
 Gaussian 09, Revision A.02,
 M. J. Frisch, G. W. Trucks, H. B. Schlegel, G. E. Scuseria, 
 M. A. Robb, J. R. Cheeseman, G. Scalmani, V. Barone, B. Mennucci, 
 G. A. Petersson, H. Nakatsuji, M. Caricato, X. Li, H. P. Hratchian, 
 A. F. Izmaylov, J. Bloino, G. Zheng, J. L. Sonnenberg, M. Hada, 
 M. Ehara, K. Toyota, R. Fukuda, J. Hasegawa, M. Ishida, T. Nakajima, 
 Y. Honda, O. Kitao, H. Nakai, T. Vreven, J. A. Montgomery, Jr., 
 J. E. Peralta, F. Ogliaro, M. Bearpark, J. J. Heyd, E. Brothers, 
 K. N. Kudin, V. N. Staroverov, R. Kobayashi, J. Normand, 
 K. Raghavachari, A. Rendell, J. C. Burant, S. S. Iyengar, J. Tomasi, 
 M. Cossi, N. Rega, J. M. Millam, M. Klene, J. E. Knox, J. B. Cross, 
 V. Bakken, C. Adamo, J. Jaramillo, R. Gomperts, R. E. Stratmann, 
 O. Yazyev, A. J. Austin, R. Cammi, C. Pomelli, J. W. Ochterski, 
 R. L. Martin, K. Morokuma, V. G. Zakrzewski, G. A. Voth, 
 P. Salvador, J. J. Dannenberg, S. Dapprich, A. D. Daniels, 
 O. Farkas, J. B. Foresman, J. V. Ortiz, J. Cioslowski, 
 and D. J. Fox, Gaussian, Inc., Wallingford CT, 2009.
 
 ******************************************
 Gaussian 09:  EM64L-G09RevA.02 11-Jun-2009
                29-Dec-2019 
 ******************************************
 %RWF=/scratch/bdw2292/Gau-methanol/,100GB
 %Nosave
 %Chk=methanol-opt-6-1-2-3-229.chk
 %Mem=700MB
 %Nproc=1
 Will use up to    1 processors via shared memory.
 -----------------------------------------------
 #P opt=(,maxcycle=400) HF/6-311G* MaxDisk=100GB
 -----------------------------------------------
 1/6=400,18=20,19=15,38=1/1,3;
 2/9=110,12=2,17=6,18=5,40=1/2;
 3/5=4,6=6,7=1,11=9,16=1,25=1,30=1,71=1/1,2,3;
 4//1;
 5/5=2,38=5/2;
 6/7=2,8=2,9=2,10=2,28=1/1;
 7//1,2,3,16;
 1/6=400,18=20,19=15/3(2);
 2/9=110/2;
 99//99;
 2/9=110/2;
 3/5=4,6=6,7=1,11=9,16=1,25=1,30=1,71=1/1,2,3;
 4/5=5,16=3/1;
 5/5=2,38=5/2;
 7//1,2,3,16;
 1/6=400,18=20,19=15/3(-5);
 2/9=110/2;
 6/7=2,8=2,9=2,10=2,19=2,28=1/1;
 99/9=1/99;
 Leave Link    1 at Sun Dec 29 12:26:44 2019, MaxMem=   91750400 cpu:       0.0
 (Enter /opt/g09gh/gaussian/g09/l101.exe)
 -------------------------------------------------------------
 methanol Rotatable Bond Optimization on node36.bme.utexas.edu
 -------------------------------------------------------------
 Symbolic Z-matrix:
 Charge =  0 Multiplicity = 1
 O                     0.74404   0.11744  -0.01187 
 C                    -0.68546  -0.01203   0.00681 
 H                    -1.10011   0.63002  -0.77587 
 H                    -1.04423   0.26921   1.0013 
 H                    -0.94027  -1.05693  -0.19738 
 H                     1.10504  -0.7871   -0.00873 
 
 NAtoms=      6 NQM=      6 NQMF=      0 NMic=      0 NMicF=      0 NTot=      6.
                    Isotopes and Nuclear Properties:
 (Nuclear quadrupole moments (NQMom) in fm**2, nuclear magnetic moments (NMagM)
  in nuclear magnetons)

  Atom         1           2           3           4           5           6
 IAtWgt=          16          12           1           1           1           1
 AtmWgt=  15.9949146  12.0000000   1.0078250   1.0078250   1.0078250   1.0078250
 NucSpn=           0           0           1           1           1           1
 AtZEff=   0.0000000   0.0000000   0.0000000   0.0000000   0.0000000   0.0000000
 NQMom=    0.0000000   0.0000000   0.0000000   0.0000000   0.0000000   0.0000000
 NMagM=    0.0000000   0.0000000   2.7928460   2.7928460   2.7928460   2.7928460
 Leave Link  101 at Sun Dec 29 12:26:44 2019, MaxMem=   91750400 cpu:       0.1
 (Enter /opt/g09gh/gaussian/g09/l103.exe)

 GradGradGradGradGradGradGradGradGradGradGradGradGradGradGradGradGradGrad
 Berny optimization.
 Initialization pass.
                           ----------------------------
                           !    Initial Parameters    !
                           ! (Angstroms and Degrees)  !
 --------------------------                            --------------------------
 ! Name  Definition              Value          Derivative Info.                !
 --------------------------------------------------------------------------------
 ! R1    R(1,2)                  1.4355         estimate D2E/DX2                !
 ! R2    R(1,6)                  0.9739         estimate D2E/DX2                !
 ! R3    R(2,3)                  1.094          estimate D2E/DX2                !
 ! R4    R(2,4)                  1.094          estimate D2E/DX2                !
 ! R5    R(2,5)                  1.0947         estimate D2E/DX2                !
 ! A1    A(2,1,6)              106.5778         estimate D2E/DX2                !
 ! A2    A(1,2,3)              108.3737         estimate D2E/DX2                !
 ! A3    A(1,2,4)              108.3745         estimate D2E/DX2                !
 ! A4    A(1,2,5)              108.3879         estimate D2E/DX2                !
 ! A5    A(3,2,4)              112.0368         estimate D2E/DX2                !
 ! A6    A(3,2,5)              109.7866         estimate D2E/DX2                !
 ! A7    A(4,2,5)              109.7912         estimate D2E/DX2                !
 ! D1    D(6,1,2,3)           -131.1021         estimate D2E/DX2                !
 ! D2    D(6,1,2,4)            107.1001         estimate D2E/DX2                !
 ! D3    D(6,1,2,5)            -12.004          estimate D2E/DX2                !
 --------------------------------------------------------------------------------
 Trust Radius=3.00D-01 FncErr=1.00D-07 GrdErr=1.00D-07
 Number of steps in this run= 100 maximum allowed number of steps= 100.
 GradGradGradGradGradGradGradGradGradGradGradGradGradGradGradGradGradGrad

 Leave Link  103 at Sun Dec 29 12:26:44 2019, MaxMem=   91750400 cpu:       0.0
 (Enter /opt/g09gh/gaussian/g09/l202.exe)
                          Input orientation:                          
 ---------------------------------------------------------------------
 Center     Atomic      Atomic             Coordinates (Angstroms)
 Number     Number       Type             X           Y           Z
 ---------------------------------------------------------------------
      1          8           0        0.744040    0.117436   -0.011866
      2          6           0       -0.685460   -0.012030    0.006810
      3          1           0       -1.100106    0.630015   -0.775874
      4          1           0       -1.044234    0.269210    1.001296
      5          1           0       -0.940267   -1.056931   -0.197375
      6          1           0        1.105040   -0.787102   -0.008725
 ---------------------------------------------------------------------
                    Distance matrix (angstroms):
                    1          2          3          4          5
     1  O    0.000000
     2  C    1.435472   0.000000
     3  H    2.060903   1.093959   0.000000
     4  H    2.060936   1.093991   1.814286   0.000000
     5  H    2.061660   1.094731   1.790530   1.790606   0.000000
     6  H    0.973920   1.951120   2.731192   2.599099   2.071636
                    6
     6  H    0.000000
 Stoichiometry    CH4O
 Framework group  C1[X(CH4O)]
 Deg. of freedom    12
 Full point group                 C1      NOp   1
 Largest Abelian subgroup         C1      NOp   1
 Largest concise Abelian subgroup C1      NOp   1
                         Standard orientation:                         
 ---------------------------------------------------------------------
 Center     Atomic      Atomic             Coordinates (Angstroms)
 Number     Number       Type             X           Y           Z
 ---------------------------------------------------------------------
      1          8           0       -0.750507   -0.129948    0.001923
      2          6           0        0.677613    0.015154    0.000589
      3          1           0        1.090248   -0.641809   -0.770695
      4          1           0        1.050824   -0.237301    0.997483
      5          1           0        0.918621    1.057276   -0.232503
      6          1           0       -1.121315    0.770492   -0.013200
 ---------------------------------------------------------------------
 Rotational constants (GHZ):    124.4406051     24.6218820     23.7549853
 Leave Link  202 at Sun Dec 29 12:26:44 2019, MaxMem=   91750400 cpu:       0.0
 (Enter /opt/g09gh/gaussian/g09/l301.exe)
 Standard basis: 6-311G(d) (5D, 7F)
 Ernie: Thresh=  0.10000D-02 Tol=  0.10000D-05 Strict=F.
 There are    48 symmetry adapted basis functions of A   symmetry.
 Integral buffers will be    131072 words long.
 Raffenetti 1 integral format.
 Two-electron integral symmetry is turned on.
    48 basis functions,    84 primitive gaussians,    50 cartesian basis functions
     9 alpha electrons        9 beta electrons
       nuclear repulsion energy        40.0711311412 Hartrees.
 IExCor=    0 DFT=F Ex=HF Corr=None ExCW=0 ScaHFX=  1.000000
 ScaDFX=  1.000000  1.000000  1.000000  1.000000 ScalE2=  1.000000  1.000000
 IRadAn=      0 IRanWt=     -1 IRanGd=            0 ICorTp=0
 NAtoms=    6 NActive=    6 NUniq=    6 SFac= 7.50D-01 NAtFMM=   80 NAOKFM=F Big=F
 Leave Link  301 at Sun Dec 29 12:26:44 2019, MaxMem=   91750400 cpu:       0.1
 (Enter /opt/g09gh/gaussian/g09/l302.exe)
 NPDir=0 NMtPBC=     1 NCelOv=     1 NCel=       1 NClECP=     1 NCelD=      1
         NCelK=      1 NCelE2=     1 NClLst=     1 CellRange=     0.0.
 One-electron integrals computed using PRISM.
 NBasis=    48 RedAO= T  NBF=    48
 NBsUse=    48 1.00D-06 NBFU=    48
 Leave Link  302 at Sun Dec 29 12:26:44 2019, MaxMem=   91750400 cpu:       0.2
 (Enter /opt/g09gh/gaussian/g09/l303.exe)
 DipDrv:  MaxL=1.
 Leave Link  303 at Sun Dec 29 12:26:45 2019, MaxMem=   91750400 cpu:       0.0
 (Enter /opt/g09gh/gaussian/g09/l401.exe)
 Harris functional with IExCor=  205 diagonalized for initial guess.
 ExpMin= 1.03D-01 ExpMax= 8.59D+03 ExpMxC= 1.30D+03 IAcc=1 IRadAn=         1 AccDes= 0.00D+00
 HarFok:  IExCor=  205 AccDes= 0.00D+00 IRadAn=         1 IDoV= 1
 ScaDFX=  1.000000  1.000000  1.000000  1.000000
 FoFCou: FMM=F IPFlag=           0 FMFlag=      100000 FMFlg1=           0
         NFxFlg=           0 DoJE=T BraDBF=F KetDBF=T FulRan=T
         Omega=  0.000000  0.000000  1.000000  0.000000  0.000000 ICntrl=     500 IOpCl=  0
         NMat0=    1 NMatS0=    1 NMatT0=    0 NMatD0=    1 NMtDS0=    0 NMtDT0=    0
         I1Cent=           4 NGrid=           0.
 Petite list used in FoFCou.
 Harris En= -115.241877713994    
 Initial guess orbital symmetries:
       Occupied  (A) (A) (A) (A) (A) (A) (A) (A) (A)
       Virtual   (A) (A) (A) (A) (A) (A) (A) (A) (A) (A) (A) (A)
                 (A) (A) (A) (A) (A) (A) (A) (A) (A) (A) (A) (A)
                 (A) (A) (A) (A) (A) (A) (A) (A) (A) (A) (A) (A)
                 (A) (A) (A)
 The electronic state of the initial guess is 1-A.
 Leave Link  401 at Sun Dec 29 12:26:45 2019, MaxMem=   91750400 cpu:       0.3
 (Enter /opt/g09gh/gaussian/g09/l502.exe)
 Closed shell SCF:
 Requested convergence on RMS density matrix=1.00D-08 within 128 cycles.
 Requested convergence on MAX density matrix=1.00D-06.
 Requested convergence on             energy=1.00D-06.
 No special actions if energy rises.
 Using DIIS extrapolation, IDIIS=  1040.
 Integral symmetry usage will be decided dynamically.
 Keep R1 ints in memory in canonical form, NReq=1659792.
 IEnd=       26328 IEndB=       26328 NGot=    91750400 MDV=    90929785
 LenX=    90929785 LenY=    90926844
 Symmetry not used in FoFDir.
 MinBra= 0 MaxBra= 2 Meth= 1.
 IRaf=       0 NMat=   1 IRICut=       1 DoRegI=T DoRafI=F ISym2E= 0 JSym2E=0.

 Cycle   1  Pass 1  IDiag  1:
 E= -114.936958610157    
 DIIS: error= 5.90D-02 at cycle   1 NSaved=   1.
 NSaved= 1 IEnMin= 1 EnMin= -114.936958610157     IErMin= 1 ErrMin= 5.90D-02
 ErrMax= 5.90D-02 EMaxC= 1.00D-01 BMatC= 2.53D-01 BMatP= 2.53D-01
 IDIUse=3 WtCom= 4.10D-01 WtEn= 5.90D-01
 Coeff-Com:  0.100D+01
 Coeff-En:   0.100D+01
 Coeff:      0.100D+01
 Gap=     0.566 Goal=   None    Shift=    0.000
 GapD=    0.566 DampG=2.000 DampE=0.500 DampFc=1.0000 IDamp=-1.
 RMSDP=5.98D-03 MaxDP=8.19D-02              OVMax= 1.06D-01

 Cycle   2  Pass 1  IDiag  1:
 E= -115.033882177321     Delta-E=       -0.096923567164 Rises=F Damp=F
 DIIS: error= 2.71D-02 at cycle   2 NSaved=   2.
 NSaved= 2 IEnMin= 2 EnMin= -115.033882177321     IErMin= 2 ErrMin= 2.71D-02
 ErrMax= 2.71D-02 EMaxC= 1.00D-01 BMatC= 3.52D-02 BMatP= 2.53D-01
 IDIUse=3 WtCom= 7.29D-01 WtEn= 2.71D-01
 Coeff-Com:  0.218D+00 0.782D+00
 Coeff-En:   0.000D+00 0.100D+01
 Coeff:      0.159D+00 0.841D+00
 Gap=     0.628 Goal=   None    Shift=    0.000
 RMSDP=2.91D-03 MaxDP=4.57D-02 DE=-9.69D-02 OVMax= 4.11D-02

 Cycle   3  Pass 1  IDiag  1:
 E= -115.055732449773     Delta-E=       -0.021850272452 Rises=F Damp=F
 DIIS: error= 8.53D-03 at cycle   3 NSaved=   3.
 NSaved= 3 IEnMin= 3 EnMin= -115.055732449773     IErMin= 3 ErrMin= 8.53D-03
 ErrMax= 8.53D-03 EMaxC= 1.00D-01 BMatC= 3.82D-03 BMatP= 3.52D-02
 IDIUse=3 WtCom= 9.15D-01 WtEn= 8.53D-02
 Coeff-Com: -0.140D-01 0.224D+00 0.790D+00
 Coeff-En:   0.000D+00 0.000D+00 0.100D+01
 Coeff:     -0.128D-01 0.205D+00 0.808D+00
 Gap=     0.592 Goal=   None    Shift=    0.000
 RMSDP=6.62D-04 MaxDP=1.06D-02 DE=-2.19D-02 OVMax= 1.28D-02

 Cycle   4  Pass 1  IDiag  1:
 E= -115.058156487260     Delta-E=       -0.002424037487 Rises=F Damp=F
 DIIS: error= 1.36D-03 at cycle   4 NSaved=   4.
 NSaved= 4 IEnMin= 4 EnMin= -115.058156487260     IErMin= 4 ErrMin= 1.36D-03
 ErrMax= 1.36D-03 EMaxC= 1.00D-01 BMatC= 9.76D-05 BMatP= 3.82D-03
 IDIUse=3 WtCom= 9.86D-01 WtEn= 1.36D-02
 Coeff-Com: -0.674D-02 0.293D-01 0.200D+00 0.778D+00
 Coeff-En:   0.000D+00 0.000D+00 0.000D+00 0.100D+01
 Coeff:     -0.664D-02 0.289D-01 0.197D+00 0.781D+00
 Gap=     0.592 Goal=   None    Shift=    0.000
 RMSDP=1.31D-04 MaxDP=2.04D-03 DE=-2.42D-03 OVMax= 2.51D-03

 Cycle   5  Pass 1  IDiag  1:
 E= -115.058235120463     Delta-E=       -0.000078633202 Rises=F Damp=F
 DIIS: error= 3.64D-04 at cycle   5 NSaved=   5.
 NSaved= 5 IEnMin= 5 EnMin= -115.058235120463     IErMin= 5 ErrMin= 3.64D-04
 ErrMax= 3.64D-04 EMaxC= 1.00D-01 BMatC= 4.21D-06 BMatP= 9.76D-05
 IDIUse=3 WtCom= 9.96D-01 WtEn= 3.64D-03
 Coeff-Com:  0.119D-02-0.203D-01-0.720D-01-0.127D-01 0.110D+01
 Coeff-En:   0.000D+00 0.000D+00 0.000D+00 0.000D+00 0.100D+01
 Coeff:      0.119D-02-0.202D-01-0.718D-01-0.126D-01 0.110D+01
 Gap=     0.593 Goal=   None    Shift=    0.000
 RMSDP=5.37D-05 MaxDP=7.68D-04 DE=-7.86D-05 OVMax= 8.64D-04

 Cycle   6  Pass 1  IDiag  1:
 E= -115.058241605579     Delta-E=       -0.000006485116 Rises=F Damp=F
 DIIS: error= 4.94D-05 at cycle   6 NSaved=   6.
 NSaved= 6 IEnMin= 6 EnMin= -115.058241605579     IErMin= 6 ErrMin= 4.94D-05
 ErrMax= 4.94D-05 EMaxC= 1.00D-01 BMatC= 1.24D-07 BMatP= 4.21D-06
 IDIUse=1 WtCom= 1.00D+00 WtEn= 0.00D+00
 Coeff-Com:  0.242D-03-0.718D-03-0.419D-02-0.326D-01-0.885D-01 0.113D+01
 Coeff:      0.242D-03-0.718D-03-0.419D-02-0.326D-01-0.885D-01 0.113D+01
 Gap=     0.593 Goal=   None    Shift=    0.000
 RMSDP=1.21D-05 MaxDP=1.08D-04 DE=-6.49D-06 OVMax= 2.12D-04

 Cycle   7  Pass 1  IDiag  1:
 E= -115.058241883526     Delta-E=       -0.000000277947 Rises=F Damp=F
 DIIS: error= 1.07D-05 at cycle   7 NSaved=   7.
 NSaved= 7 IEnMin= 7 EnMin= -115.058241883526     IErMin= 7 ErrMin= 1.07D-05
 ErrMax= 1.07D-05 EMaxC= 1.00D-01 BMatC= 5.36D-09 BMatP= 1.24D-07
 IDIUse=1 WtCom= 1.00D+00 WtEn= 0.00D+00
 Coeff-Com: -0.103D-03 0.912D-03 0.392D-02 0.781D-02-0.153D-01-0.301D+00
 Coeff-Com:  0.130D+01
 Coeff:     -0.103D-03 0.912D-03 0.392D-02 0.781D-02-0.153D-01-0.301D+00
 Coeff:      0.130D+01
 Gap=     0.593 Goal=   None    Shift=    0.000
 RMSDP=2.87D-06 MaxDP=3.55D-05 DE=-2.78D-07 OVMax= 7.25D-05

 Cycle   8  Pass 1  IDiag  1:
 E= -115.058241897977     Delta-E=       -0.000000014451 Rises=F Damp=F
 DIIS: error= 1.94D-06 at cycle   8 NSaved=   8.
 NSaved= 8 IEnMin= 8 EnMin= -115.058241897977     IErMin= 8 ErrMin= 1.94D-06
 ErrMax= 1.94D-06 EMaxC= 1.00D-01 BMatC= 2.11D-10 BMatP= 5.36D-09
 IDIUse=1 WtCom= 1.00D+00 WtEn= 0.00D+00
 Coeff-Com:  0.173D-04-0.206D-03-0.925D-03-0.131D-02 0.625D-02 0.602D-01
 Coeff-Com: -0.423D+00 0.136D+01
 Coeff:      0.173D-04-0.206D-03-0.925D-03-0.131D-02 0.625D-02 0.602D-01
 Coeff:     -0.423D+00 0.136D+01
 Gap=     0.593 Goal=   None    Shift=    0.000
 RMSDP=7.21D-07 MaxDP=6.21D-06 DE=-1.45D-08 OVMax= 1.86D-05

 Cycle   9  Pass 1  IDiag  1:
 E= -115.058241898629     Delta-E=       -0.000000000653 Rises=F Damp=F
 DIIS: error= 4.76D-07 at cycle   9 NSaved=   9.
 NSaved= 9 IEnMin= 9 EnMin= -115.058241898629     IErMin= 9 ErrMin= 4.76D-07
 ErrMax= 4.76D-07 EMaxC= 1.00D-01 BMatC= 6.77D-12 BMatP= 2.11D-10
 IDIUse=1 WtCom= 1.00D+00 WtEn= 0.00D+00
 Coeff-Com: -0.199D-05 0.356D-04 0.176D-03 0.750D-04-0.193D-02-0.520D-02
 Coeff-Com:  0.787D-01-0.398D+00 0.133D+01
 Coeff:     -0.199D-05 0.356D-04 0.176D-03 0.750D-04-0.193D-02-0.520D-02
 Coeff:      0.787D-01-0.398D+00 0.133D+01
 Gap=     0.593 Goal=   None    Shift=    0.000
 RMSDP=1.10D-07 MaxDP=7.88D-07 DE=-6.53D-10 OVMax= 2.90D-06

 Cycle  10  Pass 1  IDiag  1:
 E= -115.058241898648     Delta-E=       -0.000000000019 Rises=F Damp=F
 DIIS: error= 8.91D-08 at cycle  10 NSaved=  10.
 NSaved=10 IEnMin=10 EnMin= -115.058241898648     IErMin=10 ErrMin= 8.91D-08
 ErrMax= 8.91D-08 EMaxC= 1.00D-01 BMatC= 2.36D-13 BMatP= 6.77D-12
 IDIUse=1 WtCom= 1.00D+00 WtEn= 0.00D+00
 Coeff-Com:  0.367D-07-0.363D-05-0.227D-04 0.217D-04 0.321D-03-0.394D-04
 Coeff-Com: -0.102D-01 0.696D-01-0.366D+00 0.131D+01
 Coeff:      0.367D-07-0.363D-05-0.227D-04 0.217D-04 0.321D-03-0.394D-04
 Coeff:     -0.102D-01 0.696D-01-0.366D+00 0.131D+01
 Gap=     0.593 Goal=   None    Shift=    0.000
 RMSDP=1.87D-08 MaxDP=1.80D-07 DE=-1.86D-11 OVMax= 4.00D-07

 Cycle  11  Pass 1  IDiag  1:
 E= -115.058241898649     Delta-E=       -0.000000000001 Rises=F Damp=F
 DIIS: error= 1.80D-08 at cycle  11 NSaved=  11.
 NSaved=11 IEnMin=11 EnMin= -115.058241898649     IErMin=11 ErrMin= 1.80D-08
 ErrMax= 1.80D-08 EMaxC= 1.00D-01 BMatC= 1.05D-14 BMatP= 2.36D-13
 IDIUse=1 WtCom= 1.00D+00 WtEn= 0.00D+00
 Coeff-Com:  0.872D-07-0.141D-05-0.600D-05-0.678D-05 0.552D-04 0.283D-03
 Coeff-Com: -0.287D-02 0.133D-01-0.267D-01-0.177D+00 0.119D+01
 Coeff:      0.872D-07-0.141D-05-0.600D-05-0.678D-05 0.552D-04 0.283D-03
 Coeff:     -0.287D-02 0.133D-01-0.267D-01-0.177D+00 0.119D+01
 Gap=     0.593 Goal=   None    Shift=    0.000
 RMSDP=4.60D-09 MaxDP=3.19D-08 DE=-8.24D-13 OVMax= 7.33D-08

 SCF Done:  E(RHF) =  -115.058241899     A.U. after   11 cycles
             Convg  =    0.4601D-08             -V/T =  2.0005
 KE= 1.150004724906D+02 PE=-3.514441119910D+02 EE= 8.131426646055D+01
 Leave Link  502 at Sun Dec 29 12:26:45 2019, MaxMem=   91750400 cpu:       0.2
 (Enter /opt/g09gh/gaussian/g09/l601.exe)
 Copying SCF densities to generalized density rwf, IOpCl= 0 IROHF=0.

 **********************************************************************

            Population analysis using the SCF density.

 **********************************************************************

 Orbital symmetries:
       Occupied  (A) (A) (A) (A) (A) (A) (A) (A) (A)
       Virtual   (A) (A) (A) (A) (A) (A) (A) (A) (A) (A) (A) (A)
                 (A) (A) (A) (A) (A) (A) (A) (A) (A) (A) (A) (A)
                 (A) (A) (A) (A) (A) (A) (A) (A) (A) (A) (A) (A)
                 (A) (A) (A)
 The electronic state is 1-A.
 Alpha  occ. eigenvalues --  -20.54245 -11.27170  -1.34406  -0.92004  -0.68085
 Alpha  occ. eigenvalues --   -0.61904  -0.58558  -0.49862  -0.44521
 Alpha virt. eigenvalues --    0.14781   0.18590   0.22970   0.23182   0.33632
 Alpha virt. eigenvalues --    0.45890   0.46983   0.59269   0.67961   0.72295
 Alpha virt. eigenvalues --    0.78680   0.79027   0.94583   1.07298   1.07683
 Alpha virt. eigenvalues --    1.20315   1.55068   1.56836   1.68633   1.76849
 Alpha virt. eigenvalues --    1.77903   1.96658   2.37743   2.63008   2.69655
 Alpha virt. eigenvalues --    2.71693   3.16403   3.18799   3.29561   3.37296
 Alpha virt. eigenvalues --    3.56249   3.57837   3.73765   4.25743   5.37888
 Alpha virt. eigenvalues --    5.52730   5.86746  24.53400  51.52349
          Condensed to atoms (all electrons):
              1          2          3          4          5          6
     1  O    8.291302   0.201406  -0.031814  -0.036323  -0.028287   0.268786
     2  C    0.201406   4.997122   0.389003   0.389958   0.395391  -0.050699
     3  H   -0.031814   0.389003   0.495390  -0.033548  -0.030016   0.005589
     4  H   -0.036323   0.389958  -0.033548   0.510420  -0.032675   0.003445
     5  H   -0.028287   0.395391  -0.030016  -0.032675   0.532152  -0.012235
     6  H    0.268786  -0.050699   0.005589   0.003445  -0.012235   0.377652
 Mulliken atomic charges:
              1
     1  O   -0.665071
     2  C   -0.322181
     3  H    0.205397
     4  H    0.198724
     5  H    0.175670
     6  H    0.407461
 Sum of Mulliken atomic charges =   0.00000
 Mulliken charges with hydrogens summed into heavy atoms:
              1
     1  O   -0.257609
     2  C    0.257609
 Sum of Mulliken charges with hydrogens summed into heavy atoms =   0.00000
 Electronic spatial extent (au):  <R**2>=             84.4309
 Charge=              0.0000 electrons
 Dipole moment (field-independent basis, Debye):
    X=              1.0680    Y=              1.8474    Z=             -0.0542  Tot=              2.1346
 Quadrupole moment (field-independent basis, Debye-Ang):
   XX=            -13.0138   YY=            -12.0537   ZZ=            -13.4953
   XY=             -2.4058   XZ=             -0.0039   YZ=              0.0174
 Traceless Quadrupole moment (field-independent basis, Debye-Ang):
   XX=             -0.1595   YY=              0.8006   ZZ=             -0.6411
   XY=             -2.4058   XZ=             -0.0039   YZ=              0.0174
 Octapole moment (field-independent basis, Debye-Ang**2):
  XXX=             -4.1325  YYY=              1.8785  ZZZ=              0.3067  XYY=             -1.9888
  XXY=              2.5706  XXZ=             -0.1137  XZZ=             -0.1746  YZZ=             -0.2075
  YYZ=             -0.3902  XYZ=              0.1209
 Hexadecapole moment (field-independent basis, Debye-Ang**3):
 XXXX=            -61.0520 YYYY=            -19.4464 ZZZZ=            -18.7877 XXXY=             -3.8814
 XXXZ=             -0.0550 YYYX=             -1.8177 YYYZ=             -0.0364 ZZZX=              0.3740
 ZZZY=              0.0932 XXYY=            -12.5372 XXZZ=            -13.5297 YYZZ=             -6.6070
 XXYZ=              0.1318 YYXZ=             -0.4020 ZZXY=             -0.9873
 N-N= 4.007113114123D+01 E-N=-3.514441120618D+02  KE= 1.150004724906D+02
 No NMR shielding tensors so no spin-rotation constants.
 Leave Link  601 at Sun Dec 29 12:26:45 2019, MaxMem=   91750400 cpu:       0.1
 (Enter /opt/g09gh/gaussian/g09/l701.exe)
 Compute integral first derivatives.
 ... and contract with generalized density number  0.
 Leave Link  701 at Sun Dec 29 12:26:45 2019, MaxMem=   91750400 cpu:       0.1
 (Enter /opt/g09gh/gaussian/g09/l702.exe)
 L702 exits ... SP integral derivatives will be done elsewhere.
 Leave Link  702 at Sun Dec 29 12:26:45 2019, MaxMem=   91750400 cpu:       0.0
 (Enter /opt/g09gh/gaussian/g09/l703.exe)
 Compute integral first derivatives, UseDBF=F ICtDFT=           0.
 Integral derivatives from FoFDir, PRISM(SPDF).
 Calling FoFJK, ICntrl=      2127 FMM=F ISym2X=0 I1Cent= 0 IOpClX= 0 NMat=1 NMatS=1 NMatT=0.
 FoFCou: FMM=F IPFlag=           0 FMFlag=      100000 FMFlg1=         800
         NFxFlg=           0 DoJE=F BraDBF=F KetDBF=F FulRan=T
         Omega=  0.000000  0.000000  1.000000  0.000000  0.000000 ICntrl=    2127 IOpCl=  0
         NMat0=    1 NMatS0=    1 NMatT0=    0 NMatD0=    1 NMtDS0=    0 NMtDT0=    0
         I1Cent=           0 NGrid=           0.
 Symmetry not used in FoFCou.
 Leave Link  703 at Sun Dec 29 12:26:46 2019, MaxMem=   91750400 cpu:       0.3
 (Enter /opt/g09gh/gaussian/g09/l716.exe)
 Dipole        = 4.20187932D-01 7.26822601D-01-2.13114022D-02
 ***** Axes restored to original set *****
 -------------------------------------------------------------------
 Center     Atomic                   Forces (Hartrees/Bohr)
 Number     Number              X              Y              Z
 -------------------------------------------------------------------
      1        8          -0.005958269   -0.039393616   -0.001919039
      2        6           0.022259181   -0.001678791    0.000378951
      3        1           0.000720206   -0.004746337    0.009278980
      4        1          -0.002710001   -0.000961157   -0.009755837
      5        1          -0.006113041    0.008843981    0.001120933
      6        1          -0.008198076    0.037935920    0.000896011
 -------------------------------------------------------------------
 Cartesian Forces:  Max     0.039393616 RMS     0.014768681
 Leave Link  716 at Sun Dec 29 12:26:46 2019, MaxMem=   91750400 cpu:       0.0
 (Enter /opt/g09gh/gaussian/g09/l103.exe)

 GradGradGradGradGradGradGradGradGradGradGradGradGradGradGradGradGradGrad
 Berny optimization.
 Internal  Forces:  Max     0.038269240 RMS     0.012413430
 Search for a local minimum.
 Step number   1 out of a maximum of  100
 All quantities printed in internal units (Hartrees-Bohrs-Radians)
 RMS Force = .12413D-01 SwitMx=.10000D-02 MixMth= 1
 Mixed Optimization -- RFO/linear search
 Second derivative matrix not updated -- first step.
 The second derivative matrix:
                          R1        R2        R3        R4        R5
           R1           0.40213
           R2           0.00000   0.52584
           R3           0.00000   0.00000   0.34359
           R4           0.00000   0.00000   0.00000   0.34355
           R5           0.00000   0.00000   0.00000   0.00000   0.34272
           A1           0.00000   0.00000   0.00000   0.00000   0.00000
           A2           0.00000   0.00000   0.00000   0.00000   0.00000
           A3           0.00000   0.00000   0.00000   0.00000   0.00000
           A4           0.00000   0.00000   0.00000   0.00000   0.00000
           A5           0.00000   0.00000   0.00000   0.00000   0.00000
           A6           0.00000   0.00000   0.00000   0.00000   0.00000
           A7           0.00000   0.00000   0.00000   0.00000   0.00000
           D1           0.00000   0.00000   0.00000   0.00000   0.00000
           D2           0.00000   0.00000   0.00000   0.00000   0.00000
           D3           0.00000   0.00000   0.00000   0.00000   0.00000
                          A1        A2        A3        A4        A5
           A1           0.16000
           A2           0.00000   0.16000
           A3           0.00000   0.00000   0.16000
           A4           0.00000   0.00000   0.00000   0.16000
           A5           0.00000   0.00000   0.00000   0.00000   0.16000
           A6           0.00000   0.00000   0.00000   0.00000   0.00000
           A7           0.00000   0.00000   0.00000   0.00000   0.00000
           D1           0.00000   0.00000   0.00000   0.00000   0.00000
           D2           0.00000   0.00000   0.00000   0.00000   0.00000
           D3           0.00000   0.00000   0.00000   0.00000   0.00000
                          A6        A7        D1        D2        D3
           A6           0.16000
           A7           0.00000   0.16000
           D1           0.00000   0.00000   0.01223
           D2           0.00000   0.00000   0.00000   0.01223
           D3           0.00000   0.00000   0.00000   0.00000   0.01223
     Eigenvalues ---    0.01223   0.10463   0.10557   0.16000   0.16000
     Eigenvalues ---    0.16000   0.16000   0.34272   0.34355   0.34359
     Eigenvalues ---    0.40213   0.525841000.000001000.000001000.00000
 RFO step:  Lambda=-6.62443230D-03 EMin= 1.22255087D-02
 Linear search not attempted -- first point.
 Iteration  1 RMS(Cart)=  0.05211567 RMS(Int)=  0.00286788
 Iteration  2 RMS(Cart)=  0.00250843 RMS(Int)=  0.00078794
 Iteration  3 RMS(Cart)=  0.00000418 RMS(Int)=  0.00078793
 Iteration  4 RMS(Cart)=  0.00000000 RMS(Int)=  0.00078793
 Variable       Old X    -DE/DX   Delta X   Delta X   Delta X     New X
                                 (Linear)    (Quad)   (Total)
    R1        2.71265  -0.01422   0.00000  -0.03478  -0.03478   2.67787
    R2        1.84044  -0.03827   0.00000  -0.07187  -0.07187   1.76857
    R3        2.06728  -0.00970   0.00000  -0.02769  -0.02769   2.03959
    R4        2.06734  -0.00823   0.00000  -0.02349  -0.02349   2.04385
    R5        2.06874  -0.00723   0.00000  -0.02069  -0.02069   2.04805
    A1        1.86013   0.01184   0.00000   0.07105   0.07105   1.93118
    A2        1.89148   0.00040   0.00000  -0.00159  -0.00205   1.88942
    A3        1.89149   0.00556   0.00000   0.03218   0.03106   1.92255
    A4        1.89172   0.01195   0.00000   0.07680   0.07552   1.96724
    A5        1.95541  -0.00729   0.00000  -0.05418  -0.05442   1.90099
    A6        1.91614  -0.00487   0.00000  -0.02677  -0.02741   1.88873
    A7        1.91622  -0.00484   0.00000  -0.02069  -0.02250   1.89372
    D1       -2.28816  -0.00280   0.00000  -0.05400  -0.05432  -2.34248
    D2        1.86925   0.00247   0.00000  -0.00664  -0.00542   1.86383
    D3       -0.20951  -0.00164   0.00000  -0.04351  -0.04442  -0.25393
         Item               Value     Threshold  Converged?
 Maximum Force            0.038269     0.000450     NO 
 RMS     Force            0.012413     0.000300     NO 
 Maximum Displacement     0.121632     0.001800     NO 
 RMS     Displacement     0.051422     0.001200     NO 
 Predicted change in Energy=-3.415142D-03
 GradGradGradGradGradGradGradGradGradGradGradGradGradGradGradGradGradGrad

 Leave Link  103 at Sun Dec 29 12:26:46 2019, MaxMem=   91750400 cpu:       0.0
 (Enter /opt/g09gh/gaussian/g09/l202.exe)
                          Input orientation:                          
 ---------------------------------------------------------------------
 Center     Atomic      Atomic             Coordinates (Angstroms)
 Number     Number       Type             X           Y           Z
 ---------------------------------------------------------------------
      1          8           0        0.740653    0.095059   -0.025072
      2          6           0       -0.670384   -0.031551    0.006975
      3          1           0       -1.085511    0.619916   -0.746792
      4          1           0       -1.049353    0.266258    0.975202
      5          1           0       -1.004632   -1.042081   -0.197210
      6          1           0        1.148240   -0.747003    0.001164
 ---------------------------------------------------------------------
                    Distance matrix (angstroms):
                    1          2          3          4          5
     1  O    0.000000
     2  C    1.417069   0.000000
     3  H    2.032543   1.079307   0.000000
     4  H    2.057663   1.081559   1.758307   0.000000
     5  H    2.090153   1.083783   1.752375   1.757357   0.000000
     6  H    0.935887   1.954303   2.723518   2.608613   2.182036
                    6
     6  H    0.000000
 Stoichiometry    CH4O
 Framework group  C1[X(CH4O)]
 Deg. of freedom    12
 Full point group                 C1      NOp   1
 Largest Abelian subgroup         C1      NOp   1
 Largest concise Abelian subgroup C1      NOp   1
                         Standard orientation:                         
 ---------------------------------------------------------------------
 Center     Atomic      Atomic             Coordinates (Angstroms)
 Number     Number       Type             X           Y           Z
 ---------------------------------------------------------------------
      1          8           0       -0.744861   -0.119366    0.000293
      2          6           0        0.665500    0.018350    0.000842
      3          1           0        1.071481   -0.657344   -0.736397
      4          1           0        1.064869   -0.241072    0.971911
      5          1           0        0.987975    1.023065   -0.246427
      6          1           0       -1.158434    0.720177    0.003517
 ---------------------------------------------------------------------
 Rotational constants (GHZ):    132.6705657     24.8972865     24.0790390
 Leave Link  202 at Sun Dec 29 12:26:46 2019, MaxMem=   91750400 cpu:       0.0
 (Enter /opt/g09gh/gaussian/g09/l301.exe)
 Standard basis: 6-311G(d) (5D, 7F)
 Ernie: Thresh=  0.10000D-02 Tol=  0.10000D-05 Strict=F.
 There are    48 symmetry adapted basis functions of A   symmetry.
 Integral buffers will be    131072 words long.
 Raffenetti 1 integral format.
 Two-electron integral symmetry is turned on.
    48 basis functions,    84 primitive gaussians,    50 cartesian basis functions
     9 alpha electrons        9 beta electrons
       nuclear repulsion energy        40.5891233564 Hartrees.
 IExCor=    0 DFT=F Ex=HF Corr=None ExCW=0 ScaHFX=  1.000000
 ScaDFX=  1.000000  1.000000  1.000000  1.000000 ScalE2=  1.000000  1.000000
 IRadAn=      0 IRanWt=     -1 IRanGd=            0 ICorTp=0
 NAtoms=    6 NActive=    6 NUniq=    6 SFac= 7.50D-01 NAtFMM=   80 NAOKFM=F Big=F
 Leave Link  301 at Sun Dec 29 12:26:46 2019, MaxMem=   91750400 cpu:       0.1
 (Enter /opt/g09gh/gaussian/g09/l302.exe)
 NPDir=0 NMtPBC=     1 NCelOv=     1 NCel=       1 NClECP=     1 NCelD=      1
         NCelK=      1 NCelE2=     1 NClLst=     1 CellRange=     0.0.
 One-electron integrals computed using PRISM.
 NBasis=    48 RedAO= T  NBF=    48
 NBsUse=    48 1.00D-06 NBFU=    48
 Leave Link  302 at Sun Dec 29 12:26:46 2019, MaxMem=   91750400 cpu:       0.2
 (Enter /opt/g09gh/gaussian/g09/l303.exe)
 DipDrv:  MaxL=1.
 Leave Link  303 at Sun Dec 29 12:26:46 2019, MaxMem=   91750400 cpu:       0.0
 (Enter /opt/g09gh/gaussian/g09/l401.exe)
 Initial guess read from the read-write file.
 B after Tr=     0.000000    0.000000    0.000000
         Rot=    1.000000    0.000000    0.000000    0.000000 Ang=   0.00 deg.
 Guess basis will be translated and rotated to current coordinates.
 Initial guess orbital symmetries:
       Occupied  (A) (A) (A) (A) (A) (A) (A) (A) (A)
       Virtual   (A) (A) (A) (A) (A) (A) (A) (A) (A) (A) (A) (A)
                 (A) (A) (A) (A) (A) (A) (A) (A) (A) (A) (A) (A)
                 (A) (A) (A) (A) (A) (A) (A) (A) (A) (A) (A) (A)
                 (A) (A) (A)
 The electronic state of the initial guess is 1-A.
 Generating alternative initial guess.
 Harris functional with IExCor=  205 diagonalized for initial guess.
 ExpMin= 1.03D-01 ExpMax= 8.59D+03 ExpMxC= 1.30D+03 IAcc=1 IRadAn=         1 AccDes= 0.00D+00
 HarFok:  IExCor=  205 AccDes= 0.00D+00 IRadAn=         1 IDoV= 1
 ScaDFX=  1.000000  1.000000  1.000000  1.000000
 FoFCou: FMM=F IPFlag=           0 FMFlag=      100000 FMFlg1=           0
         NFxFlg=           0 DoJE=T BraDBF=F KetDBF=T FulRan=T
         Omega=  0.000000  0.000000  1.000000  0.000000  0.000000 ICntrl=     500 IOpCl=  0
         NMat0=    1 NMatS0=    1 NMatT0=    0 NMatD0=    1 NMtDS0=    0 NMtDT0=    0
         I1Cent=           4 NGrid=           0.
 Petite list used in FoFCou.
 Harris En= -115.246864497260    
 Leave Link  401 at Sun Dec 29 12:26:46 2019, MaxMem=   91750400 cpu:       0.3
 (Enter /opt/g09gh/gaussian/g09/l502.exe)
 Closed shell SCF:
 Requested convergence on RMS density matrix=1.00D-08 within 128 cycles.
 Requested convergence on MAX density matrix=1.00D-06.
 Requested convergence on             energy=1.00D-06.
 No special actions if energy rises.
 Using DIIS extrapolation, IDIIS=  1040.
 Integral symmetry usage will be decided dynamically.
 Keep R1 ints in memory in canonical form, NReq=1659792.
 IEnd=       26328 IEndB=       26328 NGot=    91750400 MDV=    90929785
 LenX=    90929785 LenY=    90926844
 Symmetry not used in FoFDir.
 MinBra= 0 MaxBra= 2 Meth= 1.
 IRaf=       0 NMat=   1 IRICut=       1 DoRegI=T DoRafI=F ISym2E= 0 JSym2E=0.

 Cycle   1  Pass 1  IDiag  1:
 E= -115.059566368550    
 DIIS: error= 5.55D-03 at cycle   1 NSaved=   1.
 NSaved= 1 IEnMin= 1 EnMin= -115.059566368550     IErMin= 1 ErrMin= 5.55D-03
 ErrMax= 5.55D-03 EMaxC= 1.00D-01 BMatC= 1.70D-03 BMatP= 1.70D-03
 IDIUse=3 WtCom= 9.45D-01 WtEn= 5.55D-02
 Coeff-Com:  0.100D+01
 Coeff-En:   0.100D+01
 Coeff:      0.100D+01
 Gap=     0.606 Goal=   None    Shift=    0.000
 GapD=    0.606 DampG=2.000 DampE=1.000 DampFc=2.0000 IDamp=-1.
 RMSDP=6.04D-04 MaxDP=7.47D-03              OVMax= 1.13D-02

 Cycle   2  Pass 1  IDiag  1:
 E= -115.061340763960     Delta-E=       -0.001774395409 Rises=F Damp=F
 DIIS: error= 1.69D-03 at cycle   2 NSaved=   2.
 NSaved= 2 IEnMin= 2 EnMin= -115.061340763960     IErMin= 2 ErrMin= 1.69D-03
 ErrMax= 1.69D-03 EMaxC= 1.00D-01 BMatC= 1.44D-04 BMatP= 1.70D-03
 IDIUse=3 WtCom= 9.83D-01 WtEn= 1.69D-02
 Coeff-Com: -0.198D-01 0.102D+01
 Coeff-En:   0.000D+00 0.100D+01
 Coeff:     -0.195D-01 0.102D+01
 Gap=     0.596 Goal=   None    Shift=    0.000
 RMSDP=2.26D-04 MaxDP=3.47D-03 DE=-1.77D-03 OVMax= 4.56D-03

 Cycle   3  Pass 1  IDiag  1:
 E= -115.061509197183     Delta-E=       -0.000168433223 Rises=F Damp=F
 DIIS: error= 1.03D-03 at cycle   3 NSaved=   3.
 NSaved= 3 IEnMin= 3 EnMin= -115.061509197183     IErMin= 3 ErrMin= 1.03D-03
 ErrMax= 1.03D-03 EMaxC= 1.00D-01 BMatC= 2.99D-05 BMatP= 1.44D-04
 IDIUse=3 WtCom= 9.90D-01 WtEn= 1.03D-02
 Coeff-Com: -0.812D-01 0.242D+00 0.839D+00
 Coeff-En:   0.000D+00 0.000D+00 0.100D+01
 Coeff:     -0.803D-01 0.240D+00 0.840D+00
 Gap=     0.598 Goal=   None    Shift=    0.000
 RMSDP=9.38D-05 MaxDP=1.28D-03 DE=-1.68D-04 OVMax= 1.84D-03

 Cycle   4  Pass 1  IDiag  1:
 E= -115.061542045947     Delta-E=       -0.000032848764 Rises=F Damp=F
 DIIS: error= 2.27D-04 at cycle   4 NSaved=   4.
 NSaved= 4 IEnMin= 4 EnMin= -115.061542045947     IErMin= 4 ErrMin= 2.27D-04
 ErrMax= 2.27D-04 EMaxC= 1.00D-01 BMatC= 2.01D-06 BMatP= 2.99D-05
 IDIUse=3 WtCom= 9.98D-01 WtEn= 2.27D-03
 Coeff-Com: -0.179D-02-0.902D-01 0.218D-01 0.107D+01
 Coeff-En:   0.000D+00 0.000D+00 0.000D+00 0.100D+01
 Coeff:     -0.179D-02-0.900D-01 0.217D-01 0.107D+01
 Gap=     0.598 Goal=   None    Shift=    0.000
 RMSDP=4.14D-05 MaxDP=3.72D-04 DE=-3.28D-05 OVMax= 9.21D-04

 Cycle   5  Pass 1  IDiag  1:
 E= -115.061545798848     Delta-E=       -0.000003752901 Rises=F Damp=F
 DIIS: error= 4.41D-05 at cycle   5 NSaved=   5.
 NSaved= 5 IEnMin= 5 EnMin= -115.061545798848     IErMin= 5 ErrMin= 4.41D-05
 ErrMax= 4.41D-05 EMaxC= 1.00D-01 BMatC= 1.14D-07 BMatP= 2.01D-06
 IDIUse=1 WtCom= 1.00D+00 WtEn= 0.00D+00
 Coeff-Com:  0.379D-02-0.116D-01-0.510D-01-0.236D-01 0.108D+01
 Coeff:      0.379D-02-0.116D-01-0.510D-01-0.236D-01 0.108D+01
 Gap=     0.597 Goal=   None    Shift=    0.000
 RMSDP=1.22D-05 MaxDP=9.91D-05 DE=-3.75D-06 OVMax= 2.67D-04

 Cycle   6  Pass 1  IDiag  1:
 E= -115.061546060077     Delta-E=       -0.000000261229 Rises=F Damp=F
 DIIS: error= 1.34D-05 at cycle   6 NSaved=   6.
 NSaved= 6 IEnMin= 6 EnMin= -115.061546060077     IErMin= 6 ErrMin= 1.34D-05
 ErrMax= 1.34D-05 EMaxC= 1.00D-01 BMatC= 1.05D-08 BMatP= 1.14D-07
 IDIUse=1 WtCom= 1.00D+00 WtEn= 0.00D+00
 Coeff-Com:  0.425D-03 0.549D-02-0.555D-02-0.835D-01 0.111D+00 0.972D+00
 Coeff:      0.425D-03 0.549D-02-0.555D-02-0.835D-01 0.111D+00 0.972D+00
 Gap=     0.597 Goal=   None    Shift=    0.000
 RMSDP=3.37D-06 MaxDP=2.51D-05 DE=-2.61D-07 OVMax= 6.85D-05

 Cycle   7  Pass 1  IDiag  1:
 E= -115.061546081932     Delta-E=       -0.000000021855 Rises=F Damp=F
 DIIS: error= 3.40D-06 at cycle   7 NSaved=   7.
 NSaved= 7 IEnMin= 7 EnMin= -115.061546081932     IErMin= 7 ErrMin= 3.40D-06
 ErrMax= 3.40D-06 EMaxC= 1.00D-01 BMatC= 8.42D-10 BMatP= 1.05D-08
 IDIUse=1 WtCom= 1.00D+00 WtEn= 0.00D+00
 Coeff-Com: -0.442D-03 0.580D-03 0.557D-02 0.990D-02-0.113D+00-0.137D+00
 Coeff-Com:  0.123D+01
 Coeff:     -0.442D-03 0.580D-03 0.557D-02 0.990D-02-0.113D+00-0.137D+00
 Coeff:      0.123D+01
 Gap=     0.597 Goal=   None    Shift=    0.000
 RMSDP=1.31D-06 MaxDP=1.40D-05 DE=-2.19D-08 OVMax= 2.93D-05

 Cycle   8  Pass 1  IDiag  1:
 E= -115.061546084242     Delta-E=       -0.000000002310 Rises=F Damp=F
 DIIS: error= 9.42D-07 at cycle   8 NSaved=   8.
 NSaved= 8 IEnMin= 8 EnMin= -115.061546084242     IErMin= 8 ErrMin= 9.42D-07
 ErrMax= 9.42D-07 EMaxC= 1.00D-01 BMatC= 3.53D-11 BMatP= 8.42D-10
 IDIUse=1 WtCom= 1.00D+00 WtEn= 0.00D+00
 Coeff-Com:  0.901D-04-0.299D-03-0.130D-02 0.101D-02 0.258D-01 0.977D-03
 Coeff-Com: -0.336D+00 0.131D+01
 Coeff:      0.901D-04-0.299D-03-0.130D-02 0.101D-02 0.258D-01 0.977D-03
 Coeff:     -0.336D+00 0.131D+01
 Gap=     0.597 Goal=   None    Shift=    0.000
 RMSDP=2.83D-07 MaxDP=3.41D-06 DE=-2.31D-09 OVMax= 7.45D-06

 Cycle   9  Pass 1  IDiag  1:
 E= -115.061546084357     Delta-E=       -0.000000000115 Rises=F Damp=F
 DIIS: error= 2.65D-07 at cycle   9 NSaved=   9.
 NSaved= 9 IEnMin= 9 EnMin= -115.061546084357     IErMin= 9 ErrMin= 2.65D-07
 ErrMax= 2.65D-07 EMaxC= 1.00D-01 BMatC= 2.29D-12 BMatP= 3.53D-11
 IDIUse=1 WtCom= 1.00D+00 WtEn= 0.00D+00
 Coeff-Com: -0.395D-05 0.396D-04 0.116D-03-0.713D-03-0.250D-02 0.505D-02
 Coeff-Com:  0.467D-01-0.449D+00 0.140D+01
 Coeff:     -0.395D-05 0.396D-04 0.116D-03-0.713D-03-0.250D-02 0.505D-02
 Coeff:      0.467D-01-0.449D+00 0.140D+01
 Gap=     0.597 Goal=   None    Shift=    0.000
 RMSDP=8.40D-08 MaxDP=9.94D-07 DE=-1.15D-10 OVMax= 2.35D-06

 Cycle  10  Pass 1  IDiag  1:
 E= -115.061546084366     Delta-E=       -0.000000000008 Rises=F Damp=F
 DIIS: error= 3.64D-08 at cycle  10 NSaved=  10.
 NSaved=10 IEnMin=10 EnMin= -115.061546084366     IErMin=10 ErrMin= 3.64D-08
 ErrMax= 3.64D-08 EMaxC= 1.00D-01 BMatC= 7.92D-14 BMatP= 2.29D-12
 IDIUse=1 WtCom= 1.00D+00 WtEn= 0.00D+00
 Coeff-Com: -0.156D-05-0.904D-05 0.180D-04 0.255D-03-0.339D-03-0.247D-02
 Coeff-Com:  0.151D-02 0.850D-01-0.434D+00 0.135D+01
 Coeff:     -0.156D-05-0.904D-05 0.180D-04 0.255D-03-0.339D-03-0.247D-02
 Coeff:      0.151D-02 0.850D-01-0.434D+00 0.135D+01
 Gap=     0.597 Goal=   None    Shift=    0.000
 RMSDP=1.41D-08 MaxDP=1.46D-07 DE=-8.47D-12 OVMax= 3.64D-07

 Cycle  11  Pass 1  IDiag  1:
 E= -115.061546084366     Delta-E=        0.000000000000 Rises=F Damp=F
 DIIS: error= 7.12D-09 at cycle  11 NSaved=  11.
 NSaved=11 IEnMin=10 EnMin= -115.061546084366     IErMin=11 ErrMin= 7.12D-09
 ErrMax= 7.12D-09 EMaxC= 1.00D-01 BMatC= 2.87D-15 BMatP= 7.92D-14
 IDIUse=1 WtCom= 1.00D+00 WtEn= 0.00D+00
 Coeff-Com:  0.282D-06 0.112D-07-0.699D-05-0.381D-05 0.133D-03 0.477D-04
 Coeff-Com: -0.199D-02 0.726D-02 0.205D-02-0.185D+00 0.118D+01
 Coeff:      0.282D-06 0.112D-07-0.699D-05-0.381D-05 0.133D-03 0.477D-04
 Coeff:     -0.199D-02 0.726D-02 0.205D-02-0.185D+00 0.118D+01
 Gap=     0.597 Goal=   None    Shift=    0.000
 RMSDP=2.40D-09 MaxDP=2.08D-08 DE= 1.42D-13 OVMax= 5.25D-08

 SCF Done:  E(RHF) =  -115.061546084     A.U. after   11 cycles
             Convg  =    0.2400D-08             -V/T =  1.9993
 KE= 1.151463098942D+02 PE=-3.525618111836D+02 EE= 8.176483184869D+01
 Leave Link  502 at Sun Dec 29 12:26:47 2019, MaxMem=   91750400 cpu:       0.2
 (Enter /opt/g09gh/gaussian/g09/l701.exe)
 Compute integral first derivatives.
 ... and contract with generalized density number  0.
 Leave Link  701 at Sun Dec 29 12:26:47 2019, MaxMem=   91750400 cpu:       0.1
 (Enter /opt/g09gh/gaussian/g09/l702.exe)
 L702 exits ... SP integral derivatives will be done elsewhere.
 Leave Link  702 at Sun Dec 29 12:26:47 2019, MaxMem=   91750400 cpu:       0.0
 (Enter /opt/g09gh/gaussian/g09/l703.exe)
 Compute integral first derivatives, UseDBF=F ICtDFT=           0.
 Integral derivatives from FoFDir, PRISM(SPDF).
 Calling FoFJK, ICntrl=      2127 FMM=F ISym2X=0 I1Cent= 0 IOpClX= 0 NMat=1 NMatS=1 NMatT=0.
 FoFCou: FMM=F IPFlag=           0 FMFlag=      100000 FMFlg1=         800
         NFxFlg=           0 DoJE=F BraDBF=F KetDBF=F FulRan=T
         Omega=  0.000000  0.000000  1.000000  0.000000  0.000000 ICntrl=    2127 IOpCl=  0
         NMat0=    1 NMatS0=    1 NMatT0=    0 NMatD0=    1 NMtDS0=    0 NMtDT0=    0
         I1Cent=           0 NGrid=           0.
 Symmetry not used in FoFCou.
 Leave Link  703 at Sun Dec 29 12:26:47 2019, MaxMem=   91750400 cpu:       0.3
 (Enter /opt/g09gh/gaussian/g09/l716.exe)
 Dipole        = 3.69071859D-01 7.09444457D-01-9.00368186D-03
 ***** Axes restored to original set *****
 -------------------------------------------------------------------
 Center     Atomic                   Forces (Hartrees/Bohr)
 Number     Number              X              Y              Z
 -------------------------------------------------------------------
      1        8          -0.011308845   -0.000595130   -0.001573660
      2        6           0.011182289    0.002275648   -0.000128194
      3        1          -0.001132160    0.001424915   -0.000819493
      4        1          -0.000736669    0.000188935    0.001769890
      5        1           0.001409863   -0.001515053   -0.000648286
      6        1           0.000585523   -0.001779315    0.001399742
 -------------------------------------------------------------------
 Cartesian Forces:  Max     0.011308845 RMS     0.003935771
 Leave Link  716 at Sun Dec 29 12:26:47 2019, MaxMem=   91750400 cpu:       0.0
 (Enter /opt/g09gh/gaussian/g09/l103.exe)

 GradGradGradGradGradGradGradGradGradGradGradGradGradGradGradGradGradGrad
 Berny optimization.
 Using GEDIIS/GDIIS optimizer.
 Internal  Forces:  Max     0.010885897 RMS     0.003107241
 Search for a local minimum.
 Step number   2 out of a maximum of  100
 All quantities printed in internal units (Hartrees-Bohrs-Radians)
 RMS Force = .31072D-02 SwitMx=.10000D-02 MixMth= 1
 Mixed Optimization -- RFO/linear search
 Update second derivatives using D2CorX and points    1    2
 DE= -3.30D-03 DEPred=-3.42D-03 R= 9.68D-01
 SS=  1.41D+00  RLast= 1.70D-01 DXNew= 5.0454D-01 5.1099D-01
 Trust test= 9.68D-01 RLast= 1.70D-01 DXMaxT set to 5.05D-01
 The second derivative matrix:
                          R1        R2        R3        R4        R5
           R1           0.37328
           R2          -0.06254   0.54290
           R3          -0.01502   0.01298   0.34936
           R4          -0.01259   0.01286   0.00542   0.34862
           R5          -0.01134   0.00793   0.00380   0.00360   0.34518
           A1           0.01867  -0.00679  -0.00438  -0.00429  -0.00273
           A2          -0.00032   0.00282   0.00088   0.00078   0.00062
           A3           0.00836  -0.00055  -0.00122  -0.00126  -0.00069
           A4           0.01893  -0.01826  -0.00783  -0.00734  -0.00519
           A5          -0.01544  -0.00853  -0.00060  -0.00018  -0.00076
           A6          -0.00678   0.00772   0.00316   0.00294   0.00211
           A7          -0.00511   0.01192   0.00420   0.00382   0.00289
           D1          -0.00026   0.01044   0.00315   0.00278   0.00224
           D2          -0.00201  -0.02287  -0.00657  -0.00575  -0.00473
           D3          -0.00063   0.00343   0.00110   0.00099   0.00077
                          A1        A2        A3        A4        A5
           A1           0.16256
           A2          -0.00088   0.16008
           A3           0.00037  -0.00034   0.15986
           A4           0.00611  -0.00115   0.00177   0.17061
           A5           0.00227   0.00040   0.00142   0.00044   0.15581
           A6          -0.00256   0.00044  -0.00078  -0.00426   0.00003
           A7          -0.00381   0.00047  -0.00133  -0.00558   0.00102
           D1          -0.00324   0.00025  -0.00127  -0.00410   0.00166
           D2           0.00703  -0.00045   0.00285   0.00851  -0.00410
           D3          -0.00108   0.00010  -0.00040  -0.00145   0.00045
                          A6        A7        D1        D2        D3
           A6           0.16170
           A7           0.00218   0.16256
           D1           0.00155   0.00161   0.01302
           D2          -0.00319  -0.00314  -0.00135   0.01433
           D3           0.00056   0.00061   0.00034  -0.00063   0.01236
 Use linear search instead of GDIIS.
     Eigenvalues ---    0.01202   0.09982   0.10508   0.15561   0.16000
     Eigenvalues ---    0.16000   0.17466   0.33818   0.34322   0.34372
     Eigenvalues ---    0.37133   0.569991000.000001000.000001000.00000
 RFO step:  Lambda=-5.20973386D-04 EMin= 1.20212367D-02
 Quartic linear search produced a step of -0.01516.
 Iteration  1 RMS(Cart)=  0.02029604 RMS(Int)=  0.00054882
 Iteration  2 RMS(Cart)=  0.00047422 RMS(Int)=  0.00002014
 Iteration  3 RMS(Cart)=  0.00000032 RMS(Int)=  0.00002014
 Variable       Old X    -DE/DX   Delta X   Delta X   Delta X     New X
                                 (Linear)    (Quad)   (Total)
    R1        2.67787  -0.01089   0.00053  -0.02973  -0.02920   2.64867
    R2        1.76857   0.00190   0.00109  -0.00290  -0.00181   1.76676
    R3        2.03959   0.00187   0.00042   0.00285   0.00327   2.04287
    R4        2.04385   0.00189   0.00036   0.00331   0.00366   2.04751
    R5        2.04805   0.00110   0.00031   0.00129   0.00161   2.04966
    A1        1.93118  -0.00052  -0.00108   0.00324   0.00216   1.93334
    A2        1.88942   0.00119   0.00003   0.00793   0.00797   1.89739
    A3        1.92255   0.00056  -0.00047   0.00626   0.00580   1.92834
    A4        1.96724  -0.00304  -0.00114  -0.01284  -0.01396   1.95328
    A5        1.90099  -0.00012   0.00082  -0.00375  -0.00295   1.89805
    A6        1.88873   0.00075   0.00042   0.00183   0.00227   1.89100
    A7        1.89372   0.00071   0.00034   0.00062   0.00099   1.89471
    D1       -2.34248  -0.00039   0.00082  -0.05923  -0.05837  -2.40085
    D2        1.86383  -0.00129   0.00008  -0.06309  -0.06305   1.80078
    D3       -0.25393  -0.00053   0.00067  -0.05957  -0.05889  -0.31282
         Item               Value     Threshold  Converged?
 Maximum Force            0.010886     0.000450     NO 
 RMS     Force            0.003107     0.000300     NO 
 Maximum Displacement     0.044708     0.001800     NO 
 RMS     Displacement     0.020215     0.001200     NO 
 Predicted change in Energy=-2.635727D-04
 GradGradGradGradGradGradGradGradGradGradGradGradGradGradGradGradGradGrad

 Leave Link  103 at Sun Dec 29 12:26:47 2019, MaxMem=   91750400 cpu:       0.0
 (Enter /opt/g09gh/gaussian/g09/l202.exe)
                          Input orientation:                          
 ---------------------------------------------------------------------
 Center     Atomic      Atomic             Coordinates (Angstroms)
 Number     Number       Type             X           Y           Z
 ---------------------------------------------------------------------
      1          8           0        0.730659    0.090812   -0.044247
      2          6           0       -0.665078   -0.028513    0.002708
      3          1           0       -1.094413    0.626295   -0.742637
      4          1           0       -1.037900    0.261874    0.977718
      5          1           0       -0.991926   -1.041839   -0.204100
      6          1           0        1.137671   -0.748031    0.024823
 ---------------------------------------------------------------------
                    Distance matrix (angstroms):
                    1          2          3          4          5
     1  O    0.000000
     2  C    1.401615   0.000000
     3  H    2.026174   1.081038   0.000000
     4  H    2.049751   1.083497   1.759437   0.000000
     5  H    2.067789   1.084633   1.755904   1.760249   0.000000
     6  H    0.934927   1.941159   2.731294   2.580897   2.161923
                    6
     6  H    0.000000
 Stoichiometry    CH4O
 Framework group  C1[X(CH4O)]
 Deg. of freedom    12
 Full point group                 C1      NOp   1
 Largest Abelian subgroup         C1      NOp   1
 Largest concise Abelian subgroup C1      NOp   1
                         Standard orientation:                         
 ---------------------------------------------------------------------
 Center     Atomic      Atomic             Coordinates (Angstroms)
 Number     Number       Type             X           Y           Z
 ---------------------------------------------------------------------
      1          8           0       -0.736831   -0.120919    0.000382
      2          6           0        0.657814    0.018691    0.000633
      3          1           0        1.078041   -0.696064   -0.693037
      4          1           0        1.058360   -0.177388    0.988096
      5          1           0        0.965195    1.012806   -0.305441
      6          1           0       -1.153830    0.715854    0.003532
 ---------------------------------------------------------------------
 Rotational constants (GHZ):    132.4738610     25.3496793     24.5007385
 Leave Link  202 at Sun Dec 29 12:26:47 2019, MaxMem=   91750400 cpu:       0.0
 (Enter /opt/g09gh/gaussian/g09/l301.exe)
 Standard basis: 6-311G(d) (5D, 7F)
 Ernie: Thresh=  0.10000D-02 Tol=  0.10000D-05 Strict=F.
 There are    48 symmetry adapted basis functions of A   symmetry.
 Integral buffers will be    131072 words long.
 Raffenetti 1 integral format.
 Two-electron integral symmetry is turned on.
    48 basis functions,    84 primitive gaussians,    50 cartesian basis functions
     9 alpha electrons        9 beta electrons
       nuclear repulsion energy        40.8291197337 Hartrees.
 IExCor=    0 DFT=F Ex=HF Corr=None ExCW=0 ScaHFX=  1.000000
 ScaDFX=  1.000000  1.000000  1.000000  1.000000 ScalE2=  1.000000  1.000000
 IRadAn=      0 IRanWt=     -1 IRanGd=            0 ICorTp=0
 NAtoms=    6 NActive=    6 NUniq=    6 SFac= 7.50D-01 NAtFMM=   80 NAOKFM=F Big=F
 Leave Link  301 at Sun Dec 29 12:26:47 2019, MaxMem=   91750400 cpu:       0.1
 (Enter /opt/g09gh/gaussian/g09/l302.exe)
 NPDir=0 NMtPBC=     1 NCelOv=     1 NCel=       1 NClECP=     1 NCelD=      1
         NCelK=      1 NCelE2=     1 NClLst=     1 CellRange=     0.0.
 One-electron integrals computed using PRISM.
 NBasis=    48 RedAO= T  NBF=    48
 NBsUse=    48 1.00D-06 NBFU=    48
 Leave Link  302 at Sun Dec 29 12:26:48 2019, MaxMem=   91750400 cpu:       0.1
 (Enter /opt/g09gh/gaussian/g09/l303.exe)
 DipDrv:  MaxL=1.
 Leave Link  303 at Sun Dec 29 12:26:48 2019, MaxMem=   91750400 cpu:       0.0
 (Enter /opt/g09gh/gaussian/g09/l401.exe)
 Initial guess read from the read-write file.
 B after Tr=     0.000000    0.000000    0.000000
         Rot=    1.000000    0.000000    0.000000    0.000000 Ang=   0.00 deg.
 Guess basis will be translated and rotated to current coordinates.
 Initial guess orbital symmetries:
       Occupied  (A) (A) (A) (A) (A) (A) (A) (A) (A)
       Virtual   (A) (A) (A) (A) (A) (A) (A) (A) (A) (A) (A) (A)
                 (A) (A) (A) (A) (A) (A) (A) (A) (A) (A) (A) (A)
                 (A) (A) (A) (A) (A) (A) (A) (A) (A) (A) (A) (A)
                 (A) (A) (A)
 The electronic state of the initial guess is 1-A.
 Generating alternative initial guess.
 Harris functional with IExCor=  205 diagonalized for initial guess.
 ExpMin= 1.03D-01 ExpMax= 8.59D+03 ExpMxC= 1.30D+03 IAcc=1 IRadAn=         1 AccDes= 0.00D+00
 HarFok:  IExCor=  205 AccDes= 0.00D+00 IRadAn=         1 IDoV= 1
 ScaDFX=  1.000000  1.000000  1.000000  1.000000
 FoFCou: FMM=F IPFlag=           0 FMFlag=      100000 FMFlg1=           0
         NFxFlg=           0 DoJE=T BraDBF=F KetDBF=T FulRan=T
         Omega=  0.000000  0.000000  1.000000  0.000000  0.000000 ICntrl=     500 IOpCl=  0
         NMat0=    1 NMatS0=    1 NMatT0=    0 NMatD0=    1 NMtDS0=    0 NMtDT0=    0
         I1Cent=           4 NGrid=           0.
 Petite list used in FoFCou.
 Harris En= -115.247703787586    
 Leave Link  401 at Sun Dec 29 12:26:48 2019, MaxMem=   91750400 cpu:       0.3
 (Enter /opt/g09gh/gaussian/g09/l502.exe)
 Closed shell SCF:
 Requested convergence on RMS density matrix=1.00D-08 within 128 cycles.
 Requested convergence on MAX density matrix=1.00D-06.
 Requested convergence on             energy=1.00D-06.
 No special actions if energy rises.
 Using DIIS extrapolation, IDIIS=  1040.
 Integral symmetry usage will be decided dynamically.
 Keep R1 ints in memory in canonical form, NReq=1659792.
 IEnd=       26328 IEndB=       26328 NGot=    91750400 MDV=    90929785
 LenX=    90929785 LenY=    90926844
 Symmetry not used in FoFDir.
 MinBra= 0 MaxBra= 2 Meth= 1.
 IRaf=       0 NMat=   1 IRICut=       1 DoRegI=T DoRafI=F ISym2E= 0 JSym2E=0.

 Cycle   1  Pass 1  IDiag  1:
 E= -115.060789541509    
 DIIS: error= 4.39D-03 at cycle   1 NSaved=   1.
 NSaved= 1 IEnMin= 1 EnMin= -115.060789541509     IErMin= 1 ErrMin= 4.39D-03
 ErrMax= 4.39D-03 EMaxC= 1.00D-01 BMatC= 6.29D-04 BMatP= 6.29D-04
 IDIUse=3 WtCom= 9.56D-01 WtEn= 4.39D-02
 Coeff-Com:  0.100D+01
 Coeff-En:   0.100D+01
 Coeff:      0.100D+01
 Gap=     0.596 Goal=   None    Shift=    0.000
 GapD=    0.596 DampG=2.000 DampE=1.000 DampFc=2.0000 IDamp=-1.
 RMSDP=3.24D-04 MaxDP=2.77D-03              OVMax= 8.41D-03

 Cycle   2  Pass 1  IDiag  1:
 E= -115.061751189351     Delta-E=       -0.000961647842 Rises=F Damp=F
 DIIS: error= 1.51D-03 at cycle   2 NSaved=   2.
 NSaved= 2 IEnMin= 2 EnMin= -115.061751189351     IErMin= 2 ErrMin= 1.51D-03
 ErrMax= 1.51D-03 EMaxC= 1.00D-01 BMatC= 5.52D-05 BMatP= 6.29D-04
 IDIUse=3 WtCom= 9.85D-01 WtEn= 1.51D-02
 Coeff-Com: -0.319D+00 0.132D+01
 Coeff-En:   0.000D+00 0.100D+01
 Coeff:     -0.314D+00 0.131D+01
 Gap=     0.595 Goal=   None    Shift=    0.000
 RMSDP=1.90D-04 MaxDP=1.85D-03 DE=-9.62D-04 OVMax= 4.21D-03

 Cycle   3  Pass 1  IDiag  1:
 E= -115.061876224224     Delta-E=       -0.000125034873 Rises=F Damp=F
 DIIS: error= 2.36D-04 at cycle   3 NSaved=   3.
 NSaved= 3 IEnMin= 3 EnMin= -115.061876224224     IErMin= 3 ErrMin= 2.36D-04
 ErrMax= 2.36D-04 EMaxC= 1.00D-01 BMatC= 2.58D-06 BMatP= 5.52D-05
 IDIUse=3 WtCom= 9.98D-01 WtEn= 2.36D-03
 Coeff-Com: -0.443D-01 0.484D-01 0.996D+00
 Coeff-En:   0.000D+00 0.000D+00 0.100D+01
 Coeff:     -0.442D-01 0.482D-01 0.996D+00
 Gap=     0.596 Goal=   None    Shift=    0.000
 RMSDP=5.43D-05 MaxDP=4.59D-04 DE=-1.25D-04 OVMax= 8.76D-04

 Cycle   4  Pass 1  IDiag  1:
 E= -115.061881003375     Delta-E=       -0.000004779151 Rises=F Damp=F
 DIIS: error= 7.91D-05 at cycle   4 NSaved=   4.
 NSaved= 4 IEnMin= 4 EnMin= -115.061881003375     IErMin= 4 ErrMin= 7.91D-05
 ErrMax= 7.91D-05 EMaxC= 1.00D-01 BMatC= 4.14D-07 BMatP= 2.58D-06
 IDIUse=1 WtCom= 1.00D+00 WtEn= 0.00D+00
 Coeff-Com:  0.234D-01-0.132D+00 0.241D+00 0.868D+00
 Coeff:      0.234D-01-0.132D+00 0.241D+00 0.868D+00
 Gap=     0.596 Goal=   None    Shift=    0.000
 RMSDP=2.03D-05 MaxDP=1.70D-04 DE=-4.78D-06 OVMax= 2.98D-04

 Cycle   5  Pass 1  IDiag  1:
 E= -115.061881522374     Delta-E=       -0.000000518999 Rises=F Damp=F
 DIIS: error= 1.42D-05 at cycle   5 NSaved=   5.
 NSaved= 5 IEnMin= 5 EnMin= -115.061881522374     IErMin= 5 ErrMin= 1.42D-05
 ErrMax= 1.42D-05 EMaxC= 1.00D-01 BMatC= 9.50D-09 BMatP= 4.14D-07
 IDIUse=1 WtCom= 1.00D+00 WtEn= 0.00D+00
 Coeff-Com:  0.276D-02-0.809D-02-0.338D-01 0.392D-01 0.100D+01
 Coeff:      0.276D-02-0.809D-02-0.338D-01 0.392D-01 0.100D+01
 Gap=     0.596 Goal=   None    Shift=    0.000
 RMSDP=4.88D-06 MaxDP=3.70D-05 DE=-5.19D-07 OVMax= 6.53D-05

 Cycle   6  Pass 1  IDiag  1:
 E= -115.061881540970     Delta-E=       -0.000000018596 Rises=F Damp=F
 DIIS: error= 3.11D-06 at cycle   6 NSaved=   6.
 NSaved= 6 IEnMin= 6 EnMin= -115.061881540970     IErMin= 6 ErrMin= 3.11D-06
 ErrMax= 3.11D-06 EMaxC= 1.00D-01 BMatC= 8.60D-10 BMatP= 9.50D-09
 IDIUse=1 WtCom= 1.00D+00 WtEn= 0.00D+00
 Coeff-Com: -0.142D-02 0.845D-02-0.199D-01-0.570D-01 0.911D-01 0.979D+00
 Coeff:     -0.142D-02 0.845D-02-0.199D-01-0.570D-01 0.911D-01 0.979D+00
 Gap=     0.596 Goal=   None    Shift=    0.000
 RMSDP=1.20D-06 MaxDP=8.15D-06 DE=-1.86D-08 OVMax= 2.00D-05

 Cycle   7  Pass 1  IDiag  1:
 E= -115.061881542623     Delta-E=       -0.000000001653 Rises=F Damp=F
 DIIS: error= 1.09D-06 at cycle   7 NSaved=   7.
 NSaved= 7 IEnMin= 7 EnMin= -115.061881542623     IErMin= 7 ErrMin= 1.09D-06
 ErrMax= 1.09D-06 EMaxC= 1.00D-01 BMatC= 7.00D-11 BMatP= 8.60D-10
 IDIUse=1 WtCom= 1.00D+00 WtEn= 0.00D+00
 Coeff-Com: -0.188D-04-0.381D-03 0.499D-02 0.296D-02-0.866D-01-0.961D-01
 Coeff-Com:  0.118D+01
 Coeff:     -0.188D-04-0.381D-03 0.499D-02 0.296D-02-0.866D-01-0.961D-01
 Coeff:      0.118D+01
 Gap=     0.596 Goal=   None    Shift=    0.000
 RMSDP=3.51D-07 MaxDP=3.20D-06 DE=-1.65D-09 OVMax= 7.66D-06

 Cycle   8  Pass 1  IDiag  1:
 E= -115.061881542824     Delta-E=       -0.000000000201 Rises=F Damp=F
 DIIS: error= 3.78D-07 at cycle   8 NSaved=   8.
 NSaved= 8 IEnMin= 8 EnMin= -115.061881542824     IErMin= 8 ErrMin= 3.78D-07
 ErrMax= 3.78D-07 EMaxC= 1.00D-01 BMatC= 6.01D-12 BMatP= 7.00D-11
 IDIUse=1 WtCom= 1.00D+00 WtEn= 0.00D+00
 Coeff-Com:  0.145D-03-0.755D-03 0.874D-03 0.478D-02 0.132D-01-0.773D-01
 Coeff-Com: -0.272D+00 0.133D+01
 Coeff:      0.145D-03-0.755D-03 0.874D-03 0.478D-02 0.132D-01-0.773D-01
 Coeff:     -0.272D+00 0.133D+01
 Gap=     0.596 Goal=   None    Shift=    0.000
 RMSDP=1.40D-07 MaxDP=1.40D-06 DE=-2.01D-10 OVMax= 3.17D-06

 Cycle   9  Pass 1  IDiag  1:
 E= -115.061881542844     Delta-E=       -0.000000000020 Rises=F Damp=F
 DIIS: error= 6.92D-08 at cycle   9 NSaved=   9.
 NSaved= 9 IEnMin= 9 EnMin= -115.061881542844     IErMin= 9 ErrMin= 6.92D-08
 ErrMax= 6.92D-08 EMaxC= 1.00D-01 BMatC= 1.61D-13 BMatP= 6.01D-12
 IDIUse=1 WtCom= 1.00D+00 WtEn= 0.00D+00
 Coeff-Com: -0.269D-04 0.159D-03-0.374D-03-0.102D-02 0.122D-02 0.186D-01
 Coeff-Com:  0.700D-02-0.255D+00 0.123D+01
 Coeff:     -0.269D-04 0.159D-03-0.374D-03-0.102D-02 0.122D-02 0.186D-01
 Coeff:      0.700D-02-0.255D+00 0.123D+01
 Gap=     0.596 Goal=   None    Shift=    0.000
 RMSDP=2.01D-08 MaxDP=2.36D-07 DE=-2.00D-11 OVMax= 5.23D-07

 Cycle  10  Pass 1  IDiag  1:
 E= -115.061881542844     Delta-E=        0.000000000000 Rises=F Damp=F
 DIIS: error= 1.50D-08 at cycle  10 NSaved=  10.
 NSaved=10 IEnMin=10 EnMin= -115.061881542844     IErMin=10 ErrMin= 1.50D-08
 ErrMax= 1.50D-08 EMaxC= 1.00D-01 BMatC= 9.57D-15 BMatP= 1.61D-13
 IDIUse=1 WtCom= 1.00D+00 WtEn= 0.00D+00
 Coeff-Com:  0.131D-05-0.114D-04 0.570D-04 0.733D-04-0.753D-03-0.197D-02
 Coeff-Com:  0.683D-02 0.227D-01-0.367D+00 0.134D+01
 Coeff:      0.131D-05-0.114D-04 0.570D-04 0.733D-04-0.753D-03-0.197D-02
 Coeff:      0.683D-02 0.227D-01-0.367D+00 0.134D+01
 Gap=     0.596 Goal=   None    Shift=    0.000
 RMSDP=5.25D-09 MaxDP=6.20D-08 DE=-1.42D-13 OVMax= 1.32D-07

 SCF Done:  E(RHF) =  -115.061881543     A.U. after   10 cycles
             Convg  =    0.5249D-08             -V/T =  1.9990
 KE= 1.151733991019D+02 PE=-3.530493938934D+02 EE= 8.198499351505D+01
 Leave Link  502 at Sun Dec 29 12:26:48 2019, MaxMem=   91750400 cpu:       0.1
 (Enter /opt/g09gh/gaussian/g09/l701.exe)
 Compute integral first derivatives.
 ... and contract with generalized density number  0.
 Leave Link  701 at Sun Dec 29 12:26:48 2019, MaxMem=   91750400 cpu:       0.1
 (Enter /opt/g09gh/gaussian/g09/l702.exe)
 L702 exits ... SP integral derivatives will be done elsewhere.
 Leave Link  702 at Sun Dec 29 12:26:48 2019, MaxMem=   91750400 cpu:       0.0
 (Enter /opt/g09gh/gaussian/g09/l703.exe)
 Compute integral first derivatives, UseDBF=F ICtDFT=           0.
 Integral derivatives from FoFDir, PRISM(SPDF).
 Calling FoFJK, ICntrl=      2127 FMM=F ISym2X=0 I1Cent= 0 IOpClX= 0 NMat=1 NMatS=1 NMatT=0.
 FoFCou: FMM=F IPFlag=           0 FMFlag=      100000 FMFlg1=         800
         NFxFlg=           0 DoJE=F BraDBF=F KetDBF=F FulRan=T
         Omega=  0.000000  0.000000  1.000000  0.000000  0.000000 ICntrl=    2127 IOpCl=  0
         NMat0=    1 NMatS0=    1 NMatT0=    0 NMatD0=    1 NMtDS0=    0 NMtDT0=    0
         I1Cent=           0 NGrid=           0.
 Symmetry not used in FoFCou.
 Leave Link  703 at Sun Dec 29 12:26:49 2019, MaxMem=   91750400 cpu:       0.3
 (Enter /opt/g09gh/gaussian/g09/l716.exe)
 Dipole        = 3.43495103D-01 7.05850878D-01-1.18051296D-02
 ***** Axes restored to original set *****
 -------------------------------------------------------------------
 Center     Atomic                   Forces (Hartrees/Bohr)
 Number     Number              X              Y              Z
 -------------------------------------------------------------------
      1        8          -0.000965899    0.002714862   -0.002628866
      2        6           0.002108900   -0.000169124    0.000715638
      3        1          -0.000360613    0.000702687   -0.000252616
      4        1          -0.001078491   -0.000194609    0.001062537
      5        1          -0.000890225   -0.000624107   -0.000676576
      6        1           0.001186329   -0.002429708    0.001779882
 -------------------------------------------------------------------
 Cartesian Forces:  Max     0.002714862 RMS     0.001401166
 Leave Link  716 at Sun Dec 29 12:26:49 2019, MaxMem=   91750400 cpu:       0.0
 (Enter /opt/g09gh/gaussian/g09/l103.exe)

 GradGradGradGradGradGradGradGradGradGradGradGradGradGradGradGradGradGrad
 Berny optimization.
 Using GEDIIS/GDIIS optimizer.
 Internal  Forces:  Max     0.002827955 RMS     0.001028089
 Search for a local minimum.
 Step number   3 out of a maximum of  100
 All quantities printed in internal units (Hartrees-Bohrs-Radians)
 RMS Force = .10281D-02 SwitMx=.10000D-02 MixMth= 1
 Mixed Optimization -- RFO/linear search
 Update second derivatives using D2CorX and points    1    2    3
 DE= -3.35D-04 DEPred=-2.64D-04 R= 1.27D+00
 SS=  1.41D+00  RLast= 1.10D-01 DXNew= 8.4853D-01 3.2924D-01
 Trust test= 1.27D+00 RLast= 1.10D-01 DXMaxT set to 5.05D-01
 The second derivative matrix:
                          R1        R2        R3        R4        R5
           R1           0.48023
           R2           0.02628   0.56681
           R3          -0.00346   0.00889   0.34685
           R4           0.01444   0.01260   0.00212   0.34502
           R5           0.01288   0.01072   0.00167   0.00177   0.34461
           A1           0.01258  -0.00860  -0.00414  -0.00446  -0.00306
           A2          -0.01826  -0.00899  -0.00022  -0.00230  -0.00234
           A3           0.03151   0.00174  -0.00334  -0.00334  -0.00148
           A4           0.05710   0.00591  -0.00575  -0.00137   0.00066
           A5          -0.01689  -0.00808  -0.00031   0.00031  -0.00044
           A6          -0.02631  -0.00020   0.00331   0.00192   0.00067
           A7          -0.03151   0.00340   0.00501   0.00344   0.00170
           D1          -0.02463   0.00762   0.00527   0.00474   0.00291
           D2          -0.00329  -0.01966  -0.00554  -0.00413  -0.00355
           D3          -0.03364  -0.00190   0.00357   0.00292   0.00112
                          A1        A2        A3        A4        A5
           A1           0.16255
           A2          -0.00001   0.16288
           A3          -0.00011  -0.00307   0.15862
           A4           0.00412  -0.00697   0.00688   0.18240
           A5           0.00236   0.00050   0.00190   0.00045   0.15567
           A6          -0.00181   0.00314  -0.00185  -0.00958  -0.00013
           A7          -0.00295   0.00398  -0.00204  -0.01245   0.00073
           D1          -0.00275   0.00317  -0.00018  -0.00964   0.00121
           D2           0.00682  -0.00050   0.00401   0.00868  -0.00422
           D3          -0.00037   0.00417   0.00046  -0.00929  -0.00007
                          A6        A7        D1        D2        D3
           A6           0.16366
           A7           0.00446   0.16507
           D1           0.00281   0.00254   0.01209
           D2          -0.00366  -0.00396  -0.00254   0.01398
           D3           0.00257   0.00236  -0.00030  -0.00211   0.01225
 Use linear search instead of GDIIS.
     Eigenvalues ---    0.00631   0.10065   0.10456   0.15200   0.16000
     Eigenvalues ---    0.16208   0.17861   0.34223   0.34304   0.34900
     Eigenvalues ---    0.49707   0.579421000.000001000.000001000.00000
 RFO step:  Lambda=-3.01819846D-04 EMin= 6.30971849D-03
 Quartic linear search produced a step of  0.35864.
 Iteration  1 RMS(Cart)=  0.03470990 RMS(Int)=  0.00238247
 Iteration  2 RMS(Cart)=  0.00206013 RMS(Int)=  0.00001659
 Iteration  3 RMS(Cart)=  0.00000660 RMS(Int)=  0.00001595
 Iteration  4 RMS(Cart)=  0.00000000 RMS(Int)=  0.00001595
 Variable       Old X    -DE/DX   Delta X   Delta X   Delta X     New X
                                 (Linear)    (Quad)   (Total)
    R1        2.64867   0.00027  -0.01047  -0.00749  -0.01797   2.63070
    R2        1.76676   0.00283  -0.00065   0.00311   0.00246   1.76921
    R3        2.04287   0.00074   0.00117   0.00221   0.00339   2.04625
    R4        2.04751   0.00128   0.00131   0.00458   0.00589   2.05341
    R5        2.04966   0.00098   0.00058   0.00312   0.00370   2.05336
    A1        1.93334  -0.00017   0.00078   0.00275   0.00352   1.93687
    A2        1.89739  -0.00033   0.00286  -0.00189   0.00096   1.89835
    A3        1.92834   0.00100   0.00208   0.01175   0.01380   1.94214
    A4        1.95328   0.00069  -0.00501   0.00663   0.00161   1.95489
    A5        1.89805  -0.00039  -0.00106  -0.00702  -0.00810   1.88995
    A6        1.89100  -0.00047   0.00081  -0.00601  -0.00520   1.88580
    A7        1.89471  -0.00055   0.00036  -0.00418  -0.00385   1.89086
    D1       -2.40085  -0.00077  -0.02093  -0.10304  -0.12395  -2.52480
    D2        1.80078  -0.00069  -0.02261  -0.10031  -0.12291   1.67786
    D3       -0.31282  -0.00114  -0.02112  -0.10765  -0.12879  -0.44161
         Item               Value     Threshold  Converged?
 Maximum Force            0.002828     0.000450     NO 
 RMS     Force            0.001028     0.000300     NO 
 Maximum Displacement     0.089058     0.001800     NO 
 RMS     Displacement     0.034667     0.001200     NO 
 Predicted change in Energy=-1.959247D-04
 GradGradGradGradGradGradGradGradGradGradGradGradGradGradGradGradGradGrad

 Leave Link  103 at Sun Dec 29 12:26:49 2019, MaxMem=   91750400 cpu:       0.0
 (Enter /opt/g09gh/gaussian/g09/l202.exe)
                          Input orientation:                          
 ---------------------------------------------------------------------
 Center     Atomic      Atomic             Coordinates (Angstroms)
 Number     Number       Type             X           Y           Z
 ---------------------------------------------------------------------
      1          8           0        0.725640    0.083941   -0.084864
      2          6           0       -0.659485   -0.029473   -0.004069
      3          1           0       -1.106551    0.635594   -0.732314
      4          1           0       -1.021278    0.251248    0.981343
      5          1           0       -0.998475   -1.039469   -0.217781
      6          1           0        1.139163   -0.741243    0.071951
 ---------------------------------------------------------------------
                    Distance matrix (angstroms):
                    1          2          3          4          5
     1  O    0.000000
     2  C    1.392107   0.000000
     3  H    2.020009   1.082830   0.000000
     4  H    2.053414   1.086617   1.758298   0.000000
     5  H    2.062108   1.086591   1.755637   1.761922   0.000000
     6  H    0.936226   1.935854   2.754224   2.545493   2.177701
                    6
     6  H    0.000000
 Stoichiometry    CH4O
 Framework group  C1[X(CH4O)]
 Deg. of freedom    12
 Full point group                 C1      NOp   1
 Largest Abelian subgroup         C1      NOp   1
 Largest concise Abelian subgroup C1      NOp   1
                         Standard orientation:                         
 ---------------------------------------------------------------------
 Center     Atomic      Atomic             Coordinates (Angstroms)
 Number     Number       Type             X           Y           Z
 ---------------------------------------------------------------------
      1          8           0       -0.732824   -0.121240    0.000513
      2          6           0        0.652182    0.019195    0.000757
      3          1           0        1.082878   -0.774014   -0.597442
      4          1           0        1.055845   -0.054973    1.006884
      5          1           0        0.965201    0.969069   -0.424021
      6          1           0       -1.154422    0.714670    0.005932
 ---------------------------------------------------------------------
 Rotational constants (GHZ):    132.4878171     25.5747153     24.7129472
 Leave Link  202 at Sun Dec 29 12:26:49 2019, MaxMem=   91750400 cpu:       0.0
 (Enter /opt/g09gh/gaussian/g09/l301.exe)
 Standard basis: 6-311G(d) (5D, 7F)
 Ernie: Thresh=  0.10000D-02 Tol=  0.10000D-05 Strict=F.
 There are    48 symmetry adapted basis functions of A   symmetry.
 Integral buffers will be    131072 words long.
 Raffenetti 1 integral format.
 Two-electron integral symmetry is turned on.
    48 basis functions,    84 primitive gaussians,    50 cartesian basis functions
     9 alpha electrons        9 beta electrons
       nuclear repulsion energy        40.9402956494 Hartrees.
 IExCor=    0 DFT=F Ex=HF Corr=None ExCW=0 ScaHFX=  1.000000
 ScaDFX=  1.000000  1.000000  1.000000  1.000000 ScalE2=  1.000000  1.000000
 IRadAn=      0 IRanWt=     -1 IRanGd=            0 ICorTp=0
 NAtoms=    6 NActive=    6 NUniq=    6 SFac= 7.50D-01 NAtFMM=   80 NAOKFM=F Big=F
 Leave Link  301 at Sun Dec 29 12:26:49 2019, MaxMem=   91750400 cpu:       0.1
 (Enter /opt/g09gh/gaussian/g09/l302.exe)
 NPDir=0 NMtPBC=     1 NCelOv=     1 NCel=       1 NClECP=     1 NCelD=      1
         NCelK=      1 NCelE2=     1 NClLst=     1 CellRange=     0.0.
 One-electron integrals computed using PRISM.
 NBasis=    48 RedAO= T  NBF=    48
 NBsUse=    48 1.00D-06 NBFU=    48
 Leave Link  302 at Sun Dec 29 12:26:49 2019, MaxMem=   91750400 cpu:       0.1
 (Enter /opt/g09gh/gaussian/g09/l303.exe)
 DipDrv:  MaxL=1.
 Leave Link  303 at Sun Dec 29 12:26:49 2019, MaxMem=   91750400 cpu:       0.0
 (Enter /opt/g09gh/gaussian/g09/l401.exe)
 Initial guess read from the read-write file.
 B after Tr=     0.000000    0.000000    0.000000
         Rot=    1.000000    0.000000    0.000000    0.000000 Ang=   0.00 deg.
 Guess basis will be translated and rotated to current coordinates.
 Initial guess orbital symmetries:
       Occupied  (A) (A) (A) (A) (A) (A) (A) (A) (A)
       Virtual   (A) (A) (A) (A) (A) (A) (A) (A) (A) (A) (A) (A)
                 (A) (A) (A) (A) (A) (A) (A) (A) (A) (A) (A) (A)
                 (A) (A) (A) (A) (A) (A) (A) (A) (A) (A) (A) (A)
                 (A) (A) (A)
 The electronic state of the initial guess is 1-A.
 Generating alternative initial guess.
 Harris functional with IExCor=  205 diagonalized for initial guess.
 ExpMin= 1.03D-01 ExpMax= 8.59D+03 ExpMxC= 1.30D+03 IAcc=1 IRadAn=         1 AccDes= 0.00D+00
 HarFok:  IExCor=  205 AccDes= 0.00D+00 IRadAn=         1 IDoV= 1
 ScaDFX=  1.000000  1.000000  1.000000  1.000000
 FoFCou: FMM=F IPFlag=           0 FMFlag=      100000 FMFlg1=           0
         NFxFlg=           0 DoJE=T BraDBF=F KetDBF=T FulRan=T
         Omega=  0.000000  0.000000  1.000000  0.000000  0.000000 ICntrl=     500 IOpCl=  0
         NMat0=    1 NMatS0=    1 NMatT0=    0 NMatD0=    1 NMtDS0=    0 NMtDT0=    0
         I1Cent=           4 NGrid=           0.
 Petite list used in FoFCou.
 Harris En= -115.248137397154    
 Leave Link  401 at Sun Dec 29 12:26:49 2019, MaxMem=   91750400 cpu:       0.3
 (Enter /opt/g09gh/gaussian/g09/l502.exe)
 Closed shell SCF:
 Requested convergence on RMS density matrix=1.00D-08 within 128 cycles.
 Requested convergence on MAX density matrix=1.00D-06.
 Requested convergence on             energy=1.00D-06.
 No special actions if energy rises.
 Using DIIS extrapolation, IDIIS=  1040.
 Integral symmetry usage will be decided dynamically.
 Keep R1 ints in memory in canonical form, NReq=1659792.
 IEnd=       26328 IEndB=       26328 NGot=    91750400 MDV=    90929785
 LenX=    90929785 LenY=    90926844
 Symmetry not used in FoFDir.
 MinBra= 0 MaxBra= 2 Meth= 1.
 IRaf=       0 NMat=   1 IRICut=       1 DoRegI=T DoRafI=F ISym2E= 0 JSym2E=0.

 Cycle   1  Pass 1  IDiag  1:
 E= -115.058209404437    
 DIIS: error= 9.02D-03 at cycle   1 NSaved=   1.
 NSaved= 1 IEnMin= 1 EnMin= -115.058209404437     IErMin= 1 ErrMin= 9.02D-03
 ErrMax= 9.02D-03 EMaxC= 1.00D-01 BMatC= 2.16D-03 BMatP= 2.16D-03
 IDIUse=3 WtCom= 9.10D-01 WtEn= 9.02D-02
 Coeff-Com:  0.100D+01
 Coeff-En:   0.100D+01
 Coeff:      0.100D+01
 Gap=     0.595 Goal=   None    Shift=    0.000
 GapD=    0.595 DampG=2.000 DampE=1.000 DampFc=2.0000 IDamp=-1.
 RMSDP=5.80D-04 MaxDP=5.40D-03              OVMax= 1.66D-02

 Cycle   2  Pass 1  IDiag  1:
 E= -115.061720041015     Delta-E=       -0.003510636578 Rises=F Damp=F
 DIIS: error= 3.03D-03 at cycle   2 NSaved=   2.
 NSaved= 2 IEnMin= 2 EnMin= -115.061720041015     IErMin= 2 ErrMin= 3.03D-03
 ErrMax= 3.03D-03 EMaxC= 1.00D-01 BMatC= 2.02D-04 BMatP= 2.16D-03
 IDIUse=3 WtCom= 9.70D-01 WtEn= 3.03D-02
 Coeff-Com: -0.370D+00 0.137D+01
 Coeff-En:   0.000D+00 0.100D+01
 Coeff:     -0.359D+00 0.136D+01
 Gap=     0.595 Goal=   None    Shift=    0.000
 RMSDP=3.81D-04 MaxDP=3.78D-03 DE=-3.51D-03 OVMax= 8.52D-03

 Cycle   3  Pass 1  IDiag  1:
 E= -115.062202598298     Delta-E=       -0.000482557283 Rises=F Damp=F
 DIIS: error= 3.95D-04 at cycle   3 NSaved=   3.
 NSaved= 3 IEnMin= 3 EnMin= -115.062202598298     IErMin= 3 ErrMin= 3.95D-04
 ErrMax= 3.95D-04 EMaxC= 1.00D-01 BMatC= 4.76D-06 BMatP= 2.02D-04
 IDIUse=3 WtCom= 9.96D-01 WtEn= 3.95D-03
 Coeff-Com:  0.456D-01-0.275D+00 0.123D+01
 Coeff-En:   0.000D+00 0.000D+00 0.100D+01
 Coeff:      0.454D-01-0.274D+00 0.123D+01
 Gap=     0.596 Goal=   None    Shift=    0.000
[...]

 Cycle  10  Pass 1  IDiag  1:
 E= -115.063728206324     Delta-E=       -0.000000010849 Rises=F Damp=F
 DIIS: error= 2.92D-06 at cycle  10 NSaved=  10.
 NSaved=10 IEnMin=10 EnMin= -115.063728206324     IErMin=10 ErrMin= 2.92D-06
 ErrMax= 2.92D-06 EMaxC= 1.00D-01 BMatC= 1.78D-10 BMatP= 4.35D-09
 IDIUse=1 WtCom= 1.00D+00 WtEn= 0.00D+00
 Coeff-Com:  0.182D-04-0.239D-04 0.462D-04 0.346D-05-0.835D-03-0.851D-03
 Coeff-Com:  0.835D-02 0.120D-01-0.285D+00 0.127D+01
 Coeff:      0.182D-04-0.239D-04 0.462D-04 0.346D-05-0.835D-03-0.851D-03
 Coeff:      0.835D-02 0.120D-01-0.285D+00 0.127D+01
 Gap=     0.600 Goal=   None    Shift=    0.000
 RMSDP=5.01D-07 MaxDP=3.81D-06 DE=-1.08D-08 OVMax= 8.97D-06

 Cycle  11  Pass 1  IDiag  1:
 E= -115.063728206724     Delta-E=       -0.000000000400 Rises=F Damp=F
 DIIS: error= 3.87D-07 at cycle  11 NSaved=  11.
 NSaved=11 IEnMin=11 EnMin= -115.063728206724     IErMin=11 ErrMin= 3.87D-07
 ErrMax= 3.87D-07 EMaxC= 1.00D-01 BMatC= 5.16D-12 BMatP= 1.78D-10
 IDIUse=1 WtCom= 1.00D+00 WtEn= 0.00D+00
 Coeff-Com:  0.324D-05-0.445D-05 0.274D-06 0.749D-06 0.971D-04-0.557D-03
 Coeff-Com: -0.421D-03 0.680D-02-0.171D-01-0.114D+00 0.113D+01
 Coeff:      0.324D-05-0.445D-05 0.274D-06 0.749D-06 0.971D-04-0.557D-03
 Coeff:     -0.421D-03 0.680D-02-0.171D-01-0.114D+00 0.113D+01
 Gap=     0.600 Goal=   None    Shift=    0.000
 RMSDP=8.56D-08 MaxDP=6.85D-07 DE=-4.00D-10 OVMax= 1.48D-06

 Cycle  12  Pass 1  IDiag  1:
 E= -115.063728206736     Delta-E=       -0.000000000012 Rises=F Damp=F
 DIIS: error= 6.31D-08 at cycle  12 NSaved=  12.
 NSaved=12 IEnMin=12 EnMin= -115.063728206736     IErMin=12 ErrMin= 6.31D-08
 ErrMax= 6.31D-08 EMaxC= 1.00D-01 BMatC= 1.86D-13 BMatP= 5.16D-12
 IDIUse=1 WtCom= 1.00D+00 WtEn= 0.00D+00
 Coeff-Com:  0.432D-06-0.552D-06-0.761D-06 0.509D-06 0.527D-05 0.121D-03
 Coeff-Com: -0.169D-03-0.144D-02 0.115D-01-0.194D-01-0.221D+00 0.123D+01
 Coeff:      0.432D-06-0.552D-06-0.761D-06 0.509D-06 0.527D-05 0.121D-03
 Coeff:     -0.169D-03-0.144D-02 0.115D-01-0.194D-01-0.221D+00 0.123D+01
 Gap=     0.600 Goal=   None    Shift=    0.000
 RMSDP=1.83D-08 MaxDP=1.22D-07 DE=-1.16D-11 OVMax= 2.78D-07

 Cycle  13  Pass 1  IDiag  1:
 E= -115.063728206736     Delta-E=        0.000000000000 Rises=F Damp=F
 DIIS: error= 6.43D-09 at cycle  13 NSaved=  13.
 NSaved=13 IEnMin=13 EnMin= -115.063728206736     IErMin=13 ErrMin= 6.43D-09
 ErrMax= 6.43D-09 EMaxC= 1.00D-01 BMatC= 4.12D-15 BMatP= 1.86D-13
 IDIUse=1 WtCom= 1.00D+00 WtEn= 0.00D+00
 Coeff-Com:  0.157D-06-0.197D-06 0.179D-06-0.140D-06-0.229D-05-0.131D-04
 Coeff-Com:  0.467D-04 0.119D-03-0.190D-02 0.668D-02 0.983D-02-0.196D+00
 Coeff-Com:  0.118D+01
 Coeff:      0.157D-06-0.197D-06 0.179D-06-0.140D-06-0.229D-05-0.131D-04
 Coeff:      0.467D-04 0.119D-03-0.190D-02 0.668D-02 0.983D-02-0.196D+00
 Coeff:      0.118D+01
 Gap=     0.600 Goal=   None    Shift=    0.000
 RMSDP=2.39D-09 MaxDP=1.76D-08 DE=-2.84D-13 OVMax= 4.45D-08

 SCF Done:  E(RHF) =  -115.063728207     A.U. after   13 cycles
             Convg  =    0.2394D-08             -V/T =  1.9991
 KE= 1.151622170226D+02 PE=-3.530709010776D+02 EE= 8.199557551790D+01
 Leave Link  502 at Sun Dec 29 12:26:57 2019, MaxMem=   91750400 cpu:       0.1
 (Enter /opt/g09gh/gaussian/g09/l701.exe)
 Compute integral first derivatives.
 ... and contract with generalized density number  0.
 Leave Link  701 at Sun Dec 29 12:26:57 2019, MaxMem=   91750400 cpu:       0.2
 (Enter /opt/g09gh/gaussian/g09/l702.exe)
 L702 exits ... SP integral derivatives will be done elsewhere.
 Leave Link  702 at Sun Dec 29 12:26:57 2019, MaxMem=   91750400 cpu:       0.0
 (Enter /opt/g09gh/gaussian/g09/l703.exe)
 Compute integral first derivatives, UseDBF=F ICtDFT=           0.
 Integral derivatives from FoFDir, PRISM(SPDF).
 Calling FoFJK, ICntrl=      2127 FMM=F ISym2X=0 I1Cent= 0 IOpClX= 0 NMat=1 NMatS=1 NMatT=0.
 FoFCou: FMM=F IPFlag=           0 FMFlag=      100000 FMFlg1=         800
         NFxFlg=           0 DoJE=F BraDBF=F KetDBF=F FulRan=T
         Omega=  0.000000  0.000000  1.000000  0.000000  0.000000 ICntrl=    2127 IOpCl=  0
         NMat0=    1 NMatS0=    1 NMatT0=    0 NMatD0=    1 NMtDS0=    0 NMtDT0=    0
         I1Cent=           0 NGrid=           0.
 Symmetry not used in FoFCou.
 Leave Link  703 at Sun Dec 29 12:26:57 2019, MaxMem=   91750400 cpu:       0.3
 (Enter /opt/g09gh/gaussian/g09/l716.exe)
 Dipole        =-3.49085946D-01-6.71643279D-01-1.99580424D-04
 ***** Axes restored to original set *****
 -------------------------------------------------------------------
 Center     Atomic                   Forces (Hartrees/Bohr)
 Number     Number              X              Y              Z
 -------------------------------------------------------------------
      1        8          -0.000363290    0.000093219   -0.000079057
      2        6           0.000422568    0.000062877   -0.000097687
      3        1          -0.000076325    0.000049049   -0.000019317
      4        1          -0.000050514    0.000024347    0.000089387
      5        1          -0.000045519   -0.000093630   -0.000024571
      6        1           0.000113080   -0.000135863    0.000131244
 -------------------------------------------------------------------
 Cartesian Forces:  Max     0.000422568 RMS     0.000152503
 Leave Link  716 at Sun Dec 29 12:26:57 2019, MaxMem=   91750400 cpu:       0.0
 (Enter /opt/g09gh/gaussian/g09/l103.exe)

 GradGradGradGradGradGradGradGradGradGradGradGradGradGradGradGradGradGrad
 Berny optimization.
 Using GEDIIS/GDIIS optimizer.
 Internal  Forces:  Max     0.000256780 RMS     0.000100159
 Search for a local minimum.
 Step number   9 out of a maximum of  100
 All quantities printed in internal units (Hartrees-Bohrs-Radians)
 RMS Force = .10016D-03 SwitMx=.10000D-02 MixMth= 2
 Mixed Optimization -- En-DIIS/RFO-DIIS
 Swaping is turned off.
 Update second derivatives using D2CorX and points    5    6    7    8    9
 DE= -3.57D-06 DEPred=-4.26D-06 R= 8.37D-01
 SS=  1.41D+00  RLast= 3.52D-02 DXNew= 1.8544D+00 1.0556D-01
 Trust test= 8.37D-01 RLast= 3.52D-02 DXMaxT set to 1.10D+00
 The second derivative matrix:
                          R1        R2        R3        R4        R5
           R1           0.43306
           R2           0.00498   0.55834
           R3           0.01230   0.01402   0.34859
           R4           0.01656   0.00625  -0.00132   0.33903
           R5           0.02385   0.00894   0.00099  -0.00391   0.34205
           A1           0.02892   0.01273   0.00369   0.00167   0.00345
           A2           0.02857   0.01735   0.00775  -0.00295   0.00317
           A3           0.00313  -0.00646  -0.00773  -0.00099  -0.00486
           A4           0.05325  -0.00749  -0.00721  -0.00510  -0.00158
           A5          -0.02219  -0.00646  -0.00001   0.00287   0.00375
           A6          -0.03272  -0.01244  -0.00148  -0.00273  -0.00570
           A7          -0.03171   0.01226   0.00804   0.00843   0.00517
           D1          -0.01729  -0.00412  -0.00124  -0.00131  -0.00617
           D2           0.00806  -0.01937  -0.00872  -0.00575  -0.00214
           D3           0.00569   0.02396   0.01036   0.00713   0.00970
                          A1        A2        A3        A4        A5
           A1           0.17577
           A2           0.01457   0.17831
           A3          -0.00198  -0.01189   0.17017
           A4           0.00483  -0.00218   0.00229   0.18276
           A5          -0.00705  -0.00286  -0.00110   0.00343   0.15553
           A6          -0.00755  -0.01069   0.00337  -0.00780   0.00440
           A7          -0.00175   0.01001  -0.00282  -0.01707  -0.00039
           D1          -0.00344  -0.00995   0.00669  -0.00871   0.00434
           D2          -0.00552  -0.01274   0.00291   0.01863  -0.00248
           D3           0.00583   0.02081  -0.00986  -0.00910  -0.00111
                          A6        A7        D1        D2        D3
           A6           0.16302
           A7           0.00711   0.16266
           D1           0.00182   0.00527   0.01080
           D2          -0.00112  -0.00510  -0.00430   0.01616
           D3           0.00018  -0.00044  -0.00611  -0.00622   0.01574
     Eigenvalues ---    0.00309   0.10496   0.10730   0.15251   0.16914
     Eigenvalues ---    0.17518   0.20103   0.33250   0.34398   0.34907
     Eigenvalues ---    0.46638   0.563831000.000001000.000001000.00000
 En-DIIS/RFO-DIIS IScMMF=        0 using points:     9    8    7
 RFO step:  Lambda=-2.49803653D-07.
 DIIS coeffs:      0.79701      0.16472      0.03827
 Iteration  1 RMS(Cart)=  0.00069674 RMS(Int)=  0.00000085
 Iteration  2 RMS(Cart)=  0.00000071 RMS(Int)=  0.00000018
 Variable       Old X    -DE/DX   Delta X   Delta X   Delta X     New X
                                  (DIIS)     (GDIIS)  (Total)
    R1        2.64254  -0.00026  -0.00023  -0.00054  -0.00077   2.64177
    R2        1.77389   0.00022   0.00034   0.00003   0.00037   1.77426
    R3        2.04122   0.00008   0.00019   0.00005   0.00024   2.04146
    R4        2.05435   0.00010   0.00032   0.00003   0.00035   2.05470
    R5        2.05434   0.00011   0.00033   0.00004   0.00037   2.05471
    A1        1.92006   0.00002   0.00005   0.00005   0.00010   1.92016
    A2        1.87127   0.00007   0.00067  -0.00026   0.00040   1.87167
    A3        1.95381   0.00003   0.00000   0.00024   0.00024   1.95404
    A4        1.95399  -0.00001  -0.00007   0.00028   0.00020   1.95420
    A5        1.89259  -0.00004  -0.00029  -0.00014  -0.00043   1.89216
    A6        1.89240  -0.00002   0.00002  -0.00021  -0.00019   1.89221
    A7        1.89782  -0.00002  -0.00032   0.00007  -0.00025   1.89757
    D1       -3.13964  -0.00001  -0.00112  -0.00128  -0.00240   3.14114
    D2        1.07003  -0.00001  -0.00119  -0.00108  -0.00227   1.06776
    D3       -1.06625   0.00000  -0.00072  -0.00154  -0.00226  -1.06851
         Item               Value     Threshold  Converged?
 Maximum Force            0.000257     0.000450     YES
 RMS     Force            0.000100     0.000300     YES
 Maximum Displacement     0.001409     0.001800     YES
 RMS     Displacement     0.000697     0.001200     YES
 Predicted change in Energy=-2.392432D-07
 Optimization completed.
    -- Stationary point found.
                           ----------------------------
                           !   Optimized Parameters   !
                           ! (Angstroms and Degrees)  !
 --------------------------                            --------------------------
 ! Name  Definition              Value          Derivative Info.                !
 --------------------------------------------------------------------------------
 ! R1    R(1,2)                  1.3984         -DE/DX =   -0.0003              !
 ! R2    R(1,6)                  0.9387         -DE/DX =    0.0002              !
 ! R3    R(2,3)                  1.0802         -DE/DX =    0.0001              !
 ! R4    R(2,4)                  1.0871         -DE/DX =    0.0001              !
 ! R5    R(2,5)                  1.0871         -DE/DX =    0.0001              !
 ! A1    A(2,1,6)              110.0115         -DE/DX =    0.0                 !
 ! A2    A(1,2,3)              107.2158         -DE/DX =    0.0001              !
 ! A3    A(1,2,4)              111.945          -DE/DX =    0.0                 !
 ! A4    A(1,2,5)              111.9556         -DE/DX =    0.0                 !
 ! A5    A(3,2,4)              108.4372         -DE/DX =    0.0                 !
 ! A6    A(3,2,5)              108.4266         -DE/DX =    0.0                 !
 ! A7    A(4,2,5)              108.737          -DE/DX =    0.0                 !
 ! D1    D(6,1,2,3)            180.1116         -DE/DX =    0.0                 !
 ! D2    D(6,1,2,4)             61.3081         -DE/DX =    0.0                 !
 ! D3    D(6,1,2,5)            -61.0916         -DE/DX =    0.0                 !
 --------------------------------------------------------------------------------
 GradGradGradGradGradGradGradGradGradGradGradGradGradGradGradGradGradGrad

 Largest change from initial coordinates is atom    3       2.715 Angstoms.
 Leave Link  103 at Sun Dec 29 12:26:57 2019, MaxMem=   91750400 cpu:       0.0
 (Enter /opt/g09gh/gaussian/g09/l202.exe)
                          Input orientation:                          
 ---------------------------------------------------------------------
 Center     Atomic      Atomic             Coordinates (Angstroms)
 Number     Number       Type             X           Y           Z
 ---------------------------------------------------------------------
      1          8           0        0.714039    0.000426   -0.260183
      2          6           0       -0.665401   -0.053212   -0.037206
      3          1           0       -1.122531    0.681723   -0.683476
      4          1           0       -0.920294    0.187755    0.991768
      5          1           0       -1.078754   -1.028905   -0.280050
      6          1           0        1.151953   -0.627190    0.283412
 ---------------------------------------------------------------------
                    Distance matrix (angstroms):
                    1          2          3          4          5
     1  O    0.000000
     2  C    1.398374   0.000000
     3  H    2.004079   1.080168   0.000000
     4  H    2.067248   1.087117   1.758223   0.000000
     5  H    2.067371   1.087112   1.758101   1.767171   0.000000
     6  H    0.938704   1.932621   2.796677   2.336688   2.335577
                    6
     6  H    0.000000
 Stoichiometry    CH4O
 Framework group  C1[X(CH4O)]
 Deg. of freedom    12
 Full point group                 C1      NOp   1
 Largest Abelian subgroup         C1      NOp   1
 Largest concise Abelian subgroup C1      NOp   1
                         Standard orientation:                         
 ---------------------------------------------------------------------
 Center     Atomic      Atomic             Coordinates (Angstroms)
 Number     Number       Type             X           Y           Z
 ---------------------------------------------------------------------
      1          8           0        0.736021    0.119458    0.000013
      2          6           0       -0.655418   -0.019638    0.000011
      3          1           0       -1.076162    0.975216   -0.001869
      4          1           0       -1.011512   -0.541868    0.884485
      5          1           0       -1.011388   -0.544946   -0.882683
      6          1           0        1.143397   -0.726243   -0.000099
 ---------------------------------------------------------------------
 Rotational constants (GHZ):    131.6956442     25.4522954     24.5973476
 Leave Link  202 at Sun Dec 29 12:26:57 2019, MaxMem=   91750400 cpu:       0.0
 (Enter /opt/g09gh/gaussian/g09/l601.exe)
 Copying SCF densities to generalized density rwf, IOpCl= 0 IROHF=0.

 **********************************************************************

            Population analysis using the SCF density.

 **********************************************************************

 Orbital symmetries:
       Occupied  (A) (A) (A) (A) (A) (A) (A) (A) (A)
       Virtual   (A) (A) (A) (A) (A) (A) (A) (A) (A) (A) (A) (A)
                 (A) (A) (A) (A) (A) (A) (A) (A) (A) (A) (A) (A)
                 (A) (A) (A) (A) (A) (A) (A) (A) (A) (A) (A) (A)
                 (A) (A) (A)
 The electronic state is 1-A.
 Alpha  occ. eigenvalues --  -20.54161 -11.26478  -1.36434  -0.92842  -0.69695
 Alpha  occ. eigenvalues --   -0.62229  -0.59723  -0.49817  -0.44497
 Alpha virt. eigenvalues --    0.15463   0.18914   0.22731   0.23397   0.34615
 Alpha virt. eigenvalues --    0.46131   0.48402   0.59634   0.70016   0.73728
 Alpha virt. eigenvalues --    0.79108   0.80584   0.94606   1.06465   1.07996
 Alpha virt. eigenvalues --    1.17523   1.54679   1.60223   1.69558   1.76420
 Alpha virt. eigenvalues --    1.77087   2.00201   2.36816   2.61932   2.70604
 Alpha virt. eigenvalues --    2.72495   3.16488   3.25708   3.37819   3.42109
 Alpha virt. eigenvalues --    3.51649   3.57719   3.83025   4.27329   5.38589
 Alpha virt. eigenvalues --    5.54237   5.93195  24.56774  51.52760
          Condensed to atoms (all electrons):
              1          2          3          4          5          6
     1  O    8.263252   0.217558  -0.028364  -0.034337  -0.034293   0.269328
     2  C    0.217558   4.979197   0.391904   0.394313   0.394308  -0.049587
     3  H   -0.028364   0.391904   0.485440  -0.032905  -0.032893   0.007286
     4  H   -0.034337   0.394313  -0.032905   0.538046  -0.040915  -0.004240
     5  H   -0.034293   0.394308  -0.032893  -0.040915   0.538072  -0.004280
     6  H    0.269328  -0.049587   0.007286  -0.004240  -0.004280   0.370225
 Mulliken atomic charges:
              1
     1  O   -0.653144
     2  C   -0.327693
     3  H    0.209530
     4  H    0.180038
     5  H    0.180000
     6  H    0.411268
 Sum of Mulliken atomic charges =   0.00000
 Mulliken charges with hydrogens summed into heavy atoms:
              1
     1  O   -0.241876
     2  C    0.241876
 Sum of Mulliken charges with hydrogens summed into heavy atoms =   0.00000
 Electronic spatial extent (au):  <R**2>=             82.6864
 Charge=              0.0000 electrons
 Dipole moment (field-independent basis, Debye):
    X=             -0.8873    Y=             -1.7071    Z=             -0.0005  Tot=              1.9240
 Quadrupole moment (field-independent basis, Debye-Ang):
   XX=            -12.6398   YY=            -12.0932   ZZ=            -13.6195
   XY=             -2.4344   XZ=              0.0002   YZ=             -0.0002
 Traceless Quadrupole moment (field-independent basis, Debye-Ang):
   XX=              0.1444   YY=              0.6910   ZZ=             -0.8353
   XY=             -2.4344   XZ=              0.0002   YZ=             -0.0002
 Octapole moment (field-independent basis, Debye-Ang**2):
  XXX=              4.4458  YYY=             -0.6272  ZZZ=              0.0020  XYY=              1.7650
  XXY=             -2.5063  XXZ=             -0.0011  XZZ=              0.5104  YZZ=             -0.6741
  YYZ=             -0.0030  XYZ=              0.0007
 Hexadecapole moment (field-independent basis, Debye-Ang**3):
 XXXX=            -58.4159 YYYY=            -19.0608 ZZZZ=            -18.9842 XXXY=             -4.0955
 XXXZ=              0.0007 YYYX=             -2.9844 YYYZ=             -0.0003 ZZZX=             -0.0026
 ZZZY=             -0.0004 XXYY=            -11.8887 XXZZ=            -13.5210 YYZZ=             -6.4449
 XXYZ=             -0.0006 YYXZ=              0.0033 ZZXY=              0.0529
 N-N= 4.084938033033D+01 E-N=-3.530709010607D+02  KE= 1.151622170226D+02
 No NMR shielding tensors so no spin-rotation constants.
 Leave Link  601 at Sun Dec 29 12:26:57 2019, MaxMem=   91750400 cpu:       0.1
 (Enter /opt/g09gh/gaussian/g09/l9999.exe)
 1\1\GINC-NODE36\FOpt\RHF\6-311G(d)\C1H4O1\BDW2292\29-Dec-2019\0\\#P op
 t=(,maxcycle=400) HF/6-311G* MaxDisk=100GB\\methanol Rotatable Bond Op
 timization on node36.bme.utexas.edu\\0,1\O,0.7140389494,0.0004260126,-
 0.26018266\C,-0.6654011044,-0.0532116972,-0.0372059042\H,-1.1225306294
 ,0.6817233339,-0.68347608\H,-0.9202938333,0.1877554392,0.9917679168\H,
 -1.0787538543,-1.0289052982,-0.2800495024\H,1.151953472,-0.6271897904,
 0.2834122299\\Version=EM64L-G09RevA.02\State=1-A\HF=-115.0637282\RMSD=
 2.394e-09\RMSF=1.525e-04\Dipole=-0.3216254,-0.4756544,0.4932299\Quadru
 pole=0.2405232,0.0664988,-0.307022,-1.3656406,1.1947422,-0.485445\PG=C
 01 [X(C1H4O1)]\\@


 ...THE PHYSICISTS HAVE MADE THEIR UNIVERSE, AND IF YOU DO NOT LIKE
 IT, YOU MUST MAKE YOUR OWN.
                               -- E. R. HARRISON IN "COSMOLOGY" (1980)
 Job cpu time:  0 days  0 hours  0 minutes 11.8 seconds.
 File lengths (MBytes):  RWF=      5 Int=      0 D2E=      0 Chk=      1 Scr=      1
 Normal termination of Gaussian 09 at Sun Dec 29 12:26:57 2019.
