6
methanol-opt-6-1-2-3-313.log	Energy:  -72203.5791295
O          0.73586        0.11951        0.00000
C         -0.65519       -0.01964        0.00000
H         -1.01136       -0.54448       -0.88312
H         -1.07655        0.97508       -0.00110
H         -1.01154       -0.54260        0.88417
H          1.14366       -0.72622        0.00003
