6
methanol-opt-6-1-2-3-061.log	Energy:  -72203.5791107
O         -0.73592        0.11952        0.00000
C          0.65519       -0.01963        0.00000
H          1.01157       -0.54357       -0.88360
H          1.01157       -0.54357        0.88360
H          1.07680        0.97501       -0.00000
H         -1.14376       -0.72622        0.00000
