6
methanol-opt-6-1-2-3-229.log	Energy:  -72203.5789883
O          0.73602        0.11946        0.00001
C         -0.65542       -0.01964        0.00001
H         -1.07616        0.97522       -0.00187
H         -1.01151       -0.54187        0.88448
H         -1.01139       -0.54495       -0.88268
H          1.14340       -0.72624       -0.00010
