 Entering Gaussian System, Link 0=g09
 Input=methanol-opt-6-1-2-3-145.com
 Output=methanol-opt-6-1-2-3-145.log
 Initial command:
 /opt/g09gh/gaussian/g09/l1.exe /scratch/bdw2292/Gau-methanol/Gau-40282.inp -scrdir=/scratch/bdw2292/Gau-methanol/
 Entering Link 1 = /opt/g09gh/gaussian/g09/l1.exe PID=     40283.
  
 Copyright (c) 1988,1990,1992,1993,1995,1998,2003,2009, Gaussian, Inc.
                  All Rights Reserved.
  
 This is part of the Gaussian(R) 09 program.  It is based on
 the Gaussian(R) 03 system (copyright 2003, Gaussian, Inc.),
 the Gaussian(R) 98 system (copyright 1998, Gaussian, Inc.),
 the Gaussian(R) 94 system (copyright 1995, Gaussian, Inc.),
 the Gaussian 92(TM) system (copyright 1992, Gaussian, Inc.),
 the Gaussian 90(TM) system (copyright 1990, Gaussian, Inc.),
 the Gaussian 88(TM) system (copyright 1988, Gaussian, Inc.),
 the Gaussian 86(TM) system (copyright 1986, Carnegie Mellon
 University), and the Gaussian 82(TM) system (copyright 1983,
 Carnegie Mellon University). Gaussian is a federally registered
 trademark of Gaussian, Inc.
  
 This software contains proprietary and confidential information,
 including trade secrets, belonging to Gaussian, Inc.
  
 This software is provided under written license and may be
 used, copied, transmitted, or stored only in accord with that
 written license.
  
 The following legend is applicable only to US Government
 contracts under FAR:
  
                    RESTRICTED RIGHTS LEGEND
  
 Use, reproduction and disclosure by the US Government is
 subject to restrictions as set forth in subparagraphs (a)
 and (c) of the Commercial Computer Software - Restricted
 Rights clause in FAR 52.227-19.
  
 Gaussian, Inc.
 340 Quinnipiac St., Bldg. 40, Wallingford CT 06492
  
  
 ---------------------------------------------------------------
 Warning -- This program may not be used in any manner that
 competes with the business of Gaussian, Inc. or will provide
 assistance to any competitor of Gaussian, Inc.  The licensee
 of this program is prohibited from giving any competitor of
 Gaussian, Inc. access to this program.  By using this program,
 the user acknowledges that Gaussian, Inc. is engaged in the
 business of creating and licensing software in the field of
 computational chemistry and represents and warrants to the
 licensee that it is not a competitor of Gaussian, Inc. and that
 it will not use this program in any manner prohibited above.
 ---------------------------------------------------------------
  

 Cite this work as:
 Gaussian 09, Revision A.02,
 M. J. Frisch, G. W. Trucks, H. B. Schlegel, G. E. Scuseria, 
 M. A. Robb, J. R. Cheeseman, G. Scalmani, V. Barone, B. Mennucci, 
 G. A. Petersson, H. Nakatsuji, M. Caricato, X. Li, H. P. Hratchian, 
 A. F. Izmaylov, J. Bloino, G. Zheng, J. L. Sonnenberg, M. Hada, 
 M. Ehara, K. Toyota, R. Fukuda, J. Hasegawa, M. Ishida, T. Nakajima, 
 Y. Honda, O. Kitao, H. Nakai, T. Vreven, J. A. Montgomery, Jr., 
 J. E. Peralta, F. Ogliaro, M. Bearpark, J. J. Heyd, E. Brothers, 
 K. N. Kudin, V. N. Staroverov, R. Kobayashi, J. Normand, 
 K. Raghavachari, A. Rendell, J. C. Burant, S. S. Iyengar, J. Tomasi, 
 M. Cossi, N. Rega, J. M. Millam, M. Klene, J. E. Knox, J. B. Cross, 
 V. Bakken, C. Adamo, J. Jaramillo, R. Gomperts, R. E. Stratmann, 
 O. Yazyev, A. J. Austin, R. Cammi, C. Pomelli, J. W. Ochterski, 
 R. L. Martin, K. Morokuma, V. G. Zakrzewski, G. A. Voth, 
 P. Salvador, J. J. Dannenberg, S. Dapprich, A. D. Daniels, 
 O. Farkas, J. B. Foresman, J. V. Ortiz, J. Cioslowski, 
 and D. J. Fox, Gaussian, Inc., Wallingford CT, 2009.
 
 ******************************************
 Gaussian 09:  EM64L-G09RevA.02 11-Jun-2009
                29-Dec-2019 
 ******************************************
 %RWF=/scratch/bdw2292/Gau-methanol/,100GB
 %Nosave
 %Chk=methanol-opt-6-1-2-3-145.chk
 %Mem=700MB
 %Nproc=1
 Will use up to    1 processors via shared memory.
 -----------------------------------------------
 #P opt=(,maxcycle=400) HF/6-311G* MaxDisk=100GB
 -----------------------------------------------
 1/6=400,18=20,19=15,38=1/1,3;
 2/9=110,12=2,17=6,18=5,40=1/2;
 3/5=4,6=6,7=1,11=9,16=1,25=1,30=1,71=1/1,2,3;
 4//1;
 5/5=2,38=5/2;
 6/7=2,8=2,9=2,10=2,28=1/1;
 7//1,2,3,16;
 1/6=400,18=20,19=15/3(2);
 2/9=110/2;
 99//99;
 2/9=110/2;
 3/5=4,6=6,7=1,11=9,16=1,25=1,30=1,71=1/1,2,3;
 4/5=5,16=3/1;
 5/5=2,38=5/2;
 7//1,2,3,16;
 1/6=400,18=20,19=15/3(-5);
 2/9=110/2;
 6/7=2,8=2,9=2,10=2,19=2,28=1/1;
 99/9=1/99;
 Leave Link    1 at Sun Dec 29 12:24:58 2019, MaxMem=   91750400 cpu:       0.0
 (Enter /opt/g09gh/gaussian/g09/l101.exe)
 -------------------------------------------------------------
 methanol Rotatable Bond Optimization on node36.bme.utexas.edu
 -------------------------------------------------------------
 Symbolic Z-matrix:
 Charge =  0 Multiplicity = 1
 O                     0.74448   0.11617   0.00126 
 C                    -0.68509  -0.01029  -0.00076 
 H                    -1.10454   0.80504   0.5959 
 H                    -0.95523  -0.99028   0.4041 
 H                    -1.02564   0.06982  -1.0379 
 H                     1.10169  -0.78994   0.00102 
 
 NAtoms=      6 NQM=      6 NQMF=      0 NMic=      0 NMicF=      0 NTot=      6.
                    Isotopes and Nuclear Properties:
 (Nuclear quadrupole moments (NQMom) in fm**2, nuclear magnetic moments (NMagM)
  in nuclear magnetons)

  Atom         1           2           3           4           5           6
 IAtWgt=          16          12           1           1           1           1
 AtmWgt=  15.9949146  12.0000000   1.0078250   1.0078250   1.0078250   1.0078250
 NucSpn=           0           0           1           1           1           1
 AtZEff=   0.0000000   0.0000000   0.0000000   0.0000000   0.0000000   0.0000000
 NQMom=    0.0000000   0.0000000   0.0000000   0.0000000   0.0000000   0.0000000
 NMagM=    0.0000000   0.0000000   2.7928460   2.7928460   2.7928460   2.7928460
 Leave Link  101 at Sun Dec 29 12:24:58 2019, MaxMem=   91750400 cpu:       0.1
 (Enter /opt/g09gh/gaussian/g09/l103.exe)

 GradGradGradGradGradGradGradGradGradGradGradGradGradGradGradGradGradGrad
 Berny optimization.
 Initialization pass.
                           ----------------------------
                           !    Initial Parameters    !
                           ! (Angstroms and Degrees)  !
 --------------------------                            --------------------------
 ! Name  Definition              Value          Derivative Info.                !
 --------------------------------------------------------------------------------
 ! R1    R(1,2)                  1.4352         estimate D2E/DX2                !
 ! R2    R(1,6)                  0.974          estimate D2E/DX2                !
 ! R3    R(2,3)                  1.0939         estimate D2E/DX2                !
 ! R4    R(2,4)                  1.0942         estimate D2E/DX2                !
 ! R5    R(2,5)                  1.0946         estimate D2E/DX2                !
 ! A1    A(2,1,6)              106.4605         estimate D2E/DX2                !
 ! A2    A(1,2,3)              108.3909         estimate D2E/DX2                !
 ! A3    A(1,2,4)              108.9244         estimate D2E/DX2                !
 ! A4    A(1,2,5)              107.7465         estimate D2E/DX2                !
 ! A5    A(3,2,4)              111.7805         estimate D2E/DX2                !
 ! A6    A(3,2,5)              110.0577         estimate D2E/DX2                !
 ! A7    A(4,2,5)              109.8361         estimate D2E/DX2                !
 ! D1    D(6,1,2,3)            144.9218         estimate D2E/DX2                !
 ! D2    D(6,1,2,4)             23.0947         estimate D2E/DX2                !
 ! D3    D(6,1,2,5)            -96.0075         estimate D2E/DX2                !
 --------------------------------------------------------------------------------
 Trust Radius=3.00D-01 FncErr=1.00D-07 GrdErr=1.00D-07
 Number of steps in this run= 100 maximum allowed number of steps= 100.
 GradGradGradGradGradGradGradGradGradGradGradGradGradGradGradGradGradGrad

 Leave Link  103 at Sun Dec 29 12:24:58 2019, MaxMem=   91750400 cpu:       0.0
 (Enter /opt/g09gh/gaussian/g09/l202.exe)
                          Input orientation:                          
 ---------------------------------------------------------------------
 Center     Atomic      Atomic             Coordinates (Angstroms)
 Number     Number       Type             X           Y           Z
 ---------------------------------------------------------------------
      1          8           0        0.744476    0.116167    0.001264
      2          6           0       -0.685092   -0.010291   -0.000758
      3          1           0       -1.104541    0.805035    0.595898
      4          1           0       -0.955231   -0.990280    0.404098
      5          1           0       -1.025641    0.069817   -1.037896
      6          1           0        1.101688   -0.789942    0.001021
 ---------------------------------------------------------------------
                    Distance matrix (angstroms):
                    1          2          3          4          5
     1  O    0.000000
     2  C    1.435152   0.000000
     3  H    2.060823   1.093934   0.000000
     4  H    2.067729   1.094195   1.811694   0.000000
     5  H    2.053123   1.094553   1.793336   1.791120   0.000000
     6  H    0.973978   1.949472   2.786625   2.105593   2.518742
                    6
     6  H    0.000000
 Stoichiometry    CH4O
 Framework group  C1[X(CH4O)]
 Deg. of freedom    12
 Full point group                 C1      NOp   1
 Largest Abelian subgroup         C1      NOp   1
 Largest concise Abelian subgroup C1      NOp   1
                         Standard orientation:                         
 ---------------------------------------------------------------------
 Center     Atomic      Atomic             Coordinates (Angstroms)
 Number     Number       Type             X           Y           Z
 ---------------------------------------------------------------------
      1          8           0        0.750148   -0.130500    0.000713
      2          6           0       -0.677170    0.019191   -0.003316
      3          1           0       -1.107958   -0.795342   -0.592935
      4          1           0       -0.930033    0.999198   -0.419138
      5          1           0       -1.022247   -0.044632    1.033455
      6          1           0        1.122068    0.769637   -0.007188
 ---------------------------------------------------------------------
 Rotational constants (GHZ):    124.4165002     24.6932437     23.7128762
 Leave Link  202 at Sun Dec 29 12:24:58 2019, MaxMem=   91750400 cpu:       0.0
 (Enter /opt/g09gh/gaussian/g09/l301.exe)
 Standard basis: 6-311G(d) (5D, 7F)
 Ernie: Thresh=  0.10000D-02 Tol=  0.10000D-05 Strict=F.
 There are    48 symmetry adapted basis functions of A   symmetry.
 Integral buffers will be    131072 words long.
 Raffenetti 1 integral format.
 Two-electron integral symmetry is turned on.
    48 basis functions,    84 primitive gaussians,    50 cartesian basis functions
     9 alpha electrons        9 beta electrons
       nuclear repulsion energy        40.0764566489 Hartrees.
 IExCor=    0 DFT=F Ex=HF Corr=None ExCW=0 ScaHFX=  1.000000
 ScaDFX=  1.000000  1.000000  1.000000  1.000000 ScalE2=  1.000000  1.000000
 IRadAn=      0 IRanWt=     -1 IRanGd=            0 ICorTp=0
 NAtoms=    6 NActive=    6 NUniq=    6 SFac= 7.50D-01 NAtFMM=   80 NAOKFM=F Big=F
 Leave Link  301 at Sun Dec 29 12:24:58 2019, MaxMem=   91750400 cpu:       0.1
 (Enter /opt/g09gh/gaussian/g09/l302.exe)
 NPDir=0 NMtPBC=     1 NCelOv=     1 NCel=       1 NClECP=     1 NCelD=      1
         NCelK=      1 NCelE2=     1 NClLst=     1 CellRange=     0.0.
 One-electron integrals computed using PRISM.
 NBasis=    48 RedAO= T  NBF=    48
 NBsUse=    48 1.00D-06 NBFU=    48
 Leave Link  302 at Sun Dec 29 12:24:58 2019, MaxMem=   91750400 cpu:       0.1
 (Enter /opt/g09gh/gaussian/g09/l303.exe)
 DipDrv:  MaxL=1.
 Leave Link  303 at Sun Dec 29 12:24:58 2019, MaxMem=   91750400 cpu:       0.0
 (Enter /opt/g09gh/gaussian/g09/l401.exe)
 Harris functional with IExCor=  205 diagonalized for initial guess.
 ExpMin= 1.03D-01 ExpMax= 8.59D+03 ExpMxC= 1.30D+03 IAcc=1 IRadAn=         1 AccDes= 0.00D+00
 HarFok:  IExCor=  205 AccDes= 0.00D+00 IRadAn=         1 IDoV= 1
 ScaDFX=  1.000000  1.000000  1.000000  1.000000
 FoFCou: FMM=F IPFlag=           0 FMFlag=      100000 FMFlg1=           0
         NFxFlg=           0 DoJE=T BraDBF=F KetDBF=T FulRan=T
         Omega=  0.000000  0.000000  1.000000  0.000000  0.000000 ICntrl=     500 IOpCl=  0
         NMat0=    1 NMatS0=    1 NMatT0=    0 NMatD0=    1 NMtDS0=    0 NMtDT0=    0
         I1Cent=           4 NGrid=           0.
 Petite list used in FoFCou.
 Harris En= -115.242246165027    
 Initial guess orbital symmetries:
       Occupied  (A) (A) (A) (A) (A) (A) (A) (A) (A)
       Virtual   (A) (A) (A) (A) (A) (A) (A) (A) (A) (A) (A) (A)
                 (A) (A) (A) (A) (A) (A) (A) (A) (A) (A) (A) (A)
                 (A) (A) (A) (A) (A) (A) (A) (A) (A) (A) (A) (A)
                 (A) (A) (A)
 The electronic state of the initial guess is 1-A.
 Leave Link  401 at Sun Dec 29 12:24:58 2019, MaxMem=   91750400 cpu:       0.2
 (Enter /opt/g09gh/gaussian/g09/l502.exe)
 Closed shell SCF:
 Requested convergence on RMS density matrix=1.00D-08 within 128 cycles.
 Requested convergence on MAX density matrix=1.00D-06.
 Requested convergence on             energy=1.00D-06.
 No special actions if energy rises.
 Using DIIS extrapolation, IDIIS=  1040.
 Integral symmetry usage will be decided dynamically.
 Keep R1 ints in memory in canonical form, NReq=1659792.
 IEnd=       26328 IEndB=       26328 NGot=    91750400 MDV=    90929785
 LenX=    90929785 LenY=    90926844
 Symmetry not used in FoFDir.
 MinBra= 0 MaxBra= 2 Meth= 1.
 IRaf=       0 NMat=   1 IRICut=       1 DoRegI=T DoRafI=F ISym2E= 0 JSym2E=0.

 Cycle   1  Pass 1  IDiag  1:
 E= -114.937597300352    
 DIIS: error= 5.87D-02 at cycle   1 NSaved=   1.
 NSaved= 1 IEnMin= 1 EnMin= -114.937597300352     IErMin= 1 ErrMin= 5.87D-02
 ErrMax= 5.87D-02 EMaxC= 1.00D-01 BMatC= 2.53D-01 BMatP= 2.53D-01
 IDIUse=3 WtCom= 4.13D-01 WtEn= 5.87D-01
 Coeff-Com:  0.100D+01
 Coeff-En:   0.100D+01
 Coeff:      0.100D+01
 Gap=     0.567 Goal=   None    Shift=    0.000
 GapD=    0.567 DampG=2.000 DampE=0.500 DampFc=1.0000 IDamp=-1.
 RMSDP=5.98D-03 MaxDP=8.20D-02              OVMax= 1.05D-01

 Cycle   2  Pass 1  IDiag  1:
 E= -115.034457471125     Delta-E=       -0.096860170772 Rises=F Damp=F
 DIIS: error= 2.70D-02 at cycle   2 NSaved=   2.
 NSaved= 2 IEnMin= 2 EnMin= -115.034457471125     IErMin= 2 ErrMin= 2.70D-02
 ErrMax= 2.70D-02 EMaxC= 1.00D-01 BMatC= 3.51D-02 BMatP= 2.53D-01
 IDIUse=3 WtCom= 7.30D-01 WtEn= 2.70D-01
 Coeff-Com:  0.218D+00 0.782D+00
 Coeff-En:   0.000D+00 0.100D+01
 Coeff:      0.159D+00 0.841D+00
 Gap=     0.627 Goal=   None    Shift=    0.000
 RMSDP=2.90D-03 MaxDP=4.57D-02 DE=-9.69D-02 OVMax= 4.10D-02

 Cycle   3  Pass 1  IDiag  1:
 E= -115.056257572454     Delta-E=       -0.021800101329 Rises=F Damp=F
 DIIS: error= 8.44D-03 at cycle   3 NSaved=   3.
 NSaved= 3 IEnMin= 3 EnMin= -115.056257572454     IErMin= 3 ErrMin= 8.44D-03
 ErrMax= 8.44D-03 EMaxC= 1.00D-01 BMatC= 3.80D-03 BMatP= 3.51D-02
 IDIUse=3 WtCom= 9.16D-01 WtEn= 8.44D-02
 Coeff-Com: -0.140D-01 0.224D+00 0.790D+00
 Coeff-En:   0.000D+00 0.000D+00 0.100D+01
 Coeff:     -0.128D-01 0.205D+00 0.808D+00
 Gap=     0.591 Goal=   None    Shift=    0.000
 RMSDP=6.62D-04 MaxDP=1.06D-02 DE=-2.18D-02 OVMax= 1.27D-02

 Cycle   4  Pass 1  IDiag  1:
 E= -115.058674584696     Delta-E=       -0.002417012242 Rises=F Damp=F
 DIIS: error= 1.38D-03 at cycle   4 NSaved=   4.
 NSaved= 4 IEnMin= 4 EnMin= -115.058674584696     IErMin= 4 ErrMin= 1.38D-03
 ErrMax= 1.38D-03 EMaxC= 1.00D-01 BMatC= 9.78D-05 BMatP= 3.80D-03
 IDIUse=3 WtCom= 9.86D-01 WtEn= 1.38D-02
 Coeff-Com: -0.674D-02 0.292D-01 0.200D+00 0.778D+00
 Coeff-En:   0.000D+00 0.000D+00 0.000D+00 0.100D+01
 Coeff:     -0.665D-02 0.288D-01 0.197D+00 0.781D+00
 Gap=     0.592 Goal=   None    Shift=    0.000
 RMSDP=1.32D-04 MaxDP=2.05D-03 DE=-2.42D-03 OVMax= 2.52D-03

 Cycle   5  Pass 1  IDiag  1:
 E= -115.058753573266     Delta-E=       -0.000078988570 Rises=F Damp=F
 DIIS: error= 3.66D-04 at cycle   5 NSaved=   5.
 NSaved= 5 IEnMin= 5 EnMin= -115.058753573266     IErMin= 5 ErrMin= 3.66D-04
 ErrMax= 3.66D-04 EMaxC= 1.00D-01 BMatC= 4.26D-06 BMatP= 9.78D-05
 IDIUse=3 WtCom= 9.96D-01 WtEn= 3.66D-03
 Coeff-Com:  0.121D-02-0.204D-01-0.726D-01-0.138D-01 0.111D+01
 Coeff-En:   0.000D+00 0.000D+00 0.000D+00 0.000D+00 0.100D+01
 Coeff:      0.120D-02-0.203D-01-0.723D-01-0.137D-01 0.111D+01
 Gap=     0.592 Goal=   None    Shift=    0.000
 RMSDP=5.47D-05 MaxDP=7.71D-04 DE=-7.90D-05 OVMax= 8.65D-04

 Cycle   6  Pass 1  IDiag  1:
 E= -115.058760205455     Delta-E=       -0.000006632189 Rises=F Damp=F
 DIIS: error= 5.00D-05 at cycle   6 NSaved=   6.
 NSaved= 6 IEnMin= 6 EnMin= -115.058760205455     IErMin= 6 ErrMin= 5.00D-05
 ErrMax= 5.00D-05 EMaxC= 1.00D-01 BMatC= 1.28D-07 BMatP= 4.26D-06
 IDIUse=1 WtCom= 1.00D+00 WtEn= 0.00D+00
 Coeff-Com:  0.243D-03-0.695D-03-0.409D-02-0.329D-01-0.903D-01 0.113D+01
 Coeff:      0.243D-03-0.695D-03-0.409D-02-0.329D-01-0.903D-01 0.113D+01
 Gap=     0.592 Goal=   None    Shift=    0.000
 RMSDP=1.25D-05 MaxDP=1.13D-04 DE=-6.63D-06 OVMax= 2.24D-04

 Cycle   7  Pass 1  IDiag  1:
 E= -115.058760494982     Delta-E=       -0.000000289527 Rises=F Damp=F
 DIIS: error= 1.08D-05 at cycle   7 NSaved=   7.
 NSaved= 7 IEnMin= 7 EnMin= -115.058760494982     IErMin= 7 ErrMin= 1.08D-05
 ErrMax= 1.08D-05 EMaxC= 1.00D-01 BMatC= 5.59D-09 BMatP= 1.28D-07
 IDIUse=1 WtCom= 1.00D+00 WtEn= 0.00D+00
 Coeff-Com: -0.105D-03 0.926D-03 0.398D-02 0.796D-02-0.156D-01-0.303D+00
 Coeff-Com:  0.131D+01
 Coeff:     -0.105D-03 0.926D-03 0.398D-02 0.796D-02-0.156D-01-0.303D+00
 Coeff:      0.131D+01
 Gap=     0.592 Goal=   None    Shift=    0.000
 RMSDP=2.94D-06 MaxDP=3.62D-05 DE=-2.90D-07 OVMax= 7.48D-05

 Cycle   8  Pass 1  IDiag  1:
 E= -115.058760510051     Delta-E=       -0.000000015069 Rises=F Damp=F
 DIIS: error= 1.95D-06 at cycle   8 NSaved=   8.
 NSaved= 8 IEnMin= 8 EnMin= -115.058760510051     IErMin= 8 ErrMin= 1.95D-06
 ErrMax= 1.95D-06 EMaxC= 1.00D-01 BMatC= 2.17D-10 BMatP= 5.59D-09
 IDIUse=1 WtCom= 1.00D+00 WtEn= 0.00D+00
 Coeff-Com:  0.175D-04-0.208D-03-0.936D-03-0.132D-02 0.633D-02 0.601D-01
 Coeff-Com: -0.421D+00 0.136D+01
 Coeff:      0.175D-04-0.208D-03-0.936D-03-0.132D-02 0.633D-02 0.601D-01
 Coeff:     -0.421D+00 0.136D+01
 Gap=     0.592 Goal=   None    Shift=    0.000
 RMSDP=7.18D-07 MaxDP=6.21D-06 DE=-1.51D-08 OVMax= 1.83D-05

 Cycle   9  Pass 1  IDiag  1:
 E= -115.058760510710     Delta-E=       -0.000000000659 Rises=F Damp=F
 DIIS: error= 5.10D-07 at cycle   9 NSaved=   9.
 NSaved= 9 IEnMin= 9 EnMin= -115.058760510710     IErMin= 9 ErrMin= 5.10D-07
 ErrMax= 5.10D-07 EMaxC= 1.00D-01 BMatC= 6.94D-12 BMatP= 2.17D-10
 IDIUse=1 WtCom= 1.00D+00 WtEn= 0.00D+00
 Coeff-Com: -0.201D-05 0.359D-04 0.177D-03 0.780D-04-0.194D-02-0.519D-02
 Coeff-Com:  0.778D-01-0.395D+00 0.132D+01
 Coeff:     -0.201D-05 0.359D-04 0.177D-03 0.780D-04-0.194D-02-0.519D-02
 Coeff:      0.778D-01-0.395D+00 0.132D+01
 Gap=     0.592 Goal=   None    Shift=    0.000
 RMSDP=1.08D-07 MaxDP=6.87D-07 DE=-6.59D-10 OVMax= 2.70D-06

 Cycle  10  Pass 1  IDiag  1:
 E= -115.058760510729     Delta-E=       -0.000000000019 Rises=F Damp=F
 DIIS: error= 9.39D-08 at cycle  10 NSaved=  10.
 NSaved=10 IEnMin=10 EnMin= -115.058760510729     IErMin=10 ErrMin= 9.39D-08
 ErrMax= 9.39D-08 EMaxC= 1.00D-01 BMatC= 2.58D-13 BMatP= 6.94D-12
 IDIUse=1 WtCom= 1.00D+00 WtEn= 0.00D+00
 Coeff-Com:  0.154D-07-0.337D-05-0.215D-04 0.240D-04 0.315D-03-0.145D-03
 Coeff-Com: -0.934D-02 0.666D-01-0.365D+00 0.131D+01
 Coeff:      0.154D-07-0.337D-05-0.215D-04 0.240D-04 0.315D-03-0.145D-03
 Coeff:     -0.934D-02 0.666D-01-0.365D+00 0.131D+01
 Gap=     0.592 Goal=   None    Shift=    0.000
 RMSDP=1.93D-08 MaxDP=1.78D-07 DE=-1.88D-11 OVMax= 3.75D-07

 Cycle  11  Pass 1  IDiag  1:
 E= -115.058760510730     Delta-E=       -0.000000000001 Rises=F Damp=F
 DIIS: error= 1.74D-08 at cycle  11 NSaved=  11.
 NSaved=11 IEnMin=11 EnMin= -115.058760510730     IErMin=11 ErrMin= 1.74D-08
 ErrMax= 1.74D-08 EMaxC= 1.00D-01 BMatC= 1.19D-14 BMatP= 2.58D-13
 IDIUse=1 WtCom= 1.00D+00 WtEn= 0.00D+00
 Coeff-Com:  0.948D-07-0.155D-05-0.665D-05-0.701D-05 0.623D-04 0.294D-03
 Coeff-Com: -0.309D-02 0.145D-01-0.299D-01-0.176D+00 0.119D+01
 Coeff:      0.948D-07-0.155D-05-0.665D-05-0.701D-05 0.623D-04 0.294D-03
 Coeff:     -0.309D-02 0.145D-01-0.299D-01-0.176D+00 0.119D+01
 Gap=     0.592 Goal=   None    Shift=    0.000
 RMSDP=4.98D-09 MaxDP=3.11D-08 DE=-5.68D-13 OVMax= 9.19D-08

 SCF Done:  E(RHF) =  -115.058760511     A.U. after   11 cycles
             Convg  =    0.4985D-08             -V/T =  2.0005
 KE= 1.150002057991D+02 PE=-3.514531055518D+02 EE= 8.131768259311D+01
 Leave Link  502 at Sun Dec 29 12:24:59 2019, MaxMem=   91750400 cpu:       0.2
 (Enter /opt/g09gh/gaussian/g09/l601.exe)
 Copying SCF densities to generalized density rwf, IOpCl= 0 IROHF=0.

 **********************************************************************

            Population analysis using the SCF density.

 **********************************************************************

 Orbital symmetries:
       Occupied  (A) (A) (A) (A) (A) (A) (A) (A) (A)
       Virtual   (A) (A) (A) (A) (A) (A) (A) (A) (A) (A) (A) (A)
                 (A) (A) (A) (A) (A) (A) (A) (A) (A) (A) (A) (A)
                 (A) (A) (A) (A) (A) (A) (A) (A) (A) (A) (A) (A)
                 (A) (A) (A)
 The electronic state is 1-A.
 Alpha  occ. eigenvalues --  -20.54282 -11.27168  -1.34433  -0.92008  -0.68110
 Alpha  occ. eigenvalues --   -0.61645  -0.58742  -0.50121  -0.44367
 Alpha virt. eigenvalues --    0.14864   0.18632   0.22799   0.23206   0.33556
 Alpha virt. eigenvalues --    0.46216   0.46825   0.58835   0.67806   0.72419
 Alpha virt. eigenvalues --    0.78710   0.79267   0.94619   1.07317   1.07579
 Alpha virt. eigenvalues --    1.19738   1.55073   1.57334   1.68768   1.76863
 Alpha virt. eigenvalues --    1.77706   1.96659   2.37746   2.63070   2.69718
 Alpha virt. eigenvalues --    2.71323   3.16539   3.18853   3.31346   3.36623
 Alpha virt. eigenvalues --    3.55795   3.57575   3.73722   4.25701   5.37717
 Alpha virt. eigenvalues --    5.52666   5.86658  24.53447  51.52220
          Condensed to atoms (all electrons):
              1          2          3          4          5          6
     1  O    8.288210   0.201991  -0.028764  -0.029067  -0.038148   0.267917
     2  C    0.201991   4.999241   0.388364   0.393904   0.391314  -0.050222
     3  H   -0.028764   0.388364   0.487726  -0.026898  -0.035006   0.006125
     4  H   -0.029067   0.393904  -0.026898   0.528224  -0.034191  -0.010640
     5  H   -0.038148   0.391314  -0.035006  -0.034191   0.519891   0.001842
     6  H    0.267917  -0.050222   0.006125  -0.010640   0.001842   0.379667
 Mulliken atomic charges:
              1
     1  O   -0.662139
     2  C   -0.324591
     3  H    0.208453
     4  H    0.178669
     5  H    0.194298
     6  H    0.405310
 Sum of Mulliken atomic charges =   0.00000
 Mulliken charges with hydrogens summed into heavy atoms:
              1
     1  O   -0.256829
     2  C    0.256829
 Sum of Mulliken charges with hydrogens summed into heavy atoms =   0.00000
 Electronic spatial extent (au):  <R**2>=             84.4071
 Charge=              0.0000 electrons
 Dipole moment (field-independent basis, Debye):
    X=             -1.0710    Y=              1.8197    Z=             -0.0523  Tot=              2.1121
 Quadrupole moment (field-independent basis, Debye-Ang):
   XX=            -12.9945   YY=            -11.9650   ZZ=            -13.5986
   XY=              2.4415   XZ=              0.0498   YZ=              0.0336
 Traceless Quadrupole moment (field-independent basis, Debye-Ang):
   XX=             -0.1418   YY=              0.8877   ZZ=             -0.7459
   XY=              2.4415   XZ=              0.0498   YZ=              0.0336
 Octapole moment (field-independent basis, Debye-Ang**2):
  XXX=              4.1103  YYY=              1.5491  ZZZ=              0.4926  XYY=              1.8306
  XXY=              2.4844  XXZ=             -0.1254  XZZ=              0.3199  YZZ=              0.0584
  YYZ=             -0.5840  XYZ=             -0.1386
 Hexadecapole moment (field-independent basis, Debye-Ang**3):
 XXXX=            -60.9585 YYYY=            -19.4695 ZZZZ=            -18.8604 XXXY=              3.9969
 XXXZ=              0.1650 YYYX=              2.1778 YYYZ=             -0.0197 ZZZX=             -0.5535
 ZZZY=              0.0996 XXYY=            -12.3357 XXZZ=            -13.7136 YYZZ=             -6.5811
 XXYZ=              0.2085 YYXZ=              0.6462 ZZXY=              0.6816
 N-N= 4.007645664889D+01 E-N=-3.514531056100D+02  KE= 1.150002057991D+02
 No NMR shielding tensors so no spin-rotation constants.
 Leave Link  601 at Sun Dec 29 12:24:59 2019, MaxMem=   91750400 cpu:       0.1
 (Enter /opt/g09gh/gaussian/g09/l701.exe)
 Compute integral first derivatives.
 ... and contract with generalized density number  0.
 Leave Link  701 at Sun Dec 29 12:24:59 2019, MaxMem=   91750400 cpu:       0.1
 (Enter /opt/g09gh/gaussian/g09/l702.exe)
 L702 exits ... SP integral derivatives will be done elsewhere.
 Leave Link  702 at Sun Dec 29 12:24:59 2019, MaxMem=   91750400 cpu:       0.0
 (Enter /opt/g09gh/gaussian/g09/l703.exe)
 Compute integral first derivatives, UseDBF=F ICtDFT=           0.
 Integral derivatives from FoFDir, PRISM(SPDF).
 Calling FoFJK, ICntrl=      2127 FMM=F ISym2X=0 I1Cent= 0 IOpClX= 0 NMat=1 NMatS=1 NMatT=0.
 FoFCou: FMM=F IPFlag=           0 FMFlag=      100000 FMFlg1=         800
         NFxFlg=           0 DoJE=F BraDBF=F KetDBF=F FulRan=T
         Omega=  0.000000  0.000000  1.000000  0.000000  0.000000 ICntrl=    2127 IOpCl=  0
         NMat0=    1 NMatS0=    1 NMatT0=    0 NMatD0=    1 NMtDS0=    0 NMtDT0=    0
         I1Cent=           0 NGrid=           0.
 Symmetry not used in FoFCou.
 Leave Link  703 at Sun Dec 29 12:24:59 2019, MaxMem=   91750400 cpu:       0.3
 (Enter /opt/g09gh/gaussian/g09/l716.exe)
 Dipole        =-4.21353017D-01 7.15918894D-01-2.05711988D-02
 ***** Axes restored to original set *****
 -------------------------------------------------------------------
 Center     Atomic                   Forces (Hartrees/Bohr)
 Number     Number              X              Y              Z
 -------------------------------------------------------------------
      1        8          -0.006709310   -0.038627863    0.005186423
      2        6           0.022341458    0.002288307   -0.007489177
      3        1           0.002497802   -0.009368532   -0.004388980
      4        1          -0.005827637    0.009675780   -0.000438194
      5        1          -0.004075709   -0.001179888    0.008829584
      6        1          -0.008226604    0.037212197   -0.001699656
 -------------------------------------------------------------------
 Cartesian Forces:  Max     0.038627863 RMS     0.014751299
 Leave Link  716 at Sun Dec 29 12:24:59 2019, MaxMem=   91750400 cpu:       0.0
 (Enter /opt/g09gh/gaussian/g09/l103.exe)

 GradGradGradGradGradGradGradGradGradGradGradGradGradGradGradGradGradGrad
 Berny optimization.
 Internal  Forces:  Max     0.037635880 RMS     0.012368815
 Search for a local minimum.
 Step number   1 out of a maximum of  100
 All quantities printed in internal units (Hartrees-Bohrs-Radians)
 RMS Force = .12369D-01 SwitMx=.10000D-02 MixMth= 1
 Mixed Optimization -- RFO/linear search
 Second derivative matrix not updated -- first step.
 The second derivative matrix:
                          R1        R2        R3        R4        R5
           R1           0.40258
           R2           0.00000   0.52572
           R3           0.00000   0.00000   0.34362
           R4           0.00000   0.00000   0.00000   0.34332
           R5           0.00000   0.00000   0.00000   0.00000   0.34292
           A1           0.00000   0.00000   0.00000   0.00000   0.00000
           A2           0.00000   0.00000   0.00000   0.00000   0.00000
           A3           0.00000   0.00000   0.00000   0.00000   0.00000
           A4           0.00000   0.00000   0.00000   0.00000   0.00000
           A5           0.00000   0.00000   0.00000   0.00000   0.00000
           A6           0.00000   0.00000   0.00000   0.00000   0.00000
           A7           0.00000   0.00000   0.00000   0.00000   0.00000
           D1           0.00000   0.00000   0.00000   0.00000   0.00000
           D2           0.00000   0.00000   0.00000   0.00000   0.00000
           D3           0.00000   0.00000   0.00000   0.00000   0.00000
                          A1        A2        A3        A4        A5
           A1           0.16000
           A2           0.00000   0.16000
           A3           0.00000   0.00000   0.16000
           A4           0.00000   0.00000   0.00000   0.16000
           A5           0.00000   0.00000   0.00000   0.00000   0.16000
           A6           0.00000   0.00000   0.00000   0.00000   0.00000
           A7           0.00000   0.00000   0.00000   0.00000   0.00000
           D1           0.00000   0.00000   0.00000   0.00000   0.00000
           D2           0.00000   0.00000   0.00000   0.00000   0.00000
           D3           0.00000   0.00000   0.00000   0.00000   0.00000
                          A6        A7        D1        D2        D3
           A6           0.16000
           A7           0.00000   0.16000
           D1           0.00000   0.00000   0.01227
           D2           0.00000   0.00000   0.00000   0.01227
           D3           0.00000   0.00000   0.00000   0.00000   0.01227
     Eigenvalues ---    0.01227   0.10426   0.10603   0.16000   0.16000
     Eigenvalues ---    0.16000   0.16000   0.34292   0.34332   0.34362
     Eigenvalues ---    0.40258   0.525721000.000001000.000001000.00000
 RFO step:  Lambda=-6.74620725D-03 EMin= 1.22679080D-02
 Linear search not attempted -- first point.
 Iteration  1 RMS(Cart)=  0.05067541 RMS(Int)=  0.00328306
 Iteration  2 RMS(Cart)=  0.00246845 RMS(Int)=  0.00105738
 Iteration  3 RMS(Cart)=  0.00000463 RMS(Int)=  0.00105736
 Iteration  4 RMS(Cart)=  0.00000000 RMS(Int)=  0.00105736
 Variable       Old X    -DE/DX   Delta X   Delta X   Delta X     New X
                                 (Linear)    (Quad)   (Total)
    R1        2.71204  -0.01500   0.00000  -0.03664  -0.03664   2.67540
    R2        1.84055  -0.03764   0.00000  -0.07068  -0.07068   1.76987
    R3        2.06724  -0.01033   0.00000  -0.02950  -0.02950   2.03774
    R4        2.06773  -0.00739   0.00000  -0.02111  -0.02111   2.04662
    R5        2.06841  -0.00718   0.00000  -0.02055  -0.02055   2.04786
    A1        1.85809   0.01103   0.00000   0.06614   0.06614   1.92422
    A2        1.89178  -0.00225   0.00000  -0.01876  -0.01884   1.87293
    A3        1.90109   0.00994   0.00000   0.05984   0.05848   1.95957
    A4        1.88053   0.00969   0.00000   0.06305   0.06159   1.94212
    A5        1.95094  -0.00789   0.00000  -0.05719  -0.05719   1.89375
    A6        1.92087  -0.00387   0.00000  -0.02389  -0.02406   1.89681
    A7        1.91700  -0.00473   0.00000  -0.01744  -0.01990   1.89710
    D1        2.52936  -0.00050   0.00000   0.03938   0.03925   2.56861
    D2        0.40308   0.00448   0.00000   0.08430   0.08619   0.48927
    D3       -1.67565  -0.00094   0.00000   0.03583   0.03408  -1.64157
         Item               Value     Threshold  Converged?
 Maximum Force            0.037636     0.000450     NO 
 RMS     Force            0.012369     0.000300     NO 
 Maximum Displacement     0.107382     0.001800     NO 
 RMS     Displacement     0.050876     0.001200     NO 
 Predicted change in Energy=-3.502305D-03
 GradGradGradGradGradGradGradGradGradGradGradGradGradGradGradGradGradGrad

 Leave Link  103 at Sun Dec 29 12:24:59 2019, MaxMem=   91750400 cpu:       0.0
 (Enter /opt/g09gh/gaussian/g09/l202.exe)
                          Input orientation:                          
 ---------------------------------------------------------------------
 Center     Atomic      Atomic             Coordinates (Angstroms)
 Number     Number       Type             X           Y           Z
 ---------------------------------------------------------------------
      1          8           0        0.740363    0.096106    0.024911
      2          6           0       -0.669750   -0.024869   -0.011564
      3          1           0       -1.076228    0.779545    0.580452
      4          1           0       -1.012055   -0.964532    0.404133
      5          1           0       -1.046040    0.064743   -1.023857
      6          1           0        1.139368   -0.750486   -0.010448
 ---------------------------------------------------------------------
                    Distance matrix (angstroms):
                    1          2          3          4          5
     1  O    0.000000
     2  C    1.415763   0.000000
     3  H    2.018840   1.078326   0.000000
     4  H    2.083202   1.083025   1.754141   0.000000
     5  H    2.071746   1.083680   1.756605   1.760601   0.000000
     6  H    0.936575   1.949213   2.756633   2.201435   2.543148
                    6
     6  H    0.000000
 Stoichiometry    CH4O
 Framework group  C1[X(CH4O)]
 Deg. of freedom    12
 Full point group                 C1      NOp   1
 Largest Abelian subgroup         C1      NOp   1
 Largest concise Abelian subgroup C1      NOp   1
                         Standard orientation:                         
 ---------------------------------------------------------------------
 Center     Atomic      Atomic             Coordinates (Angstroms)
 Number     Number       Type             X           Y           Z
 ---------------------------------------------------------------------
      1          8           0        0.744245   -0.119331    0.001186
      2          6           0       -0.664725    0.019186    0.000703
      3          1           0       -1.068158   -0.806890   -0.562882
      4          1           0       -0.986284    0.942601   -0.464966
      5          1           0       -1.063989   -0.019587    1.007404
      6          1           0        1.152819    0.723408    0.006741
 ---------------------------------------------------------------------
 Rotational constants (GHZ):    132.3829320     24.9609995     24.1298314
 Leave Link  202 at Sun Dec 29 12:24:59 2019, MaxMem=   91750400 cpu:       0.0
 (Enter /opt/g09gh/gaussian/g09/l301.exe)
 Standard basis: 6-311G(d) (5D, 7F)
 Ernie: Thresh=  0.10000D-02 Tol=  0.10000D-05 Strict=F.
 There are    48 symmetry adapted basis functions of A   symmetry.
 Integral buffers will be    131072 words long.
 Raffenetti 1 integral format.
 Two-electron integral symmetry is turned on.
    48 basis functions,    84 primitive gaussians,    50 cartesian basis functions
     9 alpha electrons        9 beta electrons
       nuclear repulsion energy        40.6126487804 Hartrees.
 IExCor=    0 DFT=F Ex=HF Corr=None ExCW=0 ScaHFX=  1.000000
 ScaDFX=  1.000000  1.000000  1.000000  1.000000 ScalE2=  1.000000  1.000000
 IRadAn=      0 IRanWt=     -1 IRanGd=            0 ICorTp=0
 NAtoms=    6 NActive=    6 NUniq=    6 SFac= 7.50D-01 NAtFMM=   80 NAOKFM=F Big=F
 Leave Link  301 at Sun Dec 29 12:24:59 2019, MaxMem=   91750400 cpu:       0.1
 (Enter /opt/g09gh/gaussian/g09/l302.exe)
 NPDir=0 NMtPBC=     1 NCelOv=     1 NCel=       1 NClECP=     1 NCelD=      1
         NCelK=      1 NCelE2=     1 NClLst=     1 CellRange=     0.0.
 One-electron integrals computed using PRISM.
 NBasis=    48 RedAO= T  NBF=    48
 NBsUse=    48 1.00D-06 NBFU=    48
 Leave Link  302 at Sun Dec 29 12:25:00 2019, MaxMem=   91750400 cpu:       0.2
 (Enter /opt/g09gh/gaussian/g09/l303.exe)
 DipDrv:  MaxL=1.
 Leave Link  303 at Sun Dec 29 12:25:00 2019, MaxMem=   91750400 cpu:       0.0
 (Enter /opt/g09gh/gaussian/g09/l401.exe)
 Initial guess read from the read-write file.
 B after Tr=     0.000000    0.000000    0.000000
         Rot=    1.000000    0.000000    0.000000    0.000000 Ang=   0.00 deg.
 Guess basis will be translated and rotated to current coordinates.
 Initial guess orbital symmetries:
       Occupied  (A) (A) (A) (A) (A) (A) (A) (A) (A)
       Virtual   (A) (A) (A) (A) (A) (A) (A) (A) (A) (A) (A) (A)
                 (A) (A) (A) (A) (A) (A) (A) (A) (A) (A) (A) (A)
                 (A) (A) (A) (A) (A) (A) (A) (A) (A) (A) (A) (A)
                 (A) (A) (A)
 The electronic state of the initial guess is 1-A.
 Generating alternative initial guess.
 Harris functional with IExCor=  205 diagonalized for initial guess.
 ExpMin= 1.03D-01 ExpMax= 8.59D+03 ExpMxC= 1.30D+03 IAcc=1 IRadAn=         1 AccDes= 0.00D+00
 HarFok:  IExCor=  205 AccDes= 0.00D+00 IRadAn=         1 IDoV= 1
 ScaDFX=  1.000000  1.000000  1.000000  1.000000
 FoFCou: FMM=F IPFlag=           0 FMFlag=      100000 FMFlg1=           0
         NFxFlg=           0 DoJE=T BraDBF=F KetDBF=T FulRan=T
         Omega=  0.000000  0.000000  1.000000  0.000000  0.000000 ICntrl=     500 IOpCl=  0
         NMat0=    1 NMatS0=    1 NMatT0=    0 NMatD0=    1 NMtDS0=    0 NMtDT0=    0
         I1Cent=           4 NGrid=           0.
 Petite list used in FoFCou.
 Harris En= -115.247324706313    
 Leave Link  401 at Sun Dec 29 12:25:00 2019, MaxMem=   91750400 cpu:       0.3
 (Enter /opt/g09gh/gaussian/g09/l502.exe)
 Closed shell SCF:
 Requested convergence on RMS density matrix=1.00D-08 within 128 cycles.
 Requested convergence on MAX density matrix=1.00D-06.
 Requested convergence on             energy=1.00D-06.
 No special actions if energy rises.
 Using DIIS extrapolation, IDIIS=  1040.
 Integral symmetry usage will be decided dynamically.
 Keep R1 ints in memory in canonical form, NReq=1659792.
 IEnd=       26328 IEndB=       26328 NGot=    91750400 MDV=    90929785
 LenX=    90929785 LenY=    90926844
 Symmetry not used in FoFDir.
 MinBra= 0 MaxBra= 2 Meth= 1.
 IRaf=       0 NMat=   1 IRICut=       1 DoRegI=T DoRafI=F ISym2E= 0 JSym2E=0.

 Cycle   1  Pass 1  IDiag  1:
 E= -115.059953347909    
 DIIS: error= 4.92D-03 at cycle   1 NSaved=   1.
 NSaved= 1 IEnMin= 1 EnMin= -115.059953347909     IErMin= 1 ErrMin= 4.92D-03
 ErrMax= 4.92D-03 EMaxC= 1.00D-01 BMatC= 1.81D-03 BMatP= 1.81D-03
 IDIUse=3 WtCom= 9.51D-01 WtEn= 4.92D-02
 Coeff-Com:  0.100D+01
 Coeff-En:   0.100D+01
 Coeff:      0.100D+01
 Gap=     0.607 Goal=   None    Shift=    0.000
 GapD=    0.607 DampG=2.000 DampE=1.000 DampFc=2.0000 IDamp=-1.
 RMSDP=6.11D-04 MaxDP=7.26D-03              OVMax= 1.18D-02

 Cycle   2  Pass 1  IDiag  1:
 E= -115.061980289179     Delta-E=       -0.002026941270 Rises=F Damp=F
 DIIS: error= 1.51D-03 at cycle   2 NSaved=   2.
 NSaved= 2 IEnMin= 2 EnMin= -115.061980289179     IErMin= 2 ErrMin= 1.51D-03
 ErrMax= 1.51D-03 EMaxC= 1.00D-01 BMatC= 1.60D-04 BMatP= 1.81D-03
 IDIUse=3 WtCom= 9.85D-01 WtEn= 1.51D-02
 Coeff-Com: -0.368D-01 0.104D+01
 Coeff-En:   0.000D+00 0.100D+01
 Coeff:     -0.363D-01 0.104D+01
 Gap=     0.597 Goal=   None    Shift=    0.000
 RMSDP=2.40D-04 MaxDP=3.54D-03 DE=-2.03D-03 OVMax= 4.58D-03

 Cycle   3  Pass 1  IDiag  1:
 E= -115.062183487547     Delta-E=       -0.000203198367 Rises=F Damp=F
 DIIS: error= 9.74D-04 at cycle   3 NSaved=   3.
 NSaved= 3 IEnMin= 3 EnMin= -115.062183487547     IErMin= 3 ErrMin= 9.74D-04
 ErrMax= 9.74D-04 EMaxC= 1.00D-01 BMatC= 3.36D-05 BMatP= 1.60D-04
 IDIUse=3 WtCom= 9.90D-01 WtEn= 9.74D-03
 Coeff-Com: -0.888D-01 0.248D+00 0.841D+00
 Coeff-En:   0.000D+00 0.000D+00 0.100D+01
 Coeff:     -0.879D-01 0.245D+00 0.843D+00
 Gap=     0.599 Goal=   None    Shift=    0.000
 RMSDP=1.00D-04 MaxDP=1.30D-03 DE=-2.03D-04 OVMax= 1.86D-03

 Cycle   4  Pass 1  IDiag  1:
 E= -115.062221219055     Delta-E=       -0.000037731508 Rises=F Damp=F
 DIIS: error= 2.00D-04 at cycle   4 NSaved=   4.
 NSaved= 4 IEnMin= 4 EnMin= -115.062221219055     IErMin= 4 ErrMin= 2.00D-04
 ErrMax= 2.00D-04 EMaxC= 1.00D-01 BMatC= 2.11D-06 BMatP= 3.36D-05
 IDIUse=3 WtCom= 9.98D-01 WtEn= 2.00D-03
 Coeff-Com: -0.519D-03-0.901D-01 0.239D-01 0.107D+01
 Coeff-En:   0.000D+00 0.000D+00 0.000D+00 0.100D+01
 Coeff:     -0.518D-03-0.899D-01 0.239D-01 0.107D+01
 Gap=     0.599 Goal=   None    Shift=    0.000
 RMSDP=4.44D-05 MaxDP=3.63D-04 DE=-3.77D-05 OVMax= 8.48D-04

 Cycle   5  Pass 1  IDiag  1:
 E= -115.062225228255     Delta-E=       -0.000004009200 Rises=F Damp=F
 DIIS: error= 4.25D-05 at cycle   5 NSaved=   5.
 NSaved= 5 IEnMin= 5 EnMin= -115.062225228255     IErMin= 5 ErrMin= 4.25D-05
 ErrMax= 4.25D-05 EMaxC= 1.00D-01 BMatC= 1.16D-07 BMatP= 2.11D-06
 IDIUse=1 WtCom= 1.00D+00 WtEn= 0.00D+00
 Coeff-Com:  0.406D-02-0.135D-01-0.480D-01 0.308D-02 0.105D+01
 Coeff:      0.406D-02-0.135D-01-0.480D-01 0.308D-02 0.105D+01
 Gap=     0.599 Goal=   None    Shift=    0.000
 RMSDP=1.27D-05 MaxDP=8.83D-05 DE=-4.01D-06 OVMax= 2.32D-04

 Cycle   6  Pass 1  IDiag  1:
 E= -115.062225487505     Delta-E=       -0.000000259249 Rises=F Damp=F
 DIIS: error= 1.29D-05 at cycle   6 NSaved=   6.
 NSaved= 6 IEnMin= 6 EnMin= -115.062225487505     IErMin= 6 ErrMin= 1.29D-05
 ErrMax= 1.29D-05 EMaxC= 1.00D-01 BMatC= 1.10D-08 BMatP= 1.16D-07
 IDIUse=1 WtCom= 1.00D+00 WtEn= 0.00D+00
 Coeff-Com:  0.324D-03 0.539D-02-0.499D-02-0.812D-01 0.923D-01 0.988D+00
 Coeff:      0.324D-03 0.539D-02-0.499D-02-0.812D-01 0.923D-01 0.988D+00
 Gap=     0.599 Goal=   None    Shift=    0.000
 RMSDP=3.69D-06 MaxDP=2.89D-05 DE=-2.59D-07 OVMax= 7.45D-05

 Cycle   7  Pass 1  IDiag  1:
 E= -115.062225511573     Delta-E=       -0.000000024068 Rises=F Damp=F
 DIIS: error= 3.78D-06 at cycle   7 NSaved=   7.
 NSaved= 7 IEnMin= 7 EnMin= -115.062225511573     IErMin= 7 ErrMin= 3.78D-06
 ErrMax= 3.78D-06 EMaxC= 1.00D-01 BMatC= 9.66D-10 BMatP= 1.10D-08
 IDIUse=1 WtCom= 1.00D+00 WtEn= 0.00D+00
 Coeff-Com: -0.473D-03 0.715D-03 0.559D-02 0.874D-02-0.114D+00-0.149D+00
 Coeff-Com:  0.125D+01
 Coeff:     -0.473D-03 0.715D-03 0.559D-02 0.874D-02-0.114D+00-0.149D+00
 Coeff:      0.125D+01
 Gap=     0.599 Goal=   None    Shift=    0.000
 RMSDP=1.46D-06 MaxDP=1.48D-05 DE=-2.41D-08 OVMax= 3.65D-05

 Cycle   8  Pass 1  IDiag  1:
 E= -115.062225514384     Delta-E=       -0.000000002811 Rises=F Damp=F
 DIIS: error= 8.95D-07 at cycle   8 NSaved=   8.
 NSaved= 8 IEnMin= 8 EnMin= -115.062225514384     IErMin= 8 ErrMin= 8.95D-07
 ErrMax= 8.95D-07 EMaxC= 1.00D-01 BMatC= 4.58D-11 BMatP= 9.66D-10
 IDIUse=1 WtCom= 1.00D+00 WtEn= 0.00D+00
 Coeff-Com:  0.106D-03-0.400D-03-0.134D-02 0.182D-02 0.269D-01-0.183D-02
 Coeff-Com: -0.358D+00 0.133D+01
 Coeff:      0.106D-03-0.400D-03-0.134D-02 0.182D-02 0.269D-01-0.183D-02
 Coeff:     -0.358D+00 0.133D+01
 Gap=     0.599 Goal=   None    Shift=    0.000
 RMSDP=3.52D-07 MaxDP=3.55D-06 DE=-2.81D-09 OVMax= 9.17D-06

 Cycle   9  Pass 1  IDiag  1:
 E= -115.062225514536     Delta-E=       -0.000000000152 Rises=F Damp=F
 DIIS: error= 2.11D-07 at cycle   9 NSaved=   9.
 NSaved= 9 IEnMin= 9 EnMin= -115.062225514536     IErMin= 9 ErrMin= 2.11D-07
 ErrMax= 2.11D-07 EMaxC= 1.00D-01 BMatC= 2.34D-12 BMatP= 4.58D-11
 IDIUse=1 WtCom= 1.00D+00 WtEn= 0.00D+00
 Coeff-Com: -0.446D-05 0.416D-04 0.105D-03-0.656D-03-0.229D-02 0.508D-02
 Coeff-Com:  0.463D-01-0.393D+00 0.134D+01
 Coeff:     -0.446D-05 0.416D-04 0.105D-03-0.656D-03-0.229D-02 0.508D-02
 Coeff:      0.463D-01-0.393D+00 0.134D+01
 Gap=     0.599 Goal=   None    Shift=    0.000
 RMSDP=8.16D-08 MaxDP=8.73D-07 DE=-1.52D-10 OVMax= 2.19D-06

 Cycle  10  Pass 1  IDiag  1:
 E= -115.062225514543     Delta-E=       -0.000000000008 Rises=F Damp=F
 DIIS: error= 3.59D-08 at cycle  10 NSaved=  10.
 NSaved=10 IEnMin=10 EnMin= -115.062225514543     IErMin=10 ErrMin= 3.59D-08
 ErrMax= 3.59D-08 EMaxC= 1.00D-01 BMatC= 9.76D-14 BMatP= 2.34D-12
 IDIUse=1 WtCom= 1.00D+00 WtEn= 0.00D+00
 Coeff-Com: -0.232D-05-0.607D-05 0.302D-04 0.213D-03-0.653D-03-0.260D-02
 Coeff-Com:  0.536D-02 0.510D-01-0.382D+00 0.133D+01
 Coeff:     -0.232D-05-0.607D-05 0.302D-04 0.213D-03-0.653D-03-0.260D-02
 Coeff:      0.536D-02 0.510D-01-0.382D+00 0.133D+01
 Gap=     0.599 Goal=   None    Shift=    0.000
 RMSDP=1.56D-08 MaxDP=1.60D-07 DE=-7.62D-12 OVMax= 3.88D-07

 Cycle  11  Pass 1  IDiag  1:
 E= -115.062225514544     Delta-E=        0.000000000000 Rises=F Damp=F
 DIIS: error= 8.16D-09 at cycle  11 NSaved=  11.
 NSaved=11 IEnMin=11 EnMin= -115.062225514544     IErMin=11 ErrMin= 8.16D-09
 ErrMax= 8.16D-09 EMaxC= 1.00D-01 BMatC= 3.54D-15 BMatP= 9.76D-14
 IDIUse=1 WtCom= 1.00D+00 WtEn= 0.00D+00
 Coeff-Com:  0.294D-06-0.742D-06-0.679D-05 0.109D-04 0.132D-03-0.261D-04
 Coeff-Com: -0.209D-02 0.109D-01-0.102D-01-0.174D+00 0.118D+01
 Coeff:      0.294D-06-0.742D-06-0.679D-05 0.109D-04 0.132D-03-0.261D-04
 Coeff:     -0.209D-02 0.109D-01-0.102D-01-0.174D+00 0.118D+01
 Gap=     0.599 Goal=   None    Shift=    0.000
 RMSDP=2.79D-09 MaxDP=1.82D-08 DE=-3.13D-13 OVMax= 5.14D-08

 SCF Done:  E(RHF) =  -115.062225515     A.U. after   11 cycles
             Convg  =    0.2790D-08             -V/T =  1.9993
 KE= 1.151466707283D+02 PE=-3.526046883741D+02 EE= 8.178314335073D+01
 Leave Link  502 at Sun Dec 29 12:25:00 2019, MaxMem=   91750400 cpu:       0.1
 (Enter /opt/g09gh/gaussian/g09/l701.exe)
 Compute integral first derivatives.
 ... and contract with generalized density number  0.
 Leave Link  701 at Sun Dec 29 12:25:00 2019, MaxMem=   91750400 cpu:       0.1
 (Enter /opt/g09gh/gaussian/g09/l702.exe)
 L702 exits ... SP integral derivatives will be done elsewhere.
 Leave Link  702 at Sun Dec 29 12:25:00 2019, MaxMem=   91750400 cpu:       0.0
 (Enter /opt/g09gh/gaussian/g09/l703.exe)
 Compute integral first derivatives, UseDBF=F ICtDFT=           0.
 Integral derivatives from FoFDir, PRISM(SPDF).
 Calling FoFJK, ICntrl=      2127 FMM=F ISym2X=0 I1Cent= 0 IOpClX= 0 NMat=1 NMatS=1 NMatT=0.
 FoFCou: FMM=F IPFlag=           0 FMFlag=      100000 FMFlg1=         800
         NFxFlg=           0 DoJE=F BraDBF=F KetDBF=F FulRan=T
         Omega=  0.000000  0.000000  1.000000  0.000000  0.000000 ICntrl=    2127 IOpCl=  0
         NMat0=    1 NMatS0=    1 NMatT0=    0 NMatD0=    1 NMtDS0=    0 NMtDT0=    0
         I1Cent=           0 NGrid=           0.
 Symmetry not used in FoFCou.
 Leave Link  703 at Sun Dec 29 12:25:01 2019, MaxMem=   91750400 cpu:       0.3
 (Enter /opt/g09gh/gaussian/g09/l716.exe)
 Dipole        =-3.71664423D-01 6.97919764D-01-1.35272533D-02
 ***** Axes restored to original set *****
 -------------------------------------------------------------------
 Center     Atomic                   Forces (Hartrees/Bohr)
 Number     Number              X              Y              Z
 -------------------------------------------------------------------
      1        8          -0.011289394   -0.000764103    0.001594878
      2        6           0.011330681    0.002999274   -0.000091016
      3        1          -0.001591730    0.001345777    0.000630504
      4        1           0.000267191   -0.001549070    0.001431814
      5        1           0.000506122   -0.000619751   -0.001461775
      6        1           0.000777129   -0.001412127   -0.002104404
 -------------------------------------------------------------------
 Cartesian Forces:  Max     0.011330681 RMS     0.003993280
 Leave Link  716 at Sun Dec 29 12:25:01 2019, MaxMem=   91750400 cpu:       0.0
 (Enter /opt/g09gh/gaussian/g09/l103.exe)

 GradGradGradGradGradGradGradGradGradGradGradGradGradGradGradGradGradGrad
 Berny optimization.
 Using GEDIIS/GDIIS optimizer.
 Internal  Forces:  Max     0.010669397 RMS     0.003036649
 Search for a local minimum.
 Step number   2 out of a maximum of  100
 All quantities printed in internal units (Hartrees-Bohrs-Radians)
 RMS Force = .30366D-02 SwitMx=.10000D-02 MixMth= 1
 Mixed Optimization -- RFO/linear search
 Update second derivatives using D2CorX and points    1    2
 DE= -3.47D-03 DEPred=-3.50D-03 R= 9.89D-01
 SS=  1.41D+00  RLast= 1.85D-01 DXNew= 5.0454D-01 5.5637D-01
 Trust test= 9.89D-01 RLast= 1.85D-01 DXMaxT set to 5.05D-01
 The second derivative matrix:
                          R1        R2        R3        R4        R5
           R1           0.37180
           R2          -0.05906   0.54476
           R3          -0.01509   0.01440   0.35042
           R4          -0.01052   0.01274   0.00563   0.34792
           R5          -0.01063   0.00873   0.00433   0.00361   0.34566
           A1           0.01695  -0.00425  -0.00373  -0.00335  -0.00224
           A2          -0.00410   0.00783   0.00313   0.00250   0.00204
           A3           0.01383  -0.01422  -0.00657  -0.00541  -0.00419
           A4           0.01530  -0.00835  -0.00485  -0.00415  -0.00301
           A5          -0.01574  -0.00621   0.00014   0.00059  -0.00016
           A6          -0.00604   0.00272   0.00172   0.00149   0.00106
           A7          -0.00375   0.01357   0.00496   0.00389   0.00328
           D1           0.00203   0.01127   0.00341   0.00253   0.00232
           D2          -0.00009  -0.01665  -0.00544  -0.00413  -0.00366
           D3           0.00275   0.01874   0.00576   0.00429   0.00391
                          A1        A2        A3        A4        A5
           A1           0.16088
           A2          -0.00210   0.16132
           A3           0.00371  -0.00299   0.16634
           A4           0.00205  -0.00243   0.00474   0.16314
           A5           0.00200   0.00075  -0.00032   0.00099   0.15630
           A6          -0.00065   0.00089  -0.00169  -0.00107  -0.00049
           A7          -0.00370   0.00196  -0.00471  -0.00405   0.00185
           D1          -0.00317   0.00114  -0.00318  -0.00311   0.00238
           D2           0.00463  -0.00197   0.00511   0.00474  -0.00303
           D3          -0.00525   0.00196  -0.00538  -0.00520   0.00385
                          A6        A7        D1        D2        D3
           A6           0.16036
           A7           0.00151   0.16280
           D1           0.00119   0.00140   0.01254
           D2          -0.00180  -0.00259  -0.00091   0.01432
           D3           0.00199   0.00245   0.00057  -0.00167   0.01339
 Use linear search instead of GDIIS.
     Eigenvalues ---    0.01180   0.10194   0.10380   0.15634   0.16000
     Eigenvalues ---    0.16000   0.17308   0.33993   0.34330   0.34383
     Eigenvalues ---    0.37081   0.569471000.000001000.000001000.00000
 RFO step:  Lambda=-6.82831281D-04 EMin= 1.17980682D-02
 Quartic linear search produced a step of  0.01170.
 Iteration  1 RMS(Cart)=  0.02933531 RMS(Int)=  0.00127573
 Iteration  2 RMS(Cart)=  0.00107525 RMS(Int)=  0.00002177
 Iteration  3 RMS(Cart)=  0.00000158 RMS(Int)=  0.00002174
 Iteration  4 RMS(Cart)=  0.00000000 RMS(Int)=  0.00002174
 Variable       Old X    -DE/DX   Delta X   Delta X   Delta X     New X
                                 (Linear)    (Quad)   (Total)
    R1        2.67540  -0.01067  -0.00043  -0.02958  -0.03001   2.64539
    R2        1.76987   0.00169  -0.00083  -0.00231  -0.00314   1.76673
    R3        2.03774   0.00195  -0.00035   0.00341   0.00307   2.04081
    R4        2.04662   0.00181  -0.00025   0.00366   0.00341   2.05003
    R5        2.04786   0.00114  -0.00024   0.00174   0.00150   2.04935
    A1        1.92422   0.00003   0.00077   0.00531   0.00608   1.93030
    A2        1.87293   0.00200  -0.00022   0.01260   0.01238   1.88531
    A3        1.95957  -0.00156   0.00068  -0.00642  -0.00576   1.95381
    A4        1.94212  -0.00129   0.00072  -0.00395  -0.00326   1.93885
    A5        1.89375  -0.00006  -0.00067  -0.00398  -0.00464   1.88911
    A6        1.89681   0.00033  -0.00028   0.00228   0.00199   1.89880
    A7        1.89710   0.00066  -0.00023  -0.00020  -0.00048   1.89662
    D1        2.56861   0.00094   0.00046   0.08853   0.08898   2.65758
    D2        0.48927   0.00063   0.00101   0.08908   0.09013   0.57940
    D3       -1.64157   0.00183   0.00040   0.09681   0.09718  -1.54439
         Item               Value     Threshold  Converged?
 Maximum Force            0.010669     0.000450     NO 
 RMS     Force            0.003037     0.000300     NO 
 Maximum Displacement     0.072824     0.001800     NO 
 RMS     Displacement     0.029253     0.001200     NO 
 Predicted change in Energy=-3.525273D-04
 GradGradGradGradGradGradGradGradGradGradGradGradGradGradGradGradGradGrad

 Leave Link  103 at Sun Dec 29 12:25:01 2019, MaxMem=   91750400 cpu:       0.0
 (Enter /opt/g09gh/gaussian/g09/l202.exe)
                          Input orientation:                          
 ---------------------------------------------------------------------
 Center     Atomic      Atomic             Coordinates (Angstroms)
 Number     Number       Type             X           Y           Z
 ---------------------------------------------------------------------
      1          8           0        0.729933    0.090417    0.051847
      2          6           0       -0.664286   -0.022224   -0.004121
      3          1           0       -1.088187    0.785227    0.574342
      4          1           0       -1.012448   -0.959936    0.415802
      5          1           0       -1.021287    0.054633   -1.025259
      6          1           0        1.131935   -0.747612   -0.048985
 ---------------------------------------------------------------------
                    Distance matrix (angstroms):
                    1          2          3          4          5
     1  O    0.000000
     2  C    1.399881   0.000000
     3  H    2.015273   1.079948   0.000000
     4  H    2.066784   1.084830   1.753985   0.000000
     5  H    2.056261   1.084472   1.759820   1.762409   0.000000
     6  H    0.934914   1.937683   2.768949   2.204425   2.496612
                    6
     6  H    0.000000
 Stoichiometry    CH4O
 Framework group  C1[X(CH4O)]
 Deg. of freedom    12
 Full point group                 C1      NOp   1
 Largest Abelian subgroup         C1      NOp   1
 Largest concise Abelian subgroup C1      NOp   1
                         Standard orientation:                         
 ---------------------------------------------------------------------
 Center     Atomic      Atomic             Coordinates (Angstroms)
 Number     Number       Type             X           Y           Z
 ---------------------------------------------------------------------
      1          8           0        0.736136   -0.120121    0.000683
      2          6           0       -0.656817    0.018973    0.000981
      3          1           0       -1.079551   -0.851086   -0.479207
      4          1           0       -0.976539    0.898533   -0.547662
      5          1           0       -1.042478    0.081675    1.012620
      6          1           0        1.150379    0.718009    0.002902
 ---------------------------------------------------------------------
 Rotational constants (GHZ):    132.3857070     25.4050584     24.5615819
 Leave Link  202 at Sun Dec 29 12:25:01 2019, MaxMem=   91750400 cpu:       0.0
 (Enter /opt/g09gh/gaussian/g09/l301.exe)
 Standard basis: 6-311G(d) (5D, 7F)
 Ernie: Thresh=  0.10000D-02 Tol=  0.10000D-05 Strict=F.
 There are    48 symmetry adapted basis functions of A   symmetry.
 Integral buffers will be    131072 words long.
 Raffenetti 1 integral format.
 Two-electron integral symmetry is turned on.
    48 basis functions,    84 primitive gaussians,    50 cartesian basis functions
     9 alpha electrons        9 beta electrons
       nuclear repulsion energy        40.8595826317 Hartrees.
 IExCor=    0 DFT=F Ex=HF Corr=None ExCW=0 ScaHFX=  1.000000
 ScaDFX=  1.000000  1.000000  1.000000  1.000000 ScalE2=  1.000000  1.000000
 IRadAn=      0 IRanWt=     -1 IRanGd=            0 ICorTp=0
 NAtoms=    6 NActive=    6 NUniq=    6 SFac= 7.50D-01 NAtFMM=   80 NAOKFM=F Big=F
 Leave Link  301 at Sun Dec 29 12:25:01 2019, MaxMem=   91750400 cpu:       0.1
 (Enter /opt/g09gh/gaussian/g09/l302.exe)
 NPDir=0 NMtPBC=     1 NCelOv=     1 NCel=       1 NClECP=     1 NCelD=      1
         NCelK=      1 NCelE2=     1 NClLst=     1 CellRange=     0.0.
 One-electron integrals computed using PRISM.
 NBasis=    48 RedAO= T  NBF=    48
 NBsUse=    48 1.00D-06 NBFU=    48
 Leave Link  302 at Sun Dec 29 12:25:01 2019, MaxMem=   91750400 cpu:       0.1
 (Enter /opt/g09gh/gaussian/g09/l303.exe)
 DipDrv:  MaxL=1.
 Leave Link  303 at Sun Dec 29 12:25:01 2019, MaxMem=   91750400 cpu:       0.0
 (Enter /opt/g09gh/gaussian/g09/l401.exe)
 Initial guess read from the read-write file.
 B after Tr=     0.000000    0.000000    0.000000
         Rot=    1.000000    0.000000    0.000000    0.000000 Ang=   0.00 deg.
 Guess basis will be translated and rotated to current coordinates.
 Initial guess orbital symmetries:
       Occupied  (A) (A) (A) (A) (A) (A) (A) (A) (A)
       Virtual   (A) (A) (A) (A) (A) (A) (A) (A) (A) (A) (A) (A)
                 (A) (A) (A) (A) (A) (A) (A) (A) (A) (A) (A) (A)
                 (A) (A) (A) (A) (A) (A) (A) (A) (A) (A) (A) (A)
                 (A) (A) (A)
 The electronic state of the initial guess is 1-A.
 Generating alternative initial guess.
 Harris functional with IExCor=  205 diagonalized for initial guess.
 ExpMin= 1.03D-01 ExpMax= 8.59D+03 ExpMxC= 1.30D+03 IAcc=1 IRadAn=         1 AccDes= 0.00D+00
 HarFok:  IExCor=  205 AccDes= 0.00D+00 IRadAn=         1 IDoV= 1
 ScaDFX=  1.000000  1.000000  1.000000  1.000000
 FoFCou: FMM=F IPFlag=           0 FMFlag=      100000 FMFlg1=           0
         NFxFlg=           0 DoJE=T BraDBF=F KetDBF=T FulRan=T
         Omega=  0.000000  0.000000  1.000000  0.000000  0.000000 ICntrl=     500 IOpCl=  0
         NMat0=    1 NMatS0=    1 NMatT0=    0 NMatD0=    1 NMtDS0=    0 NMtDT0=    0
         I1Cent=           4 NGrid=           0.
 Petite list used in FoFCou.
 Harris En= -115.248310464264    
 Leave Link  401 at Sun Dec 29 12:25:01 2019, MaxMem=   91750400 cpu:       0.3
 (Enter /opt/g09gh/gaussian/g09/l502.exe)
 Closed shell SCF:
 Requested convergence on RMS density matrix=1.00D-08 within 128 cycles.
 Requested convergence on MAX density matrix=1.00D-06.
 Requested convergence on             energy=1.00D-06.
 No special actions if energy rises.
 Using DIIS extrapolation, IDIIS=  1040.
 Integral symmetry usage will be decided dynamically.
 Keep R1 ints in memory in canonical form, NReq=1659792.
 IEnd=       26328 IEndB=       26328 NGot=    91750400 MDV=    90929785
 LenX=    90929785 LenY=    90926844
 Symmetry not used in FoFDir.
 MinBra= 0 MaxBra= 2 Meth= 1.
 IRaf=       0 NMat=   1 IRICut=       1 DoRegI=T DoRafI=F ISym2E= 0 JSym2E=0.

 Cycle   1  Pass 1  IDiag  1:
 E= -115.060179234874    
 DIIS: error= 6.92D-03 at cycle   1 NSaved=   1.
 NSaved= 1 IEnMin= 1 EnMin= -115.060179234874     IErMin= 1 ErrMin= 6.92D-03
 ErrMax= 6.92D-03 EMaxC= 1.00D-01 BMatC= 1.41D-03 BMatP= 1.41D-03
 IDIUse=3 WtCom= 9.31D-01 WtEn= 6.92D-02
 Coeff-Com:  0.100D+01
 Coeff-En:   0.100D+01
 Coeff:      0.100D+01
 Gap=     0.598 Goal=   None    Shift=    0.000
 GapD=    0.598 DampG=2.000 DampE=1.000 DampFc=2.0000 IDamp=-1.
 RMSDP=4.68D-04 MaxDP=4.10D-03              OVMax= 1.29D-02

 Cycle   2  Pass 1  IDiag  1:
 E= -115.062400521978     Delta-E=       -0.002221287105 Rises=F Damp=F
 DIIS: error= 2.34D-03 at cycle   2 NSaved=   2.
 NSaved= 2 IEnMin= 2 EnMin= -115.062400521978     IErMin= 2 ErrMin= 2.34D-03
 ErrMax= 2.34D-03 EMaxC= 1.00D-01 BMatC= 1.28D-04 BMatP= 1.41D-03
 IDIUse=3 WtCom= 9.77D-01 WtEn= 2.34D-02
 Coeff-Com: -0.346D+00 0.135D+01
 Coeff-En:   0.000D+00 0.100D+01
 Coeff:     -0.338D+00 0.134D+01
 Gap=     0.597 Goal=   None    Shift=    0.000
 RMSDP=2.93D-04 MaxDP=2.98D-03 DE=-2.22D-03 OVMax= 6.48D-03

 Cycle   3  Pass 1  IDiag  1:
 E= -115.062696423670     Delta-E=       -0.000295901692 Rises=F Damp=F
 DIIS: error= 3.34D-04 at cycle   3 NSaved=   3.
 NSaved= 3 IEnMin= 3 EnMin= -115.062696423670     IErMin= 3 ErrMin= 3.34D-04
 ErrMax= 3.34D-04 EMaxC= 1.00D-01 BMatC= 4.58D-06 BMatP= 1.28D-04
 IDIUse=3 WtCom= 9.97D-01 WtEn= 3.34D-03
 Coeff-Com: -0.220D-01-0.290D-01 0.105D+01
 Coeff-En:   0.000D+00 0.000D+00 0.100D+01
 Coeff:     -0.219D-01-0.289D-01 0.105D+01
 Gap=     0.598 Goal=   None    Shift=    0.000
 RMSDP=8.36D-05 MaxDP=7.32D-04 DE=-2.96D-04 OVMax= 1.24D-03

 Cycle   4  Pass 1  IDiag  1:
 E= -115.062705723877     Delta-E=       -0.000009300206 Rises=F Damp=F
 DIIS: error= 1.12D-04 at cycle   4 NSaved=   4.
 NSaved= 4 IEnMin= 4 EnMin= -115.062705723877     IErMin= 4 ErrMin= 1.12D-04
 ErrMax= 1.12D-04 EMaxC= 1.00D-01 BMatC= 8.35D-07 BMatP= 4.58D-06
 IDIUse=3 WtCom= 9.99D-01 WtEn= 1.12D-03
 Coeff-Com:  0.280D-01-0.145D+00 0.304D+00 0.813D+00
 Coeff-En:   0.000D+00 0.000D+00 0.000D+00 0.100D+01
 Coeff:      0.280D-01-0.145D+00 0.304D+00 0.813D+00
 Gap=     0.598 Goal=   None    Shift=    0.000
 RMSDP=2.67D-05 MaxDP=2.26D-04 DE=-9.30D-06 OVMax= 3.75D-04

 Cycle   5  Pass 1  IDiag  1:
 E= -115.062706631158     Delta-E=       -0.000000907282 Rises=F Damp=F
 DIIS: error= 1.35D-05 at cycle   5 NSaved=   5.
 NSaved= 5 IEnMin= 5 EnMin= -115.062706631158     IErMin= 5 ErrMin= 1.35D-05
 ErrMax= 1.35D-05 EMaxC= 1.00D-01 BMatC= 1.09D-08 BMatP= 8.35D-07
 IDIUse=1 WtCom= 1.00D+00 WtEn= 0.00D+00
 Coeff-Com:  0.251D-04 0.408D-02-0.462D-01-0.186D-01 0.106D+01
 Coeff:      0.251D-04 0.408D-02-0.462D-01-0.186D-01 0.106D+01
 Gap=     0.598 Goal=   None    Shift=    0.000
 RMSDP=6.55D-06 MaxDP=5.22D-05 DE=-9.07D-07 OVMax= 8.17D-05

 Cycle   6  Pass 1  IDiag  1:
 E= -115.062706654443     Delta-E=       -0.000000023285 Rises=F Damp=F
 DIIS: error= 4.64D-06 at cycle   6 NSaved=   6.
 NSaved= 6 IEnMin= 6 EnMin= -115.062706654443     IErMin= 6 ErrMin= 4.64D-06
 ErrMax= 4.64D-06 EMaxC= 1.00D-01 BMatC= 7.40D-10 BMatP= 1.09D-08
 IDIUse=1 WtCom= 1.00D+00 WtEn= 0.00D+00
 Coeff-Com: -0.146D-02 0.786D-02-0.203D-01-0.440D-01 0.103D+00 0.955D+00
 Coeff:     -0.146D-02 0.786D-02-0.203D-01-0.440D-01 0.103D+00 0.955D+00
 Gap=     0.598 Goal=   None    Shift=    0.000
 RMSDP=1.20D-06 MaxDP=8.70D-06 DE=-2.33D-08 OVMax= 1.82D-05

 Cycle   7  Pass 1  IDiag  1:
 E= -115.062706655723     Delta-E=       -0.000000001280 Rises=F Damp=F
 DIIS: error= 1.71D-06 at cycle   7 NSaved=   7.
 NSaved= 7 IEnMin= 7 EnMin= -115.062706655723     IErMin= 7 ErrMin= 1.71D-06
 ErrMax= 1.71D-06 EMaxC= 1.00D-01 BMatC= 5.75D-11 BMatP= 7.40D-10
 IDIUse=1 WtCom= 1.00D+00 WtEn= 0.00D+00
 Coeff-Com:  0.106D-03-0.757D-03 0.411D-02 0.346D-02-0.720D-01-0.226D-01
 Coeff-Com:  0.109D+01
 Coeff:      0.106D-03-0.757D-03 0.411D-02 0.346D-02-0.720D-01-0.226D-01
 Coeff:      0.109D+01
 Gap=     0.598 Goal=   None    Shift=    0.000
 RMSDP=2.76D-07 MaxDP=2.20D-06 DE=-1.28D-09 OVMax= 5.75D-06

 Cycle   8  Pass 1  IDiag  1:
 E= -115.062706655858     Delta-E=       -0.000000000135 Rises=F Damp=F
 DIIS: error= 5.65D-07 at cycle   8 NSaved=   8.
 NSaved= 8 IEnMin= 8 EnMin= -115.062706655858     IErMin= 8 ErrMin= 5.65D-07
 ErrMax= 5.65D-07 EMaxC= 1.00D-01 BMatC= 6.08D-12 BMatP= 5.75D-11
 IDIUse=1 WtCom= 1.00D+00 WtEn= 0.00D+00
 Coeff-Com:  0.138D-03-0.718D-03 0.148D-02 0.401D-02 0.346D-02-0.997D-01
 Coeff-Com: -0.227D+00 0.132D+01
 Coeff:      0.138D-03-0.718D-03 0.148D-02 0.401D-02 0.346D-02-0.997D-01
 Coeff:     -0.227D+00 0.132D+01
 Gap=     0.598 Goal=   None    Shift=    0.000
 RMSDP=1.26D-07 MaxDP=1.02D-06 DE=-1.35D-10 OVMax= 2.65D-06

 Cycle   9  Pass 1  IDiag  1:
 E= -115.062706655876     Delta-E=       -0.000000000017 Rises=F Damp=F
 DIIS: error= 8.74D-08 at cycle   9 NSaved=   9.
 NSaved= 9 IEnMin= 9 EnMin= -115.062706655876     IErMin= 9 ErrMin= 8.74D-08
 ErrMax= 8.74D-08 EMaxC= 1.00D-01 BMatC= 1.63D-13 BMatP= 6.08D-12
 IDIUse=1 WtCom= 1.00D+00 WtEn= 0.00D+00
 Coeff-Com: -0.281D-04 0.153D-03-0.412D-03-0.859D-03 0.217D-02 0.197D-01
 Coeff-Com:  0.550D-02-0.264D+00 0.124D+01
 Coeff:     -0.281D-04 0.153D-03-0.412D-03-0.859D-03 0.217D-02 0.197D-01
 Coeff:      0.550D-02-0.264D+00 0.124D+01
 Gap=     0.598 Goal=   None    Shift=    0.000
 RMSDP=2.16D-08 MaxDP=1.69D-07 DE=-1.74D-11 OVMax= 4.58D-07

 Cycle  10  Pass 1  IDiag  1:
 E= -115.062706655876     Delta-E=        0.000000000000 Rises=F Damp=F
 DIIS: error= 1.91D-08 at cycle  10 NSaved=  10.
 NSaved=10 IEnMin=10 EnMin= -115.062706655876     IErMin=10 ErrMin= 1.91D-08
 ErrMax= 1.91D-08 EMaxC= 1.00D-01 BMatC= 7.40D-15 BMatP= 1.63D-13
 IDIUse=1 WtCom= 1.00D+00 WtEn= 0.00D+00
 Coeff-Com:  0.121D-06-0.253D-05 0.273D-04 0.269D-05-0.688D-03 0.126D-03
 Coeff-Com:  0.857D-02-0.260D-02-0.267D+00 0.126D+01
 Coeff:      0.121D-06-0.253D-05 0.273D-04 0.269D-05-0.688D-03 0.126D-03
 Coeff:      0.857D-02-0.260D-02-0.267D+00 0.126D+01
 Gap=     0.598 Goal=   None    Shift=    0.000
 RMSDP=4.61D-09 MaxDP=3.91D-08 DE=-3.13D-13 OVMax= 9.72D-08

 SCF Done:  E(RHF) =  -115.062706656     A.U. after   10 cycles
             Convg  =    0.4606D-08             -V/T =  1.9990
 KE= 1.151756495703D+02 PE=-3.531074047119D+02 EE= 8.200946585403D+01
 Leave Link  502 at Sun Dec 29 12:25:02 2019, MaxMem=   91750400 cpu:       0.1
 (Enter /opt/g09gh/gaussian/g09/l701.exe)
 Compute integral first derivatives.
 ... and contract with generalized density number  0.
 Leave Link  701 at Sun Dec 29 12:25:02 2019, MaxMem=   91750400 cpu:       0.1
 (Enter /opt/g09gh/gaussian/g09/l702.exe)
 L702 exits ... SP integral derivatives will be done elsewhere.
 Leave Link  702 at Sun Dec 29 12:25:02 2019, MaxMem=   91750400 cpu:       0.0
 (Enter /opt/g09gh/gaussian/g09/l703.exe)
 Compute integral first derivatives, UseDBF=F ICtDFT=           0.
 Integral derivatives from FoFDir, PRISM(SPDF).
 Calling FoFJK, ICntrl=      2127 FMM=F ISym2X=0 I1Cent= 0 IOpClX= 0 NMat=1 NMatS=1 NMatT=0.
 FoFCou: FMM=F IPFlag=           0 FMFlag=      100000 FMFlg1=         800
         NFxFlg=           0 DoJE=F BraDBF=F KetDBF=F FulRan=T
         Omega=  0.000000  0.000000  1.000000  0.000000  0.000000 ICntrl=    2127 IOpCl=  0
         NMat0=    1 NMatS0=    1 NMatT0=    0 NMatD0=    1 NMtDS0=    0 NMtDT0=    0
         I1Cent=           0 NGrid=           0.
 Symmetry not used in FoFCou.
 Leave Link  703 at Sun Dec 29 12:25:02 2019, MaxMem=   91750400 cpu:       0.3
 (Enter /opt/g09gh/gaussian/g09/l716.exe)
 Dipole        =-3.45305091D-01 6.89838979D-01-1.64613082D-02
 ***** Axes restored to original set *****
 -------------------------------------------------------------------
 Center     Atomic                   Forces (Hartrees/Bohr)
 Number     Number              X              Y              Z
 -------------------------------------------------------------------
      1        8          -0.001121743    0.003736162    0.003482444
      2        6           0.001933339   -0.000526464   -0.000850059
      3        1          -0.000141880    0.001058813   -0.000161093
      4        1          -0.000759323   -0.000746467    0.000956317
      5        1          -0.001186578   -0.000353177   -0.001048111
      6        1           0.001276185   -0.003168867   -0.002379498
 -------------------------------------------------------------------
 Cartesian Forces:  Max     0.003736162 RMS     0.001752162
 Leave Link  716 at Sun Dec 29 12:25:02 2019, MaxMem=   91750400 cpu:       0.0
 (Enter /opt/g09gh/gaussian/g09/l103.exe)

 GradGradGradGradGradGradGradGradGradGradGradGradGradGradGradGradGradGrad
 Berny optimization.
 Using GEDIIS/GDIIS optimizer.
 Internal  Forces:  Max     0.003645853 RMS     0.001266516
 Search for a local minimum.
 Step number   3 out of a maximum of  100
 All quantities printed in internal units (Hartrees-Bohrs-Radians)
 RMS Force = .12665D-02 SwitMx=.10000D-02 MixMth= 1
 Mixed Optimization -- RFO/linear search
 Update second derivatives using D2CorX and points    1    2    3
 DE= -4.81D-04 DEPred=-3.53D-04 R= 1.36D+00
 SS=  1.41D+00  RLast= 1.63D-01 DXNew= 8.4853D-01 4.9001D-01
 Trust test= 1.36D+00 RLast= 1.63D-01 DXMaxT set to 5.05D-01
 The second derivative matrix:
                          R1        R2        R3        R4        R5
           R1           0.49385
           R2           0.04627   0.58667
           R3          -0.00750   0.01004   0.34844
           R4           0.01024   0.01353   0.00313   0.34544
           R5           0.01923   0.01641   0.00220   0.00233   0.34623
           A1          -0.00875  -0.01711  -0.00324  -0.00449  -0.00512
           A2          -0.03689  -0.01585   0.00206  -0.00140  -0.00419
           A3           0.03131  -0.00094  -0.00580  -0.00316  -0.00071
           A4           0.05332   0.01126  -0.00528  -0.00244   0.00121
           A5          -0.01006  -0.00258   0.00017   0.00115   0.00083
           A6          -0.01508  -0.00331   0.00152   0.00062  -0.00044
           A7          -0.02664   0.00493   0.00592   0.00397   0.00192
           D1           0.02456   0.01497   0.00138   0.00079   0.00192
           D2           0.03551  -0.00917  -0.00826  -0.00635  -0.00374
           D3          -0.00553   0.01022   0.00492   0.00242   0.00140
                          A1        A2        A3        A4        A5
           A1           0.16450
           A2           0.00397   0.16957
           A3           0.00030  -0.00733   0.16848
           A4          -0.00357  -0.01109   0.00922   0.17064
           A5           0.00108  -0.00075   0.00060   0.00266   0.15646
           A6           0.00095   0.00307  -0.00279  -0.00320  -0.00093
           A7          -0.00092   0.00686  -0.00727  -0.00768   0.00091
           D1          -0.00498  -0.00327  -0.00077  -0.00072   0.00313
           D2           0.00143  -0.00902   0.00887   0.00878  -0.00174
           D3          -0.00324   0.00429  -0.00657  -0.00808   0.00340
                          A6        A7        D1        D2        D3
           A6           0.16091
           A7           0.00266   0.16424
           D1           0.00020   0.00100   0.01145
           D2          -0.00338  -0.00348  -0.00220   0.01288
           D3           0.00264   0.00426  -0.00137  -0.00466   0.01391
 Use linear search instead of GDIIS.
     Eigenvalues ---    0.00482   0.10276   0.10431   0.15782   0.16000
     Eigenvalues ---    0.16445   0.17649   0.34194   0.34322   0.35121
     Eigenvalues ---    0.49477   0.615391000.000001000.000001000.00000
 RFO step:  Lambda=-4.93686308D-04 EMin= 4.81702347D-03
 Quartic linear search produced a step of  0.59017.
 Iteration  1 RMS(Cart)=  0.05423936 RMS(Int)=  0.00559737
 Iteration  2 RMS(Cart)=  0.00480614 RMS(Int)=  0.00004156
 Iteration  3 RMS(Cart)=  0.00003530 RMS(Int)=  0.00003318
 Iteration  4 RMS(Cart)=  0.00000000 RMS(Int)=  0.00003318
 Variable       Old X    -DE/DX   Delta X   Delta X   Delta X     New X
                                 (Linear)    (Quad)   (Total)
    R1        2.64539   0.00024  -0.01771  -0.00627  -0.02399   2.62141
    R2        1.76673   0.00365  -0.00185   0.00436   0.00250   1.76924
    R3        2.04081   0.00076   0.00181   0.00140   0.00320   2.04401
    R4        2.05003   0.00126   0.00201   0.00433   0.00635   2.05638
    R5        2.04935   0.00135   0.00088   0.00453   0.00542   2.05477
    A1        1.93030  -0.00068   0.00359  -0.00026   0.00332   1.93363
    A2        1.88531  -0.00067   0.00731  -0.00748  -0.00019   1.88512
    A3        1.95381   0.00041  -0.00340   0.00847   0.00502   1.95883
    A4        1.93885   0.00121  -0.00193   0.01653   0.01455   1.95340
    A5        1.88911  -0.00008  -0.00274  -0.00720  -0.00994   1.87917
    A6        1.89880  -0.00050   0.00117  -0.00777  -0.00662   1.89219
    A7        1.89662  -0.00042  -0.00028  -0.00361  -0.00397   1.89265
    D1        2.65758   0.00110   0.05251   0.13657   0.18906   2.84664
    D2        0.57940   0.00139   0.05319   0.14519   0.19844   0.77784
    D3       -1.54439   0.00078   0.05735   0.13213   0.18945  -1.35494
         Item               Value     Threshold  Converged?
 Maximum Force            0.003646     0.000450     NO 
 RMS     Force            0.001267     0.000300     NO 
 Maximum Displacement     0.137400     0.001800     NO 
 RMS     Displacement     0.054249     0.001200     NO 
 Predicted change in Energy=-3.805023D-04
 GradGradGradGradGradGradGradGradGradGradGradGradGradGradGradGradGradGrad

 Leave Link  103 at Sun Dec 29 12:25:02 2019, MaxMem=   91750400 cpu:       0.0
 (Enter /opt/g09gh/gaussian/g09/l202.exe)
                          Input orientation:                          
 ---------------------------------------------------------------------
 Center     Atomic      Atomic             Coordinates (Angstroms)
 Number     Number       Type             X           Y           Z
 ---------------------------------------------------------------------
      1          8           0        0.721973    0.077434    0.111963
      2          6           0       -0.657351   -0.025786    0.006584
      3          1           0       -1.097143    0.794905    0.557041
      4          1           0       -1.034974   -0.951552    0.436132
      5          1           0       -0.991274    0.035431   -1.026399
      6          1           0        1.134428   -0.729925   -0.121694
 ---------------------------------------------------------------------
                    Distance matrix (angstroms):
                    1          2          3          4          5
     1  O    0.000000
     2  C    1.387189   0.000000
     3  H    2.005503   1.081644   0.000000
     4  H    2.061738   1.088189   1.751741   0.000000
     5  H    2.057388   1.087338   1.759344   1.764948   0.000000
     6  H    0.936239   1.929440   2.786700   2.250910   2.433694
                    6
     6  H    0.000000
 Stoichiometry    CH4O
 Framework group  C1[X(CH4O)]
 Deg. of freedom    12
 Full point group                 C1      NOp   1
 Largest Abelian subgroup         C1      NOp   1
 Largest concise Abelian subgroup C1      NOp   1
                         Standard orientation:                         
 ---------------------------------------------------------------------
 Center     Atomic      Atomic             Coordinates (Angstroms)
 Number     Number       Type             X           Y           Z
 ---------------------------------------------------------------------
      1          8           0        0.730790   -0.119886    0.000893
      2          6           0       -0.649372    0.019559    0.001425
      3          1           0       -1.081167   -0.926276   -0.296742
      4          1           0       -0.987209    0.774440   -0.705806
      5          1           0       -1.031096    0.276006    0.986730
      6          1           0        1.149384    0.717564    0.000120
 ---------------------------------------------------------------------
 Rotational constants (GHZ):    132.4072815     25.7137882     24.8628396
 Leave Link  202 at Sun Dec 29 12:25:02 2019, MaxMem=   91750400 cpu:       0.0
 (Enter /opt/g09gh/gaussian/g09/l301.exe)
 Standard basis: 6-311G(d) (5D, 7F)
 Ernie: Thresh=  0.10000D-02 Tol=  0.10000D-05 Strict=F.
 There are    48 symmetry adapted basis functions of A   symmetry.
 Integral buffers will be    131072 words long.
 Raffenetti 1 integral format.
 Two-electron integral symmetry is turned on.
    48 basis functions,    84 primitive gaussians,    50 cartesian basis functions
     9 alpha electrons        9 beta electrons
       nuclear repulsion energy        41.0182935773 Hartrees.
 IExCor=    0 DFT=F Ex=HF Corr=None ExCW=0 ScaHFX=  1.000000
 ScaDFX=  1.000000  1.000000  1.000000  1.000000 ScalE2=  1.000000  1.000000
 IRadAn=      0 IRanWt=     -1 IRanGd=            0 ICorTp=0
 NAtoms=    6 NActive=    6 NUniq=    6 SFac= 7.50D-01 NAtFMM=   80 NAOKFM=F Big=F
 Leave Link  301 at Sun Dec 29 12:25:02 2019, MaxMem=   91750400 cpu:       0.1
 (Enter /opt/g09gh/gaussian/g09/l302.exe)
 NPDir=0 NMtPBC=     1 NCelOv=     1 NCel=       1 NClECP=     1 NCelD=      1
         NCelK=      1 NCelE2=     1 NClLst=     1 CellRange=     0.0.
 One-electron integrals computed using PRISM.
 NBasis=    48 RedAO= T  NBF=    48
 NBsUse=    48 1.00D-06 NBFU=    48
 Leave Link  302 at Sun Dec 29 12:25:02 2019, MaxMem=   91750400 cpu:       0.1
 (Enter /opt/g09gh/gaussian/g09/l303.exe)
 DipDrv:  MaxL=1.
 Leave Link  303 at Sun Dec 29 12:25:02 2019, MaxMem=   91750400 cpu:       0.0
 (Enter /opt/g09gh/gaussian/g09/l401.exe)
 Initial guess read from the read-write file.
 B after Tr=     0.000000    0.000000    0.000000
         Rot=    1.000000    0.000000    0.000000    0.000000 Ang=   0.00 deg.
 Guess basis will be translated and rotated to current coordinates.
 Initial guess orbital symmetries:
       Occupied  (A) (A) (A) (A) (A) (A) (A) (A) (A)
       Virtual   (A) (A) (A) (A) (A) (A) (A) (A) (A) (A) (A) (A)
                 (A) (A) (A) (A) (A) (A) (A) (A) (A) (A) (A) (A)
                 (A) (A) (A) (A) (A) (A) (A) (A) (A) (A) (A) (A)
                 (A) (A) (A)
 The electronic state of the initial guess is 1-A.
 Generating alternative initial guess.
 Harris functional with IExCor=  205 diagonalized for initial guess.
 ExpMin= 1.03D-01 ExpMax= 8.59D+03 ExpMxC= 1.30D+03 IAcc=1 IRadAn=         1 AccDes= 0.00D+00
 HarFok:  IExCor=  205 AccDes= 0.00D+00 IRadAn=         1 IDoV= 1
 ScaDFX=  1.000000  1.000000  1.000000  1.000000
 FoFCou: FMM=F IPFlag=           0 FMFlag=      100000 FMFlg1=           0
         NFxFlg=           0 DoJE=T BraDBF=F KetDBF=T FulRan=T
         Omega=  0.000000  0.000000  1.000000  0.000000  0.000000 ICntrl=     500 IOpCl=  0
         NMat0=    1 NMatS0=    1 NMatT0=    0 NMatD0=    1 NMtDS0=    0 NMtDT0=    0
         I1Cent=           4 NGrid=           0.
 Petite list used in FoFCou.
 Harris En= -115.248980839127    
 Leave Link  401 at Sun Dec 29 12:25:03 2019, MaxMem=   91750400 cpu:       0.3
 (Enter /opt/g09gh/gaussian/g09/l502.exe)
 Closed shell SCF:
 Requested convergence on RMS density matrix=1.00D-08 within 128 cycles.
 Requested convergence on MAX density matrix=1.00D-06.
 Requested convergence on             energy=1.00D-06.
 No special actions if energy rises.
 Using DIIS extrapolation, IDIIS=  1040.
 Integral symmetry usage will be decided dynamically.
 Keep R1 ints in memory in canonical form, NReq=1659792.
 IEnd=       26328 IEndB=       26328 NGot=    91750400 MDV=    90929785
 LenX=    90929785 LenY=    90926844
 Symmetry not used in FoFDir.
 MinBra= 0 MaxBra= 2 Meth= 1.
 IRaf=       0 NMat=   1 IRICut=       1 DoRegI=T DoRafI=F ISym2E= 0 JSym2E=0.

 Cycle   1  Pass 1  IDiag  1:
 E= -115.053153918827    
 DIIS: error= 1.44D-02 at cycle   1 NSaved=   1.
 NSaved= 1 IEnMin= 1 EnMin= -115.053153918827     IErMin= 1 ErrMin= 1.44D-02
 ErrMax= 1.44D-02 EMaxC= 1.00D-01 BMatC= 5.44D-03 BMatP= 5.44D-03
 IDIUse=3 WtCom= 8.56D-01 WtEn= 1.44D-01
 Coeff-Com:  0.100D+01
 Coeff-En:   0.100D+01
 Coeff:      0.100D+01
 Recover alternate guess density for next cycle.
 RMSDP=4.65D-03 MaxDP=5.08D-02              OVMax= 0.00D+00

 Cycle   2  Pass 1  IDiag  1:
 E= -114.935559580049     Delta-E=        0.117594338778 Rises=F Damp=F
 Switch densities from cycles 1 and 2 for lowest energy.
 DIIS: error= 5.94D-02 at cycle   2 NSaved=   2.
 NSaved= 2 IEnMin= 1 EnMin= -115.053153918827     IErMin= 1 ErrMin= 1.44D-02
 ErrMax= 5.94D-02 EMaxC= 1.00D+00 BMatC= 2.63D-01 BMatP= 5.44D-03
 IDIUse=1 WtCom= 1.00D+00 WtEn= 0.00D+00
 Coeff-Com:  0.979D+00 0.210D-01
 Coeff:      0.979D+00 0.210D-01
 Gap=     0.640 Goal=   None    Shift=    0.000
 RMSDP=9.26D-04 MaxDP=8.57D-03 DE= 1.18D-01 OVMax= 8.37D-02

 Cycle   3  Pass 1  IDiag  1:
 E= -115.062012079942     Delta-E=       -0.126452499893 Rises=F Damp=F
 DIIS: error= 4.65D-03 at cycle   3 NSaved=   3.
 NSaved= 3 IEnMin= 3 EnMin= -115.062012079942     IErMin= 3 ErrMin= 4.65D-03
 ErrMax= 4.65D-03 EMaxC= 1.00D+00 BMatC= 5.03D-04 BMatP= 5.44D-03
 IDIUse=1 WtCom= 1.00D+00 WtEn= 0.00D+00
 Coeff-Com: -0.355D+00 0.582D-02 0.135D+01
 Coeff:     -0.355D+00 0.582D-02 0.135D+01
[...]
 ErrMax= 8.57D-07 EMaxC= 1.00D-01 BMatC= 7.32D-11 BMatP= 2.27D-09
 IDIUse=1 WtCom= 1.00D+00 WtEn= 0.00D+00
 Coeff-Com: -0.108D-02 0.884D-02-0.664D-01 0.471D-01 0.101D+01
 Coeff:     -0.108D-02 0.884D-02-0.664D-01 0.471D-01 0.101D+01
 Gap=     0.600 Goal=   None    Shift=    0.000
 RMSDP=4.78D-07 MaxDP=3.86D-06 DE=-2.26D-09 OVMax= 5.88D-06

 Cycle   6  Pass 1  IDiag  1:
 E= -115.063728392386     Delta-E=       -0.000000000121 Rises=F Damp=F
 DIIS: error= 1.64D-07 at cycle   6 NSaved=   6.
 NSaved= 6 IEnMin= 6 EnMin= -115.063728392386     IErMin= 6 ErrMin= 1.64D-07
 ErrMax= 1.64D-07 EMaxC= 1.00D-01 BMatC= 2.25D-12 BMatP= 7.32D-11
 IDIUse=1 WtCom= 1.00D+00 WtEn= 0.00D+00
 Coeff-Com: -0.102D-02 0.520D-02-0.155D-01-0.295D-01 0.280D-01 0.101D+01
 Coeff:     -0.102D-02 0.520D-02-0.155D-01-0.295D-01 0.280D-01 0.101D+01
 Gap=     0.600 Goal=   None    Shift=    0.000
 RMSDP=8.16D-08 MaxDP=6.51D-07 DE=-1.21D-10 OVMax= 1.34D-06

 Cycle   7  Pass 1  IDiag  1:
 E= -115.063728392390     Delta-E=       -0.000000000005 Rises=F Damp=F
 DIIS: error= 6.15D-08 at cycle   7 NSaved=   7.
 NSaved= 7 IEnMin= 7 EnMin= -115.063728392390     IErMin= 7 ErrMin= 6.15D-08
 ErrMax= 6.15D-08 EMaxC= 1.00D-01 BMatC= 2.34D-13 BMatP= 2.25D-12
 IDIUse=1 WtCom= 1.00D+00 WtEn= 0.00D+00
 Coeff-Com:  0.427D-04-0.358D-03 0.319D-02-0.396D-02-0.528D-01 0.572D-01
 Coeff-Com:  0.997D+00
 Coeff:      0.427D-04-0.358D-03 0.319D-02-0.396D-02-0.528D-01 0.572D-01
 Coeff:      0.997D+00
 Gap=     0.600 Goal=   None    Shift=    0.000
 RMSDP=1.66D-08 MaxDP=1.67D-07 DE=-4.77D-12 OVMax= 4.46D-07

 Cycle   8  Pass 1  IDiag  1:
 E= -115.063728392391     Delta-E=        0.000000000000 Rises=F Damp=F
 DIIS: error= 2.82D-08 at cycle   8 NSaved=   8.
 NSaved= 8 IEnMin= 8 EnMin= -115.063728392391     IErMin= 8 ErrMin= 2.82D-08
 ErrMax= 2.82D-08 EMaxC= 1.00D-01 BMatC= 3.45D-14 BMatP= 2.34D-13
 IDIUse=1 WtCom= 1.00D+00 WtEn= 0.00D+00
 Coeff-Com:  0.147D-03-0.731D-03 0.191D-02 0.497D-02 0.443D-02-0.159D+00
 Coeff-Com: -0.211D+00 0.136D+01
 Coeff:      0.147D-03-0.731D-03 0.191D-02 0.497D-02 0.443D-02-0.159D+00
 Coeff:     -0.211D+00 0.136D+01
 Gap=     0.600 Goal=   None    Shift=    0.000
 RMSDP=1.03D-08 MaxDP=1.14D-07 DE=-2.84D-13 OVMax= 3.00D-07

 Cycle   9  Pass 1  IDiag  1:
 E= -115.063728392391     Delta-E=        0.000000000000 Rises=F Damp=F
 DIIS: error= 5.07D-09 at cycle   9 NSaved=   9.
 NSaved= 9 IEnMin= 9 EnMin= -115.063728392391     IErMin= 9 ErrMin= 5.07D-09
 ErrMax= 5.07D-09 EMaxC= 1.00D-01 BMatC= 1.05D-15 BMatP= 3.45D-14
 IDIUse=1 WtCom= 1.00D+00 WtEn= 0.00D+00
 Coeff-Com: -0.293D-04 0.152D-03-0.502D-03-0.760D-03 0.130D-02 0.312D-01
 Coeff-Com: -0.520D-02-0.281D+00 0.126D+01
 Coeff:     -0.293D-04 0.152D-03-0.502D-03-0.760D-03 0.130D-02 0.312D-01
 Coeff:     -0.520D-02-0.281D+00 0.126D+01
 Gap=     0.600 Goal=   None    Shift=    0.000
 RMSDP=1.88D-09 MaxDP=2.08D-08 DE=-8.53D-14 OVMax= 5.00D-08

 SCF Done:  E(RHF) =  -115.063728392     A.U. after    9 cycles
             Convg  =    0.1878D-08             -V/T =  1.9992
 KE= 1.151615280001D+02 PE=-3.530731780322D+02 EE= 8.199698837098D+01
 Leave Link  502 at Sun Dec 29 12:25:09 2019, MaxMem=   91750400 cpu:       0.1
 (Enter /opt/g09gh/gaussian/g09/l701.exe)
 Compute integral first derivatives.
 ... and contract with generalized density number  0.
 Leave Link  701 at Sun Dec 29 12:25:09 2019, MaxMem=   91750400 cpu:       0.1
 (Enter /opt/g09gh/gaussian/g09/l702.exe)
 L702 exits ... SP integral derivatives will be done elsewhere.
 Leave Link  702 at Sun Dec 29 12:25:09 2019, MaxMem=   91750400 cpu:       0.0
 (Enter /opt/g09gh/gaussian/g09/l703.exe)
 Compute integral first derivatives, UseDBF=F ICtDFT=           0.
 Integral derivatives from FoFDir, PRISM(SPDF).
 Calling FoFJK, ICntrl=      2127 FMM=F ISym2X=0 I1Cent= 0 IOpClX= 0 NMat=1 NMatS=1 NMatT=0.
 FoFCou: FMM=F IPFlag=           0 FMFlag=      100000 FMFlg1=         800
         NFxFlg=           0 DoJE=F BraDBF=F KetDBF=F FulRan=T
         Omega=  0.000000  0.000000  1.000000  0.000000  0.000000 ICntrl=    2127 IOpCl=  0
         NMat0=    1 NMatS0=    1 NMatT0=    0 NMatD0=    1 NMtDS0=    0 NMtDT0=    0
         I1Cent=           0 NGrid=           0.
 Symmetry not used in FoFCou.
 Leave Link  703 at Sun Dec 29 12:25:09 2019, MaxMem=   91750400 cpu:       0.3
 (Enter /opt/g09gh/gaussian/g09/l716.exe)
 Dipole        =-3.48158532D-01-6.71577075D-01-1.05971828D-04
 ***** Axes restored to original set *****
 -------------------------------------------------------------------
 Center     Atomic                   Forces (Hartrees/Bohr)
 Number     Number              X              Y              Z
 -------------------------------------------------------------------
      1        8          -0.000030817    0.000038690    0.000029468
      2        6           0.000027226   -0.000065271   -0.000065130
      3        1           0.000066934   -0.000015069    0.000006752
      4        1           0.000003150    0.000014601    0.000008345
      5        1          -0.000009550    0.000007134    0.000008345
      6        1          -0.000056944    0.000019916    0.000012221
 -------------------------------------------------------------------
 Cartesian Forces:  Max     0.000066934 RMS     0.000034644
 Leave Link  716 at Sun Dec 29 12:25:09 2019, MaxMem=   91750400 cpu:       0.0
 (Enter /opt/g09gh/gaussian/g09/l103.exe)

 GradGradGradGradGradGradGradGradGradGradGradGradGradGradGradGradGradGrad
 Berny optimization.
 Using GEDIIS/GDIIS optimizer.
 Internal  Forces:  Max     0.000100269 RMS     0.000043919
 Search for a local minimum.
 Step number   8 out of a maximum of  100
 All quantities printed in internal units (Hartrees-Bohrs-Radians)
 RMS Force = .43919D-04 SwitMx=.10000D-02 MixMth= 2
 Mixed Optimization -- En-DIIS/RFO-DIIS
 Swaping is turned off.
 Update second derivatives using D2CorX and points    4    5    6    7    8
 DE= -9.29D-07 DEPred=-9.83D-07 R= 9.45D-01
 Trust test= 9.45D-01 RLast= 1.36D-02 DXMaxT set to 1.01D+00
 The second derivative matrix:
                          R1        R2        R3        R4        R5
           R1           0.41915
           R2           0.00786   0.56479
           R3           0.00926   0.00952   0.34442
           R4           0.01760   0.01233  -0.00075   0.34287
           R5           0.01551   0.01258  -0.00014   0.00091   0.34517
           A1           0.03703  -0.00831  -0.00511  -0.00924  -0.00756
           A2           0.02921  -0.00789  -0.00489  -0.01036  -0.00903
           A3           0.02817  -0.00116  -0.00492  -0.00240  -0.00037
           A4           0.02460   0.00854  -0.00270   0.00114   0.00330
           A5          -0.02968  -0.00841   0.00154   0.00270   0.00106
           A6          -0.02229  -0.00017   0.00307   0.00295   0.00152
           A7          -0.03261   0.00352   0.00654   0.00483   0.00230
           D1           0.00843   0.00967   0.00244   0.00200   0.00196
           D2          -0.00193  -0.01334  -0.00488  -0.00232  -0.00157
           D3          -0.00708   0.00310   0.00307   0.00025  -0.00078
                          A1        A2        A3        A4        A5
           A1           0.16929
           A2           0.00433   0.16012
           A3           0.00089  -0.00529   0.16809
           A4          -0.00476  -0.00870   0.00810   0.17024
           A5           0.00261   0.00257   0.00037   0.00184   0.15436
           A6          -0.00107   0.00269  -0.00298  -0.00250  -0.00082
           A7          -0.00049   0.00865  -0.00734  -0.00834   0.00077
           D1          -0.00248   0.00067  -0.00098  -0.00203   0.00128
           D2           0.00216  -0.00559   0.00780   0.00903  -0.00449
           D3          -0.00078   0.00525  -0.00618  -0.00868   0.00264
                          A6        A7        D1        D2        D3
           A6           0.16042
           A7           0.00281   0.16324
           D1           0.00083   0.00006   0.00998
           D2          -0.00294  -0.00363  -0.00350   0.01233
           D3           0.00407   0.00314  -0.00304  -0.00468   0.01026
     Eigenvalues ---    0.00336   0.10196   0.10463   0.13599   0.16003
     Eigenvalues ---    0.16335   0.19002   0.34162   0.34367   0.34526
     Eigenvalues ---    0.44414   0.567621000.000001000.000001000.00000
 En-DIIS/RFO-DIIS IScMMF=        0 using points:     8    7
 RFO step:  Lambda=-6.10780243D-08.
 DIIS coeffs:      0.95682      0.04318
 Iteration  1 RMS(Cart)=  0.00035508 RMS(Int)=  0.00000010
 Iteration  2 RMS(Cart)=  0.00000009 RMS(Int)=  0.00000003
 Variable       Old X    -DE/DX   Delta X   Delta X   Delta X     New X
                                  (DIIS)     (GDIIS)  (Total)
    R1        2.64188  -0.00008  -0.00008  -0.00002  -0.00009   2.64178
    R2        1.77430  -0.00005   0.00001  -0.00009  -0.00009   1.77421
    R3        2.04153  -0.00004   0.00001  -0.00012  -0.00011   2.04142
    R4        2.05472  -0.00001   0.00002  -0.00008  -0.00005   2.05466
    R5        2.05471  -0.00001   0.00002  -0.00005  -0.00004   2.05467
    A1        1.92049  -0.00007  -0.00002  -0.00038  -0.00040   1.92009
    A2        1.87216  -0.00010   0.00001  -0.00065  -0.00065   1.87151
    A3        1.95407   0.00001   0.00000   0.00005   0.00006   1.95412
    A4        1.95393   0.00004   0.00002   0.00019   0.00022   1.95415
    A5        1.89220   0.00001  -0.00001   0.00003   0.00002   1.89222
    A6        1.89209   0.00002  -0.00001   0.00014   0.00013   1.89221
    A7        1.89742   0.00001  -0.00002   0.00022   0.00021   1.89763
    D1       -3.14091  -0.00001   0.00033  -0.00108  -0.00075   3.14153
    D2        1.06853   0.00003   0.00034  -0.00074  -0.00040   1.06812
    D3       -1.06737  -0.00002   0.00033  -0.00121  -0.00088  -1.06825
         Item               Value     Threshold  Converged?
 Maximum Force            0.000100     0.000450     YES
 RMS     Force            0.000044     0.000300     YES
 Maximum Displacement     0.000739     0.001800     YES
 RMS     Displacement     0.000355     0.001200     YES
 Predicted change in Energy=-7.113583D-08
 Optimization completed.
    -- Stationary point found.
                           ----------------------------
                           !   Optimized Parameters   !
                           ! (Angstroms and Degrees)  !
 --------------------------                            --------------------------
 ! Name  Definition              Value          Derivative Info.                !
 --------------------------------------------------------------------------------
 ! R1    R(1,2)                  1.398          -DE/DX =   -0.0001              !
 ! R2    R(1,6)                  0.9389         -DE/DX =    0.0                 !
 ! R3    R(2,3)                  1.0803         -DE/DX =    0.0                 !
 ! R4    R(2,4)                  1.0873         -DE/DX =    0.0                 !
 ! R5    R(2,5)                  1.0873         -DE/DX =    0.0                 !
 ! A1    A(2,1,6)              110.0359         -DE/DX =   -0.0001              !
 ! A2    A(1,2,3)              107.2669         -DE/DX =   -0.0001              !
 ! A3    A(1,2,4)              111.9597         -DE/DX =    0.0                 !
 ! A4    A(1,2,5)              111.9522         -DE/DX =    0.0                 !
 ! A5    A(3,2,4)              108.4152         -DE/DX =    0.0                 !
 ! A6    A(3,2,5)              108.4086         -DE/DX =    0.0                 !
 ! A7    A(4,2,5)              108.7139         -DE/DX =    0.0                 !
 ! D1    D(6,1,2,3)            180.0393         -DE/DX =    0.0                 !
 ! D2    D(6,1,2,4)             61.222          -DE/DX =    0.0                 !
 ! D3    D(6,1,2,5)            -61.1558         -DE/DX =    0.0                 !
 --------------------------------------------------------------------------------
 GradGradGradGradGradGradGradGradGradGradGradGradGradGradGradGradGradGrad

 Largest change from initial coordinates is atom    4       1.496 Angstoms.
 Leave Link  103 at Sun Dec 29 12:25:09 2019, MaxMem=   91750400 cpu:       0.0
 (Enter /opt/g09gh/gaussian/g09/l202.exe)
                          Input orientation:                          
 ---------------------------------------------------------------------
 Center     Atomic      Atomic             Coordinates (Angstroms)
 Number     Number       Type             X           Y           Z
 ---------------------------------------------------------------------
      1          8           0        0.721091    0.042632    0.198216
      2          6           0       -0.663934   -0.036554    0.025306
      3          1           0       -1.099117    0.814496    0.528735
      4          1           0       -1.077125   -0.942377    0.462340
      5          1           0       -0.945547    0.004344   -1.024102
      6          1           0        1.140291   -0.682034   -0.226869
 ---------------------------------------------------------------------
                    Distance matrix (angstroms):
                    1          2          3          4          5
     1  O    0.000000
     2  C    1.398021   0.000000
     3  H    2.004538   1.080329   0.000000
     4  H    2.067265   1.087309   1.758265   0.000000
     5  H    2.067174   1.087307   1.758191   1.767230   0.000000
     6  H    0.938918   1.932735   2.797408   2.336604   2.336111
                    6
     6  H    0.000000
 Stoichiometry    CH4O
 Framework group  C1[X(CH4O)]
 Deg. of freedom    12
 Full point group                 C1      NOp   1
 Largest Abelian subgroup         C1      NOp   1
 Largest concise Abelian subgroup C1      NOp   1
                         Standard orientation:                         
 ---------------------------------------------------------------------
 Center     Atomic      Atomic             Coordinates (Angstroms)
 Number     Number       Type             X           Y           Z
 ---------------------------------------------------------------------
      1          8           0        0.735881    0.119538    0.000020
      2          6           0       -0.655197   -0.019628    0.000011
      3          1           0       -1.076965    0.974969   -0.000595
      4          1           0       -1.011452   -0.543251    0.883832
      5          1           0       -1.011221   -0.544100   -0.883398
      6          1           0        1.143772   -0.726153   -0.000066
 ---------------------------------------------------------------------
 Rotational constants (GHZ):    131.6851782     25.4581031     24.6026588
 Leave Link  202 at Sun Dec 29 12:25:09 2019, MaxMem=   91750400 cpu:       0.0
 (Enter /opt/g09gh/gaussian/g09/l601.exe)
 Copying SCF densities to generalized density rwf, IOpCl= 0 IROHF=0.

 **********************************************************************

            Population analysis using the SCF density.

 **********************************************************************

 Orbital symmetries:
       Occupied  (A) (A) (A) (A) (A) (A) (A) (A) (A)
       Virtual   (A) (A) (A) (A) (A) (A) (A) (A) (A) (A) (A) (A)
                 (A) (A) (A) (A) (A) (A) (A) (A) (A) (A) (A) (A)
                 (A) (A) (A) (A) (A) (A) (A) (A) (A) (A) (A) (A)
                 (A) (A) (A)
 The electronic state is 1-A.
 Alpha  occ. eigenvalues --  -20.54165 -11.26482  -1.36442  -0.92835  -0.69698
 Alpha  occ. eigenvalues --   -0.62227  -0.59736  -0.49807  -0.44491
 Alpha virt. eigenvalues --    0.15461   0.18910   0.22732   0.23400   0.34623
 Alpha virt. eigenvalues --    0.46139   0.48398   0.59618   0.70030   0.73724
 Alpha virt. eigenvalues --    0.79099   0.80579   0.94602   1.06466   1.07993
 Alpha virt. eigenvalues --    1.17527   1.54684   1.60215   1.69560   1.76420
 Alpha virt. eigenvalues --    1.77082   2.00239   2.36809   2.61904   2.70597
 Alpha virt. eigenvalues --    2.72480   3.16487   3.25768   3.37861   3.42104
 Alpha virt. eigenvalues --    3.51602   3.57723   3.82996   4.27329   5.38590
 Alpha virt. eigenvalues --    5.54223   5.93234  24.56792  51.52760
          Condensed to atoms (all electrons):
              1          2          3          4          5          6
     1  O    8.263083   0.217572  -0.028326  -0.034344  -0.034344   0.269343
     2  C    0.217572   4.979076   0.391856   0.394320   0.394334  -0.049573
     3  H   -0.028326   0.391856   0.485589  -0.032937  -0.032933   0.007283
     4  H   -0.034344   0.394320  -0.032937   0.538261  -0.040949  -0.004260
     5  H   -0.034344   0.394334  -0.032933  -0.040949   0.538273  -0.004273
     6  H    0.269343  -0.049573   0.007283  -0.004260  -0.004273   0.370179
 Mulliken atomic charges:
              1
     1  O   -0.652985
     2  C   -0.327586
     3  H    0.209468
     4  H    0.179909
     5  H    0.179892
     6  H    0.411302
 Sum of Mulliken atomic charges =   0.00000
 Mulliken charges with hydrogens summed into heavy atoms:
              1
     1  O   -0.241683
     2  C    0.241683
 Sum of Mulliken charges with hydrogens summed into heavy atoms =   0.00000
 Electronic spatial extent (au):  <R**2>=             82.6836
 Charge=              0.0000 electrons
 Dipole moment (field-independent basis, Debye):
    X=             -0.8849    Y=             -1.7070    Z=             -0.0003  Tot=              1.9227
 Quadrupole moment (field-independent basis, Debye-Ang):
   XX=            -12.6375   YY=            -12.0951   ZZ=            -13.6212
   XY=             -2.4360   XZ=             -0.0002   YZ=             -0.0001
 Traceless Quadrupole moment (field-independent basis, Debye-Ang):
   XX=              0.1471   YY=              0.6895   ZZ=             -0.8366
   XY=             -2.4360   XZ=             -0.0002   YZ=             -0.0001
 Octapole moment (field-independent basis, Debye-Ang**2):
  XXX=              4.4514  YYY=             -0.6271  ZZZ=              0.0005  XYY=              1.7659
  XXY=             -2.5056  XXZ=             -0.0003  XZZ=              0.5127  YZZ=             -0.6733
  YYZ=             -0.0009  XYZ=              0.0004
 Hexadecapole moment (field-independent basis, Debye-Ang**3):
 XXXX=            -58.4032 YYYY=            -19.0680 ZZZZ=            -18.9907 XXXY=             -4.1012
 XXXZ=             -0.0004 YYYX=             -2.9852 YYYZ=             -0.0002 ZZZX=             -0.0009
 ZZZY=             -0.0001 XXYY=            -11.8871 XXZZ=            -13.5223 YYZZ=             -6.4466
 XXYZ=             -0.0004 YYXZ=              0.0009 ZZXY=              0.0522
 N-N= 4.085093326873D+01 E-N=-3.530731780525D+02  KE= 1.151615280001D+02
 No NMR shielding tensors so no spin-rotation constants.
 Leave Link  601 at Sun Dec 29 12:25:09 2019, MaxMem=   91750400 cpu:       0.1
 (Enter /opt/g09gh/gaussian/g09/l9999.exe)
 1\1\GINC-NODE36\FOpt\RHF\6-311G(d)\C1H4O1\BDW2292\29-Dec-2019\0\\#P op
 t=(,maxcycle=400) HF/6-311G* MaxDisk=100GB\\methanol Rotatable Bond Op
 timization on node36.bme.utexas.edu\\0,1\O,0.7210909079,0.0426319838,0
 .1982160158\C,-0.66393435,-0.0365541835,0.0253063842\H,-1.0991166994,0
 .814496184,0.528735443\H,-1.0771247058,-0.9423771553,0.4623400993\H,-0
 .94554708,0.0043436587,-1.0241017446\H,1.1402909272,-0.6820344877,-0.2
 268691978\\Version=EM64L-G09RevA.02\State=1-A\HF=-115.0637284\RMSD=1.8
 78e-09\RMSF=3.464e-05\Dipole=-0.3372435,-0.5569838,-0.3850533\Quadrupo
 le=0.1587088,0.2702045,-0.4289133,-1.5584245,-0.9248011,0.4310548\PG=C
 01 [X(C1H4O1)]\\@


 TO DETECT ERRORS, THE PROGRAMMER MUST HAVE A CONNIVING MIND,
 ONE THAT DELIGHTS IN UNCOVERING FLAWS WHERE BEAUTY AND
 PERFECTION WERE ONCE THOUGHT TO LIE.

             -- THE PSYCHOLOGY OF COMPUTER PROGRAMMING
                GERALD M. WEINBERG
 Job cpu time:  0 days  0 hours  0 minutes 10.3 seconds.
 File lengths (MBytes):  RWF=      5 Int=      0 D2E=      0 Chk=      1 Scr=      1
 Normal termination of Gaussian 09 at Sun Dec 29 12:25:09 2019.
