 Entering Gaussian System, Link 0=g09
 Input=methanol-opt-6-1-2-3-173.com
 Output=methanol-opt-6-1-2-3-173.log
 Initial command:
 /opt/g09gh/gaussian/g09/l1.exe /scratch/bdw2292/Gau-methanol/Gau-40284.inp -scrdir=/scratch/bdw2292/Gau-methanol/
 Entering Link 1 = /opt/g09gh/gaussian/g09/l1.exe PID=     40285.
  
 Copyright (c) 1988,1990,1992,1993,1995,1998,2003,2009, Gaussian, Inc.
                  All Rights Reserved.
  
 This is part of the Gaussian(R) 09 program.  It is based on
 the Gaussian(R) 03 system (copyright 2003, Gaussian, Inc.),
 the Gaussian(R) 98 system (copyright 1998, Gaussian, Inc.),
 the Gaussian(R) 94 system (copyright 1995, Gaussian, Inc.),
 the Gaussian 92(TM) system (copyright 1992, Gaussian, Inc.),
 the Gaussian 90(TM) system (copyright 1990, Gaussian, Inc.),
 the Gaussian 88(TM) system (copyright 1988, Gaussian, Inc.),
 the Gaussian 86(TM) system (copyright 1986, Carnegie Mellon
 University), and the Gaussian 82(TM) system (copyright 1983,
 Carnegie Mellon University). Gaussian is a federally registered
 trademark of Gaussian, Inc.
  
 This software contains proprietary and confidential information,
 including trade secrets, belonging to Gaussian, Inc.
  
 This software is provided under written license and may be
 used, copied, transmitted, or stored only in accord with that
 written license.
  
 The following legend is applicable only to US Government
 contracts under FAR:
  
                    RESTRICTED RIGHTS LEGEND
  
 Use, reproduction and disclosure by the US Government is
 subject to restrictions as set forth in subparagraphs (a)
 and (c) of the Commercial Computer Software - Restricted
 Rights clause in FAR 52.227-19.
  
 Gaussian, Inc.
 340 Quinnipiac St., Bldg. 40, Wallingford CT 06492
  
  
 ---------------------------------------------------------------
 Warning -- This program may not be used in any manner that
 competes with the business of Gaussian, Inc. or will provide
 assistance to any competitor of Gaussian, Inc.  The licensee
 of this program is prohibited from giving any competitor of
 Gaussian, Inc. access to this program.  By using this program,
 the user acknowledges that Gaussian, Inc. is engaged in the
 business of creating and licensing software in the field of
 computational chemistry and represents and warrants to the
 licensee that it is not a competitor of Gaussian, Inc. and that
 it will not use this program in any manner prohibited above.
 ---------------------------------------------------------------
  

 Cite this work as:
 Gaussian 09, Revision A.02,
 M. J. Frisch, G. W. Trucks, H. B. Schlegel, G. E. Scuseria, 
 M. A. Robb, J. R. Cheeseman, G. Scalmani, V. Barone, B. Mennucci, 
 G. A. Petersson, H. Nakatsuji, M. Caricato, X. Li, H. P. Hratchian, 
 A. F. Izmaylov, J. Bloino, G. Zheng, J. L. Sonnenberg, M. Hada, 
 M. Ehara, K. Toyota, R. Fukuda, J. Hasegawa, M. Ishida, T. Nakajima, 
 Y. Honda, O. Kitao, H. Nakai, T. Vreven, J. A. Montgomery, Jr., 
 J. E. Peralta, F. Ogliaro, M. Bearpark, J. J. Heyd, E. Brothers, 
 K. N. Kudin, V. N. Staroverov, R. Kobayashi, J. Normand, 
 K. Raghavachari, A. Rendell, J. C. Burant, S. S. Iyengar, J. Tomasi, 
 M. Cossi, N. Rega, J. M. Millam, M. Klene, J. E. Knox, J. B. Cross, 
 V. Bakken, C. Adamo, J. Jaramillo, R. Gomperts, R. E. Stratmann, 
 O. Yazyev, A. J. Austin, R. Cammi, C. Pomelli, J. W. Ochterski, 
 R. L. Martin, K. Morokuma, V. G. Zakrzewski, G. A. Voth, 
 P. Salvador, J. J. Dannenberg, S. Dapprich, A. D. Daniels, 
 O. Farkas, J. B. Foresman, J. V. Ortiz, J. Cioslowski, 
 and D. J. Fox, Gaussian, Inc., Wallingford CT, 2009.
 
 ******************************************
 Gaussian 09:  EM64L-G09RevA.02 11-Jun-2009
                29-Dec-2019 
 ******************************************
 %RWF=/scratch/bdw2292/Gau-methanol/,100GB
 %Nosave
 %Chk=methanol-opt-6-1-2-3-173.chk
 %Mem=700MB
 %Nproc=1
 Will use up to    1 processors via shared memory.
 -----------------------------------------------
 #P opt=(,maxcycle=400) HF/6-311G* MaxDisk=100GB
 -----------------------------------------------
 1/6=400,18=20,19=15,38=1/1,3;
 2/9=110,12=2,17=6,18=5,40=1/2;
 3/5=4,6=6,7=1,11=9,16=1,25=1,30=1,71=1/1,2,3;
 4//1;
 5/5=2,38=5/2;
 6/7=2,8=2,9=2,10=2,28=1/1;
 7//1,2,3,16;
 1/6=400,18=20,19=15/3(2);
 2/9=110/2;
 99//99;
 2/9=110/2;
 3/5=4,6=6,7=1,11=9,16=1,25=1,30=1,71=1/1,2,3;
 4/5=5,16=3/1;
 5/5=2,38=5/2;
 7//1,2,3,16;
 1/6=400,18=20,19=15/3(-5);
 2/9=110/2;
 6/7=2,8=2,9=2,10=2,19=2,28=1/1;
 99/9=1/99;
 Leave Link    1 at Sun Dec 29 12:25:09 2019, MaxMem=   91750400 cpu:       0.0
 (Enter /opt/g09gh/gaussian/g09/l101.exe)
 -------------------------------------------------------------
 methanol Rotatable Bond Optimization on node36.bme.utexas.edu
 -------------------------------------------------------------
 Symbolic Z-matrix:
 Charge =  0 Multiplicity = 1
 O                     0.74404   0.11671   0.00189 
 C                    -0.68493  -0.00991  -0.00163 
 H                    -1.1203    0.98556   0.12537 
 H                    -0.97738  -0.68947   0.80454 
 H                    -0.98228  -0.42827  -0.9685 
 H                     1.09805  -0.7908    0.00275 
 
 NAtoms=      6 NQM=      6 NQMF=      0 NMic=      0 NMicF=      0 NTot=      6.
                    Isotopes and Nuclear Properties:
 (Nuclear quadrupole moments (NQMom) in fm**2, nuclear magnetic moments (NMagM)
  in nuclear magnetons)

  Atom         1           2           3           4           5           6
 IAtWgt=          16          12           1           1           1           1
 AtmWgt=  15.9949146  12.0000000   1.0078250   1.0078250   1.0078250   1.0078250
 NucSpn=           0           0           1           1           1           1
 AtZEff=   0.0000000   0.0000000   0.0000000   0.0000000   0.0000000   0.0000000
 NQMom=    0.0000000   0.0000000   0.0000000   0.0000000   0.0000000   0.0000000
 NMagM=    0.0000000   0.0000000   2.7928460   2.7928460   2.7928460   2.7928460
 Leave Link  101 at Sun Dec 29 12:25:10 2019, MaxMem=   91750400 cpu:       0.1
 (Enter /opt/g09gh/gaussian/g09/l103.exe)

 GradGradGradGradGradGradGradGradGradGradGradGradGradGradGradGradGradGrad
 Berny optimization.
 Initialization pass.
                           ----------------------------
                           !    Initial Parameters    !
                           ! (Angstroms and Degrees)  !
 --------------------------                            --------------------------
 ! Name  Definition              Value          Derivative Info.                !
 --------------------------------------------------------------------------------
 ! R1    R(1,2)                  1.4346         estimate D2E/DX2                !
 ! R2    R(1,6)                  0.9741         estimate D2E/DX2                !
 ! R3    R(2,3)                  1.0939         estimate D2E/DX2                !
 ! R4    R(2,4)                  1.0942         estimate D2E/DX2                !
 ! R5    R(2,5)                  1.0947         estimate D2E/DX2                !
 ! A1    A(2,1,6)              106.2463         estimate D2E/DX2                !
 ! A2    A(1,2,3)              108.4109         estimate D2E/DX2                !
 ! A3    A(1,2,4)              108.617          estimate D2E/DX2                !
 ! A4    A(1,2,5)              107.8469         estimate D2E/DX2                !
 ! A5    A(3,2,4)              111.9175         estimate D2E/DX2                !
 ! A6    A(3,2,5)              110.0119         estimate D2E/DX2                !
 ! A7    A(4,2,5)              109.9265         estimate D2E/DX2                !
 ! D1    D(6,1,2,3)            172.9136         estimate D2E/DX2                !
 ! D2    D(6,1,2,4)             51.0929         estimate D2E/DX2                !
 ! D3    D(6,1,2,5)            -68.003          estimate D2E/DX2                !
 --------------------------------------------------------------------------------
 Trust Radius=3.00D-01 FncErr=1.00D-07 GrdErr=1.00D-07
 Number of steps in this run= 100 maximum allowed number of steps= 100.
 GradGradGradGradGradGradGradGradGradGradGradGradGradGradGradGradGradGrad

 Leave Link  103 at Sun Dec 29 12:25:10 2019, MaxMem=   91750400 cpu:       0.0
 (Enter /opt/g09gh/gaussian/g09/l202.exe)
                          Input orientation:                          
 ---------------------------------------------------------------------
 Center     Atomic      Atomic             Coordinates (Angstroms)
 Number     Number       Type             X           Y           Z
 ---------------------------------------------------------------------
      1          8           0        0.744042    0.116712    0.001894
      2          6           0       -0.684931   -0.009914   -0.001626
      3          1           0       -1.120300    0.985559    0.125366
      4          1           0       -0.977375   -0.689469    0.804541
      5          1           0       -0.982279   -0.428269   -0.968503
      6          1           0        1.098052   -0.790799    0.002748
 ---------------------------------------------------------------------
                    Distance matrix (angstroms):
                    1          2          3          4          5
     1  O    0.000000
     2  C    1.434577   0.000000
     3  H    2.060561   1.093910   0.000000
     4  H    2.063358   1.094177   1.813126   0.000000
     5  H    2.053986   1.094663   1.792905   1.792187   0.000000
     6  H    0.974115   1.946491   2.844568   2.227226   2.324335
                    6
     6  H    0.000000
 Stoichiometry    CH4O
 Framework group  C1[X(CH4O)]
 Deg. of freedom    12
 Full point group                 C1      NOp   1
 Largest Abelian subgroup         C1      NOp   1
 Largest concise Abelian subgroup C1      NOp   1
                         Standard orientation:                         
 ---------------------------------------------------------------------
 Center     Atomic      Atomic             Coordinates (Angstroms)
 Number     Number       Type             X           Y           Z
 ---------------------------------------------------------------------
      1          8           0       -0.749849    0.130974   -0.002939
      2          6           0        0.677001   -0.017715   -0.002769
      3          1           0        1.127097    0.967984   -0.152605
      4          1           0        0.955259   -0.718559   -0.795621
      5          1           0        0.972248   -0.420175    0.971471
      6          1           0       -1.117820   -0.770749    0.016879
 ---------------------------------------------------------------------
 Rotational constants (GHZ):    124.2736239     24.7222930     23.7458674
 Leave Link  202 at Sun Dec 29 12:25:10 2019, MaxMem=   91750400 cpu:       0.0
 (Enter /opt/g09gh/gaussian/g09/l301.exe)
 Standard basis: 6-311G(d) (5D, 7F)
 Ernie: Thresh=  0.10000D-02 Tol=  0.10000D-05 Strict=F.
 There are    48 symmetry adapted basis functions of A   symmetry.
 Integral buffers will be    131072 words long.
 Raffenetti 1 integral format.
 Two-electron integral symmetry is turned on.
    48 basis functions,    84 primitive gaussians,    50 cartesian basis functions
     9 alpha electrons        9 beta electrons
       nuclear repulsion energy        40.0886288240 Hartrees.
 IExCor=    0 DFT=F Ex=HF Corr=None ExCW=0 ScaHFX=  1.000000
 ScaDFX=  1.000000  1.000000  1.000000  1.000000 ScalE2=  1.000000  1.000000
 IRadAn=      0 IRanWt=     -1 IRanGd=            0 ICorTp=0
 NAtoms=    6 NActive=    6 NUniq=    6 SFac= 7.50D-01 NAtFMM=   80 NAOKFM=F Big=F
 Leave Link  301 at Sun Dec 29 12:25:10 2019, MaxMem=   91750400 cpu:       0.1
 (Enter /opt/g09gh/gaussian/g09/l302.exe)
 NPDir=0 NMtPBC=     1 NCelOv=     1 NCel=       1 NClECP=     1 NCelD=      1
         NCelK=      1 NCelE2=     1 NClLst=     1 CellRange=     0.0.
 One-electron integrals computed using PRISM.
 NBasis=    48 RedAO= T  NBF=    48
 NBsUse=    48 1.00D-06 NBFU=    48
 Leave Link  302 at Sun Dec 29 12:25:10 2019, MaxMem=   91750400 cpu:       0.2
 (Enter /opt/g09gh/gaussian/g09/l303.exe)
 DipDrv:  MaxL=1.
 Leave Link  303 at Sun Dec 29 12:25:10 2019, MaxMem=   91750400 cpu:       0.0
 (Enter /opt/g09gh/gaussian/g09/l401.exe)
 Harris functional with IExCor=  205 diagonalized for initial guess.
 ExpMin= 1.03D-01 ExpMax= 8.59D+03 ExpMxC= 1.30D+03 IAcc=1 IRadAn=         1 AccDes= 0.00D+00
 HarFok:  IExCor=  205 AccDes= 0.00D+00 IRadAn=         1 IDoV= 1
 ScaDFX=  1.000000  1.000000  1.000000  1.000000
 FoFCou: FMM=F IPFlag=           0 FMFlag=      100000 FMFlg1=           0
         NFxFlg=           0 DoJE=T BraDBF=F KetDBF=T FulRan=T
         Omega=  0.000000  0.000000  1.000000  0.000000  0.000000 ICntrl=     500 IOpCl=  0
         NMat0=    1 NMatS0=    1 NMatT0=    0 NMatD0=    1 NMtDS0=    0 NMtDT0=    0
         I1Cent=           4 NGrid=           0.
 Petite list used in FoFCou.
 Harris En= -115.243043676623    
 Initial guess orbital symmetries:
       Occupied  (A) (A) (A) (A) (A) (A) (A) (A) (A)
       Virtual   (A) (A) (A) (A) (A) (A) (A) (A) (A) (A) (A) (A)
                 (A) (A) (A) (A) (A) (A) (A) (A) (A) (A) (A) (A)
                 (A) (A) (A) (A) (A) (A) (A) (A) (A) (A) (A) (A)
                 (A) (A) (A)
 The electronic state of the initial guess is 1-A.
 Leave Link  401 at Sun Dec 29 12:25:10 2019, MaxMem=   91750400 cpu:       0.3
 (Enter /opt/g09gh/gaussian/g09/l502.exe)
 Closed shell SCF:
 Requested convergence on RMS density matrix=1.00D-08 within 128 cycles.
 Requested convergence on MAX density matrix=1.00D-06.
 Requested convergence on             energy=1.00D-06.
 No special actions if energy rises.
 Using DIIS extrapolation, IDIIS=  1040.
 Integral symmetry usage will be decided dynamically.
 Keep R1 ints in memory in canonical form, NReq=1659792.
 IEnd=       26328 IEndB=       26328 NGot=    91750400 MDV=    90929785
 LenX=    90929785 LenY=    90926844
 Symmetry not used in FoFDir.
 MinBra= 0 MaxBra= 2 Meth= 1.
 IRaf=       0 NMat=   1 IRICut=       1 DoRegI=T DoRafI=F ISym2E= 0 JSym2E=0.

 Cycle   1  Pass 1  IDiag  1:
 E= -114.939022448528    
 DIIS: error= 5.86D-02 at cycle   1 NSaved=   1.
 NSaved= 1 IEnMin= 1 EnMin= -114.939022448528     IErMin= 1 ErrMin= 5.86D-02
 ErrMax= 5.86D-02 EMaxC= 1.00D-01 BMatC= 2.52D-01 BMatP= 2.52D-01
 IDIUse=3 WtCom= 4.14D-01 WtEn= 5.86D-01
 Coeff-Com:  0.100D+01
 Coeff-En:   0.100D+01
 Coeff:      0.100D+01
 Gap=     0.573 Goal=   None    Shift=    0.000
 GapD=    0.573 DampG=2.000 DampE=0.500 DampFc=1.0000 IDamp=-1.
 RMSDP=5.98D-03 MaxDP=8.21D-02              OVMax= 1.03D-01

 Cycle   2  Pass 1  IDiag  1:
 E= -115.035777080237     Delta-E=       -0.096754631709 Rises=F Damp=F
 DIIS: error= 2.69D-02 at cycle   2 NSaved=   2.
 NSaved= 2 IEnMin= 2 EnMin= -115.035777080237     IErMin= 2 ErrMin= 2.69D-02
 ErrMax= 2.69D-02 EMaxC= 1.00D-01 BMatC= 3.50D-02 BMatP= 2.52D-01
 IDIUse=3 WtCom= 7.31D-01 WtEn= 2.69D-01
 Coeff-Com:  0.218D+00 0.782D+00
 Coeff-En:   0.000D+00 0.100D+01
 Coeff:      0.159D+00 0.841D+00
 Gap=     0.630 Goal=   None    Shift=    0.000
 RMSDP=2.89D-03 MaxDP=4.57D-02 DE=-9.68D-02 OVMax= 4.10D-02

 Cycle   3  Pass 1  IDiag  1:
 E= -115.057509334193     Delta-E=       -0.021732253957 Rises=F Damp=F
 DIIS: error= 8.32D-03 at cycle   3 NSaved=   3.
 NSaved= 3 IEnMin= 3 EnMin= -115.057509334193     IErMin= 3 ErrMin= 8.32D-03
 ErrMax= 8.32D-03 EMaxC= 1.00D-01 BMatC= 3.78D-03 BMatP= 3.50D-02
 IDIUse=3 WtCom= 9.17D-01 WtEn= 8.32D-02
 Coeff-Com: -0.140D-01 0.223D+00 0.791D+00
 Coeff-En:   0.000D+00 0.000D+00 0.100D+01
 Coeff:     -0.129D-01 0.205D+00 0.808D+00
 Gap=     0.594 Goal=   None    Shift=    0.000
 RMSDP=6.60D-04 MaxDP=1.05D-02 DE=-2.17D-02 OVMax= 1.27D-02

 Cycle   4  Pass 1  IDiag  1:
 E= -115.059913872873     Delta-E=       -0.002404538680 Rises=F Damp=F
 DIIS: error= 1.43D-03 at cycle   4 NSaved=   4.
 NSaved= 4 IEnMin= 4 EnMin= -115.059913872873     IErMin= 4 ErrMin= 1.43D-03
 ErrMax= 1.43D-03 EMaxC= 1.00D-01 BMatC= 9.80D-05 BMatP= 3.78D-03
 IDIUse=3 WtCom= 9.86D-01 WtEn= 1.43D-02
 Coeff-Com: -0.676D-02 0.290D-01 0.200D+00 0.778D+00
 Coeff-En:   0.000D+00 0.000D+00 0.000D+00 0.100D+01
 Coeff:     -0.666D-02 0.286D-01 0.197D+00 0.781D+00
 Gap=     0.595 Goal=   None    Shift=    0.000
 RMSDP=1.33D-04 MaxDP=2.06D-03 DE=-2.40D-03 OVMax= 2.58D-03

 Cycle   5  Pass 1  IDiag  1:
 E= -115.059993374531     Delta-E=       -0.000079501658 Rises=F Damp=F
 DIIS: error= 3.43D-04 at cycle   5 NSaved=   5.
 NSaved= 5 IEnMin= 5 EnMin= -115.059993374531     IErMin= 5 ErrMin= 3.43D-04
 ErrMax= 3.43D-04 EMaxC= 1.00D-01 BMatC= 4.35D-06 BMatP= 9.80D-05
 IDIUse=3 WtCom= 9.97D-01 WtEn= 3.43D-03
 Coeff-Com:  0.124D-02-0.207D-01-0.736D-01-0.154D-01 0.111D+01
 Coeff-En:   0.000D+00 0.000D+00 0.000D+00 0.000D+00 0.100D+01
 Coeff:      0.123D-02-0.206D-01-0.734D-01-0.154D-01 0.111D+01
 Gap=     0.595 Goal=   None    Shift=    0.000
 RMSDP=5.68D-05 MaxDP=7.79D-04 DE=-7.95D-05 OVMax= 8.74D-04

 Cycle   6  Pass 1  IDiag  1:
 E= -115.060000253494     Delta-E=       -0.000006878963 Rises=F Damp=F
 DIIS: error= 5.12D-05 at cycle   6 NSaved=   6.
 NSaved= 6 IEnMin= 6 EnMin= -115.060000253494     IErMin= 6 ErrMin= 5.12D-05
 ErrMax= 5.12D-05 EMaxC= 1.00D-01 BMatC= 1.35D-07 BMatP= 4.35D-06
 IDIUse=1 WtCom= 1.00D+00 WtEn= 0.00D+00
 Coeff-Com:  0.241D-03-0.625D-03-0.382D-02-0.332D-01-0.946D-01 0.113D+01
 Coeff:      0.241D-03-0.625D-03-0.382D-02-0.332D-01-0.946D-01 0.113D+01
 Gap=     0.595 Goal=   None    Shift=    0.000
 RMSDP=1.31D-05 MaxDP=1.20D-04 DE=-6.88D-06 OVMax= 2.46D-04

 Cycle   7  Pass 1  IDiag  1:
 E= -115.060000562074     Delta-E=       -0.000000308580 Rises=F Damp=F
 DIIS: error= 1.10D-05 at cycle   7 NSaved=   7.
 NSaved= 7 IEnMin= 7 EnMin= -115.060000562074     IErMin= 7 ErrMin= 1.10D-05
 ErrMax= 1.10D-05 EMaxC= 1.00D-01 BMatC= 5.92D-09 BMatP= 1.35D-07
 IDIUse=1 WtCom= 1.00D+00 WtEn= 0.00D+00
 Coeff-Com: -0.108D-03 0.953D-03 0.408D-02 0.808D-02-0.165D-01-0.301D+00
 Coeff-Com:  0.131D+01
 Coeff:     -0.108D-03 0.953D-03 0.408D-02 0.808D-02-0.165D-01-0.301D+00
 Coeff:      0.131D+01
 Gap=     0.595 Goal=   None    Shift=    0.000
 RMSDP=3.03D-06 MaxDP=3.74D-05 DE=-3.09D-07 OVMax= 7.79D-05

 Cycle   8  Pass 1  IDiag  1:
 E= -115.060000577942     Delta-E=       -0.000000015868 Rises=F Damp=F
 DIIS: error= 1.86D-06 at cycle   8 NSaved=   8.
 NSaved= 8 IEnMin= 8 EnMin= -115.060000577942     IErMin= 8 ErrMin= 1.86D-06
 ErrMax= 1.86D-06 EMaxC= 1.00D-01 BMatC= 2.19D-10 BMatP= 5.92D-09
 IDIUse=1 WtCom= 1.00D+00 WtEn= 0.00D+00
 Coeff-Com:  0.175D-04-0.209D-03-0.937D-03-0.129D-02 0.635D-02 0.586D-01
 Coeff-Com: -0.410D+00 0.135D+01
 Coeff:      0.175D-04-0.209D-03-0.937D-03-0.129D-02 0.635D-02 0.586D-01
 Coeff:     -0.410D+00 0.135D+01
 Gap=     0.595 Goal=   None    Shift=    0.000
 RMSDP=6.99D-07 MaxDP=6.21D-06 DE=-1.59D-08 OVMax= 1.73D-05

 Cycle   9  Pass 1  IDiag  1:
 E= -115.060000578584     Delta-E=       -0.000000000642 Rises=F Damp=F
 DIIS: error= 5.72D-07 at cycle   9 NSaved=   9.
 NSaved= 9 IEnMin= 9 EnMin= -115.060000578584     IErMin= 9 ErrMin= 5.72D-07
 ErrMax= 5.72D-07 EMaxC= 1.00D-01 BMatC= 6.95D-12 BMatP= 2.19D-10
 IDIUse=1 WtCom= 1.00D+00 WtEn= 0.00D+00
 Coeff-Com: -0.204D-05 0.362D-04 0.178D-03 0.782D-04-0.194D-02-0.502D-02
 Coeff-Com:  0.756D-01-0.392D+00 0.132D+01
 Coeff:     -0.204D-05 0.362D-04 0.178D-03 0.782D-04-0.194D-02-0.502D-02
 Coeff:      0.756D-01-0.392D+00 0.132D+01
 Gap=     0.595 Goal=   None    Shift=    0.000
 RMSDP=1.03D-07 MaxDP=6.51D-07 DE=-6.42D-10 OVMax= 2.39D-06

 Cycle  10  Pass 1  IDiag  1:
 E= -115.060000578602     Delta-E=       -0.000000000018 Rises=F Damp=F
 DIIS: error= 1.03D-07 at cycle  10 NSaved=  10.
 NSaved=10 IEnMin=10 EnMin= -115.060000578602     IErMin=10 ErrMin= 1.03D-07
 ErrMax= 1.03D-07 EMaxC= 1.00D-01 BMatC= 2.57D-13 BMatP= 6.95D-12
 IDIUse=1 WtCom= 1.00D+00 WtEn= 0.00D+00
 Coeff-Com:  0.172D-07-0.340D-05-0.217D-04 0.247D-04 0.316D-03-0.199D-03
 Coeff-Com: -0.882D-02 0.657D-01-0.366D+00 0.131D+01
 Coeff:      0.172D-07-0.340D-05-0.217D-04 0.247D-04 0.316D-03-0.199D-03
 Coeff:     -0.882D-02 0.657D-01-0.366D+00 0.131D+01
 Gap=     0.595 Goal=   None    Shift=    0.000
 RMSDP=1.83D-08 MaxDP=1.78D-07 DE=-1.82D-11 OVMax= 4.04D-07

 Cycle  11  Pass 1  IDiag  1:
 E= -115.060000578603     Delta-E=       -0.000000000001 Rises=F Damp=F
 DIIS: error= 1.81D-08 at cycle  11 NSaved=  11.
 NSaved=11 IEnMin=11 EnMin= -115.060000578603     IErMin=11 ErrMin= 1.81D-08
 ErrMax= 1.81D-08 EMaxC= 1.00D-01 BMatC= 9.68D-15 BMatP= 2.57D-13
 IDIUse=1 WtCom= 1.00D+00 WtEn= 0.00D+00
 Coeff-Com:  0.881D-07-0.148D-05-0.637D-05-0.615D-05 0.608D-04 0.262D-03
 Coeff-Com: -0.287D-02 0.140D-01-0.302D-01-0.151D+00 0.117D+01
 Coeff:      0.881D-07-0.148D-05-0.637D-05-0.615D-05 0.608D-04 0.262D-03
 Coeff:     -0.287D-02 0.140D-01-0.302D-01-0.151D+00 0.117D+01
 Gap=     0.595 Goal=   None    Shift=    0.000
 RMSDP=4.32D-09 MaxDP=2.95D-08 DE=-7.39D-13 OVMax= 6.63D-08

 SCF Done:  E(RHF) =  -115.060000579     A.U. after   11 cycles
             Convg  =    0.4324D-08             -V/T =  2.0005
 KE= 1.149981581422D+02 PE=-3.514720160702D+02 EE= 8.132522852531D+01
 Leave Link  502 at Sun Dec 29 12:25:10 2019, MaxMem=   91750400 cpu:       0.2
 (Enter /opt/g09gh/gaussian/g09/l601.exe)
 Copying SCF densities to generalized density rwf, IOpCl= 0 IROHF=0.

 **********************************************************************

            Population analysis using the SCF density.

 **********************************************************************

 Orbital symmetries:
       Occupied  (A) (A) (A) (A) (A) (A) (A) (A) (A)
       Virtual   (A) (A) (A) (A) (A) (A) (A) (A) (A) (A) (A) (A)
                 (A) (A) (A) (A) (A) (A) (A) (A) (A) (A) (A) (A)
                 (A) (A) (A) (A) (A) (A) (A) (A) (A) (A) (A) (A)
                 (A) (A) (A)
 The electronic state is 1-A.
 Alpha  occ. eigenvalues --  -20.54344 -11.27194  -1.34480  -0.92010  -0.67967
 Alpha  occ. eigenvalues --   -0.61858  -0.58769  -0.50083  -0.44465
 Alpha virt. eigenvalues --    0.15056   0.18732   0.22411   0.23193   0.33343
 Alpha virt. eigenvalues --    0.46322   0.47363   0.57609   0.67645   0.72577
 Alpha virt. eigenvalues --    0.78781   0.79763   0.94732   1.07112   1.07522
 Alpha virt. eigenvalues --    1.17995   1.55069   1.58740   1.69579   1.76892
 Alpha virt. eigenvalues --    1.77177   1.96650   2.37902   2.63276   2.69518
 Alpha virt. eigenvalues --    2.70778   3.16874   3.18644   3.35535   3.35870
 Alpha virt. eigenvalues --    3.52702   3.58191   3.73638   4.25571   5.37710
 Alpha virt. eigenvalues --    5.52038   5.86429  24.53531  51.52002
          Condensed to atoms (all electrons):
              1          2          3          4          5          6
     1  O    8.281331   0.203849  -0.024438  -0.033582  -0.036753   0.266625
     2  C    0.203849   5.002854   0.387187   0.391926   0.392134  -0.050206
     3  H   -0.024438   0.387187   0.476524  -0.027393  -0.031308   0.006851
     4  H   -0.033582   0.391926  -0.027393   0.527559  -0.036665  -0.005898
     5  H   -0.036753   0.392134  -0.031308  -0.036665   0.528708  -0.002992
     6  H    0.266625  -0.050206   0.006851  -0.005898  -0.002992   0.384351
 Mulliken atomic charges:
              1
     1  O   -0.657032
     2  C   -0.327743
     3  H    0.212577
     4  H    0.184053
     5  H    0.186876
     6  H    0.401269
 Sum of Mulliken atomic charges =   0.00000
 Mulliken charges with hydrogens summed into heavy atoms:
              1
     1  O   -0.255763
     2  C    0.255763
 Sum of Mulliken charges with hydrogens summed into heavy atoms =   0.00000
 Electronic spatial extent (au):  <R**2>=             84.3431
 Charge=              0.0000 electrons
 Dipole moment (field-independent basis, Debye):
    X=              1.0932    Y=             -1.7600    Z=              0.0240  Tot=              2.0720
 Quadrupole moment (field-independent basis, Debye-Ang):
   XX=            -12.9897   YY=            -11.9326   ZZ=            -13.6434
   XY=              2.5057   XZ=             -0.0818   YZ=             -0.0256
 Traceless Quadrupole moment (field-independent basis, Debye-Ang):
   XX=             -0.1345   YY=              0.9226   ZZ=             -0.7882
   XY=              2.5057   XZ=             -0.0818   YZ=             -0.0256
 Octapole moment (field-independent basis, Debye-Ang**2):
  XXX=             -4.0109  YYY=             -0.7735  ZZZ=              0.2624  XYY=             -1.6802
  XXY=             -2.3260  XXZ=              0.0189  XZZ=             -0.4406  YZZ=             -0.7066
  YYZ=             -0.2598  XYZ=              0.0110
 Hexadecapole moment (field-independent basis, Debye-Ang**3):
 XXXX=            -60.8237 YYYY=            -19.4778 ZZZZ=            -19.0548 XXXY=              4.1801
 XXXZ=             -0.1654 YYYX=              3.0353 YYYZ=              0.0171 ZZZX=              0.2369
 ZZZY=             -0.0450 XXYY=            -12.0660 XXZZ=            -13.9425 YYZZ=             -6.5146
 XXYZ=             -0.1007 YYXZ=             -0.3473 ZZXY=             -0.0563
 N-N= 4.008862882405D+01 E-N=-3.514720161299D+02  KE= 1.149981581422D+02
 No NMR shielding tensors so no spin-rotation constants.
 Leave Link  601 at Sun Dec 29 12:25:11 2019, MaxMem=   91750400 cpu:       0.1
 (Enter /opt/g09gh/gaussian/g09/l701.exe)
 Compute integral first derivatives.
 ... and contract with generalized density number  0.
 Leave Link  701 at Sun Dec 29 12:25:11 2019, MaxMem=   91750400 cpu:       0.1
 (Enter /opt/g09gh/gaussian/g09/l702.exe)
 L702 exits ... SP integral derivatives will be done elsewhere.
 Leave Link  702 at Sun Dec 29 12:25:11 2019, MaxMem=   91750400 cpu:       0.0
 (Enter /opt/g09gh/gaussian/g09/l703.exe)
 Compute integral first derivatives, UseDBF=F ICtDFT=           0.
 Integral derivatives from FoFDir, PRISM(SPDF).
 Calling FoFJK, ICntrl=      2127 FMM=F ISym2X=0 I1Cent= 0 IOpClX= 0 NMat=1 NMatS=1 NMatT=0.
 FoFCou: FMM=F IPFlag=           0 FMFlag=      100000 FMFlg1=         800
         NFxFlg=           0 DoJE=F BraDBF=F KetDBF=F FulRan=T
         Omega=  0.000000  0.000000  1.000000  0.000000  0.000000 ICntrl=    2127 IOpCl=  0
         NMat0=    1 NMatS0=    1 NMatT0=    0 NMatD0=    1 NMtDS0=    0 NMtDT0=    0
         I1Cent=           0 NGrid=           0.
 Symmetry not used in FoFCou.
 Leave Link  703 at Sun Dec 29 12:25:11 2019, MaxMem=   91750400 cpu:       0.3
 (Enter /opt/g09gh/gaussian/g09/l716.exe)
 Dipole        = 4.30086666D-01-6.92450111D-01 9.42921133D-03
 ***** Axes restored to original set *****
 -------------------------------------------------------------------
 Center     Atomic                   Forces (Hartrees/Bohr)
 Number     Number              X              Y              Z
 -------------------------------------------------------------------
      1        8          -0.008396688   -0.033317379    0.002787010
      2        6           0.024270761   -0.003180735   -0.005560338
      3        1           0.004687153   -0.010492963    0.000734581
      4        1          -0.005819631    0.007940840   -0.004624077
      5        1          -0.005749450    0.003498356    0.007451204
      6        1          -0.008992146    0.035551881   -0.000788380
 -------------------------------------------------------------------
 Cartesian Forces:  Max     0.035551881 RMS     0.013975323
 Leave Link  716 at Sun Dec 29 12:25:11 2019, MaxMem=   91750400 cpu:       0.0
 (Enter /opt/g09gh/gaussian/g09/l103.exe)

 GradGradGradGradGradGradGradGradGradGradGradGradGradGradGradGradGradGrad
 Berny optimization.
 Internal  Forces:  Max     0.036389652 RMS     0.012390320
 Search for a local minimum.
 Step number   1 out of a maximum of  100
 All quantities printed in internal units (Hartrees-Bohrs-Radians)
 RMS Force = .12390D-01 SwitMx=.10000D-02 MixMth= 1
 Mixed Optimization -- RFO/linear search
 Second derivative matrix not updated -- first step.
 The second derivative matrix:
                          R1        R2        R3        R4        R5
           R1           0.40339
           R2           0.00000   0.52545
           R3           0.00000   0.00000   0.34365
           R4           0.00000   0.00000   0.00000   0.34334
           R5           0.00000   0.00000   0.00000   0.00000   0.34279
           A1           0.00000   0.00000   0.00000   0.00000   0.00000
           A2           0.00000   0.00000   0.00000   0.00000   0.00000
           A3           0.00000   0.00000   0.00000   0.00000   0.00000
           A4           0.00000   0.00000   0.00000   0.00000   0.00000
           A5           0.00000   0.00000   0.00000   0.00000   0.00000
           A6           0.00000   0.00000   0.00000   0.00000   0.00000
           A7           0.00000   0.00000   0.00000   0.00000   0.00000
           D1           0.00000   0.00000   0.00000   0.00000   0.00000
           D2           0.00000   0.00000   0.00000   0.00000   0.00000
           D3           0.00000   0.00000   0.00000   0.00000   0.00000
                          A1        A2        A3        A4        A5
           A1           0.16000
           A2           0.00000   0.16000
           A3           0.00000   0.00000   0.16000
           A4           0.00000   0.00000   0.00000   0.16000
           A5           0.00000   0.00000   0.00000   0.00000   0.16000
           A6           0.00000   0.00000   0.00000   0.00000   0.00000
           A7           0.00000   0.00000   0.00000   0.00000   0.00000
           D1           0.00000   0.00000   0.00000   0.00000   0.00000
           D2           0.00000   0.00000   0.00000   0.00000   0.00000
           D3           0.00000   0.00000   0.00000   0.00000   0.00000
                          A6        A7        D1        D2        D3
           A6           0.16000
           A7           0.00000   0.16000
           D1           0.00000   0.00000   0.01234
           D2           0.00000   0.00000   0.00000   0.01234
           D3           0.00000   0.00000   0.00000   0.00000   0.01234
     Eigenvalues ---    0.01234   0.10453   0.10605   0.16000   0.16000
     Eigenvalues ---    0.16000   0.16000   0.34279   0.34334   0.34365
     Eigenvalues ---    0.40339   0.525451000.000001000.000001000.00000
 RFO step:  Lambda=-6.90278990D-03 EMin= 1.23439657D-02
 Linear search not attempted -- first point.
 Iteration  1 RMS(Cart)=  0.05670004 RMS(Int)=  0.00305291
 Iteration  2 RMS(Cart)=  0.00263429 RMS(Int)=  0.00147180
 Iteration  3 RMS(Cart)=  0.00000512 RMS(Int)=  0.00147180
 Iteration  4 RMS(Cart)=  0.00000001 RMS(Int)=  0.00147180
 Variable       Old X    -DE/DX   Delta X   Delta X   Delta X     New X
                                 (Linear)    (Quad)   (Total)
    R1        2.71096  -0.01712   0.00000  -0.04172  -0.04172   2.66923
    R2        1.84081  -0.03639   0.00000  -0.06836  -0.06836   1.77245
    R3        2.06719  -0.01133   0.00000  -0.03232  -0.03232   2.03487
    R4        2.06770  -0.00678   0.00000  -0.01937  -0.01937   2.04833
    R5        2.06861  -0.00636   0.00000  -0.01818  -0.01818   2.05044
    A1        1.85435   0.00836   0.00000   0.05008   0.05008   1.90443
    A2        1.89213  -0.00576   0.00000  -0.04136  -0.04121   1.85092
    A3        1.89572   0.01020   0.00000   0.06182   0.05996   1.95568
    A4        1.88228   0.01206   0.00000   0.07826   0.07643   1.95871
    A5        1.95333  -0.00727   0.00000  -0.05573  -0.05561   1.89772
    A6        1.92007  -0.00384   0.00000  -0.02476  -0.02458   1.89549
    A7        1.91858  -0.00444   0.00000  -0.01219  -0.01554   1.90303
    D1        3.01791  -0.00127   0.00000   0.00784   0.00789   3.02581
    D2        0.89174   0.00491   0.00000   0.06330   0.06595   0.95769
    D3       -1.18688  -0.00228   0.00000  -0.00072  -0.00342  -1.19030
         Item               Value     Threshold  Converged?
 Maximum Force            0.036390     0.000450     NO 
 RMS     Force            0.012390     0.000300     NO 
 Maximum Displacement     0.095343     0.001800     NO 
 RMS     Displacement     0.055842     0.001200     NO 
 Predicted change in Energy=-3.580272D-03
 GradGradGradGradGradGradGradGradGradGradGradGradGradGradGradGradGradGrad

 Leave Link  103 at Sun Dec 29 12:25:11 2019, MaxMem=   91750400 cpu:       0.0
 (Enter /opt/g09gh/gaussian/g09/l202.exe)
                          Input orientation:                          
 ---------------------------------------------------------------------
 Center     Atomic      Atomic             Coordinates (Angstroms)
 Number     Number       Type             X           Y           Z
 ---------------------------------------------------------------------
      1          8           0        0.736709    0.106223    0.013185
      2          6           0       -0.668464   -0.035556   -0.009951
      3          1           0       -1.069847    0.954228    0.126934
      4          1           0       -1.026697   -0.670454    0.792217
      5          1           0       -1.026026   -0.426168   -0.956995
      6          1           0        1.131534   -0.744453   -0.000969
 ---------------------------------------------------------------------
                    Distance matrix (angstroms):
                    1          2          3          4          5
     1  O    0.000000
     2  C    1.412498   0.000000
     3  H    1.998923   1.076808   0.000000
     4  H    2.078394   1.083929   1.756148   0.000000
     5  H    2.081328   1.085044   1.755652   1.766188   0.000000
     6  H    0.937942   1.934582   2.783514   2.300561   2.381251
                    6
     6  H    0.000000
 Stoichiometry    CH4O
 Framework group  C1[X(CH4O)]
 Deg. of freedom    12
 Full point group                 C1      NOp   1
 Largest Abelian subgroup         C1      NOp   1
 Largest concise Abelian subgroup C1      NOp   1
                         Standard orientation:                         
 ---------------------------------------------------------------------
 Center     Atomic      Atomic             Coordinates (Angstroms)
 Number     Number       Type             X           Y           Z
 ---------------------------------------------------------------------
      1          8           0       -0.743203    0.117791    0.000450
      2          6           0        0.662602   -0.019550    0.000083
      3          1           0        1.058755    0.973937   -0.124667
      4          1           0        1.010821   -0.638501   -0.818784
      5          1           0        1.035509   -0.426107    0.934413
      6          1           0       -1.135073   -0.734356    0.004945
 ---------------------------------------------------------------------
 Rotational constants (GHZ):    131.6702229     25.1102059     24.2713385
 Leave Link  202 at Sun Dec 29 12:25:11 2019, MaxMem=   91750400 cpu:       0.0
 (Enter /opt/g09gh/gaussian/g09/l301.exe)
 Standard basis: 6-311G(d) (5D, 7F)
 Ernie: Thresh=  0.10000D-02 Tol=  0.10000D-05 Strict=F.
 There are    48 symmetry adapted basis functions of A   symmetry.
 Integral buffers will be    131072 words long.
 Raffenetti 1 integral format.
 Two-electron integral symmetry is turned on.
    48 basis functions,    84 primitive gaussians,    50 cartesian basis functions
     9 alpha electrons        9 beta electrons
       nuclear repulsion energy        40.6748646557 Hartrees.
 IExCor=    0 DFT=F Ex=HF Corr=None ExCW=0 ScaHFX=  1.000000
 ScaDFX=  1.000000  1.000000  1.000000  1.000000 ScalE2=  1.000000  1.000000
 IRadAn=      0 IRanWt=     -1 IRanGd=            0 ICorTp=0
 NAtoms=    6 NActive=    6 NUniq=    6 SFac= 7.50D-01 NAtFMM=   80 NAOKFM=F Big=F
 Leave Link  301 at Sun Dec 29 12:25:11 2019, MaxMem=   91750400 cpu:       0.1
 (Enter /opt/g09gh/gaussian/g09/l302.exe)
 NPDir=0 NMtPBC=     1 NCelOv=     1 NCel=       1 NClECP=     1 NCelD=      1
         NCelK=      1 NCelE2=     1 NClLst=     1 CellRange=     0.0.
 One-electron integrals computed using PRISM.
 NBasis=    48 RedAO= T  NBF=    48
 NBsUse=    48 1.00D-06 NBFU=    48
 Leave Link  302 at Sun Dec 29 12:25:12 2019, MaxMem=   91750400 cpu:       0.2
 (Enter /opt/g09gh/gaussian/g09/l303.exe)
 DipDrv:  MaxL=1.
 Leave Link  303 at Sun Dec 29 12:25:12 2019, MaxMem=   91750400 cpu:       0.0
 (Enter /opt/g09gh/gaussian/g09/l401.exe)
 Initial guess read from the read-write file.
 B after Tr=     0.000000    0.000000    0.000000
         Rot=    1.000000    0.000000    0.000000    0.000000 Ang=   0.00 deg.
 Guess basis will be translated and rotated to current coordinates.
 Initial guess orbital symmetries:
       Occupied  (A) (A) (A) (A) (A) (A) (A) (A) (A)
       Virtual   (A) (A) (A) (A) (A) (A) (A) (A) (A) (A) (A) (A)
                 (A) (A) (A) (A) (A) (A) (A) (A) (A) (A) (A) (A)
                 (A) (A) (A) (A) (A) (A) (A) (A) (A) (A) (A) (A)
                 (A) (A) (A)
 The electronic state of the initial guess is 1-A.
 Generating alternative initial guess.
 Harris functional with IExCor=  205 diagonalized for initial guess.
 ExpMin= 1.03D-01 ExpMax= 8.59D+03 ExpMxC= 1.30D+03 IAcc=1 IRadAn=         1 AccDes= 0.00D+00
 HarFok:  IExCor=  205 AccDes= 0.00D+00 IRadAn=         1 IDoV= 1
 ScaDFX=  1.000000  1.000000  1.000000  1.000000
 FoFCou: FMM=F IPFlag=           0 FMFlag=      100000 FMFlg1=           0
         NFxFlg=           0 DoJE=T BraDBF=F KetDBF=T FulRan=T
         Omega=  0.000000  0.000000  1.000000  0.000000  0.000000 ICntrl=     500 IOpCl=  0
         NMat0=    1 NMatS0=    1 NMatT0=    0 NMatD0=    1 NMtDS0=    0 NMtDT0=    0
         I1Cent=           4 NGrid=           0.
 Petite list used in FoFCou.
 Harris En= -115.248164960210    
 Leave Link  401 at Sun Dec 29 12:25:12 2019, MaxMem=   91750400 cpu:       0.3
 (Enter /opt/g09gh/gaussian/g09/l502.exe)
 Closed shell SCF:
 Requested convergence on RMS density matrix=1.00D-08 within 128 cycles.
 Requested convergence on MAX density matrix=1.00D-06.
 Requested convergence on             energy=1.00D-06.
 No special actions if energy rises.
 Using DIIS extrapolation, IDIIS=  1040.
 Integral symmetry usage will be decided dynamically.
 Keep R1 ints in memory in canonical form, NReq=1659792.
 IEnd=       26328 IEndB=       26328 NGot=    91750400 MDV=    90929785
 LenX=    90929785 LenY=    90926844
 Symmetry not used in FoFDir.
 MinBra= 0 MaxBra= 2 Meth= 1.
 IRaf=       0 NMat=   1 IRICut=       1 DoRegI=T DoRafI=F ISym2E= 0 JSym2E=0.

 Cycle   1  Pass 1  IDiag  1:
 E= -115.060844027465    
 DIIS: error= 5.98D-03 at cycle   1 NSaved=   1.
 NSaved= 1 IEnMin= 1 EnMin= -115.060844027465     IErMin= 1 ErrMin= 5.98D-03
 ErrMax= 5.98D-03 EMaxC= 1.00D-01 BMatC= 1.96D-03 BMatP= 1.96D-03
 IDIUse=3 WtCom= 9.40D-01 WtEn= 5.98D-02
 Coeff-Com:  0.100D+01
 Coeff-En:   0.100D+01
 Coeff:      0.100D+01
 Gap=     0.609 Goal=   None    Shift=    0.000
 GapD=    0.609 DampG=2.000 DampE=1.000 DampFc=2.0000 IDamp=-1.
 RMSDP=6.36D-04 MaxDP=6.92D-03              OVMax= 1.26D-02

 Cycle   2  Pass 1  IDiag  1:
 E= -115.063156572826     Delta-E=       -0.002312545361 Rises=F Damp=F
 DIIS: error= 1.99D-03 at cycle   2 NSaved=   2.
 NSaved= 2 IEnMin= 2 EnMin= -115.063156572826     IErMin= 2 ErrMin= 1.99D-03
 ErrMax= 1.99D-03 EMaxC= 1.00D-01 BMatC= 1.77D-04 BMatP= 1.96D-03
 IDIUse=3 WtCom= 9.80D-01 WtEn= 1.99D-02
 Coeff-Com: -0.480D-01 0.105D+01
 Coeff-En:   0.000D+00 0.100D+01
 Coeff:     -0.470D-01 0.105D+01
 Gap=     0.600 Goal=   None    Shift=    0.000
 RMSDP=2.51D-04 MaxDP=3.50D-03 DE=-2.31D-03 OVMax= 4.90D-03

 Cycle   3  Pass 1  IDiag  1:
 E= -115.063391354231     Delta-E=       -0.000234781405 Rises=F Damp=F
 DIIS: error= 1.12D-03 at cycle   3 NSaved=   3.
 NSaved= 3 IEnMin= 3 EnMin= -115.063391354231     IErMin= 3 ErrMin= 1.12D-03
 ErrMax= 1.12D-03 EMaxC= 1.00D-01 BMatC= 3.73D-05 BMatP= 1.77D-04
 IDIUse=3 WtCom= 9.89D-01 WtEn= 1.12D-02
 Coeff-Com: -0.935D-01 0.253D+00 0.841D+00
 Coeff-En:   0.000D+00 0.000D+00 0.100D+01
 Coeff:     -0.925D-01 0.250D+00 0.843D+00
 Gap=     0.602 Goal=   None    Shift=    0.000
 RMSDP=1.02D-04 MaxDP=1.26D-03 DE=-2.35D-04 OVMax= 2.03D-03

 Cycle   4  Pass 1  IDiag  1:
 E= -115.063432917070     Delta-E=       -0.000041562840 Rises=F Damp=F
 DIIS: error= 2.48D-04 at cycle   4 NSaved=   4.
 NSaved= 4 IEnMin= 4 EnMin= -115.063432917070     IErMin= 4 ErrMin= 2.48D-04
 ErrMax= 2.48D-04 EMaxC= 1.00D-01 BMatC= 2.15D-06 BMatP= 3.73D-05
 IDIUse=3 WtCom= 9.98D-01 WtEn= 2.48D-03
 Coeff-Com:  0.112D-02-0.902D-01 0.213D-01 0.107D+01
 Coeff-En:   0.000D+00 0.000D+00 0.000D+00 0.100D+01
 Coeff:      0.112D-02-0.900D-01 0.212D-01 0.107D+01
 Gap=     0.602 Goal=   None    Shift=    0.000
 RMSDP=4.35D-05 MaxDP=3.30D-04 DE=-4.16D-05 OVMax= 8.77D-04

 Cycle   5  Pass 1  IDiag  1:
 E= -115.063436864686     Delta-E=       -0.000003947615 Rises=F Damp=F
 DIIS: error= 4.72D-05 at cycle   5 NSaved=   5.
 NSaved= 5 IEnMin= 5 EnMin= -115.063436864686     IErMin= 5 ErrMin= 4.72D-05
 ErrMax= 4.72D-05 EMaxC= 1.00D-01 BMatC= 1.18D-07 BMatP= 2.15D-06
 IDIUse=1 WtCom= 1.00D+00 WtEn= 0.00D+00
 Coeff-Com:  0.427D-02-0.177D-01-0.431D-01 0.591D-01 0.997D+00
 Coeff:      0.427D-02-0.177D-01-0.431D-01 0.591D-01 0.997D+00
 Gap=     0.602 Goal=   None    Shift=    0.000
 RMSDP=1.12D-05 MaxDP=6.92D-05 DE=-3.95D-06 OVMax= 2.05D-04

 Cycle   6  Pass 1  IDiag  1:
 E= -115.063437084970     Delta-E=       -0.000000220284 Rises=F Damp=F
 DIIS: error= 1.61D-05 at cycle   6 NSaved=   6.
 NSaved= 6 IEnMin= 6 EnMin= -115.063437084970     IErMin= 6 ErrMin= 1.61D-05
 ErrMax= 1.61D-05 EMaxC= 1.00D-01 BMatC= 1.02D-08 BMatP= 1.18D-07
 IDIUse=1 WtCom= 1.00D+00 WtEn= 0.00D+00
 Coeff-Com:  0.137D-03 0.576D-02-0.387D-02-0.832D-01 0.695D-01 0.101D+01
 Coeff:      0.137D-03 0.576D-02-0.387D-02-0.832D-01 0.695D-01 0.101D+01
 Gap=     0.602 Goal=   None    Shift=    0.000
 RMSDP=3.55D-06 MaxDP=2.25D-05 DE=-2.20D-07 OVMax= 7.05D-05

 Cycle   7  Pass 1  IDiag  1:
 E= -115.063437105409     Delta-E=       -0.000000020439 Rises=F Damp=F
 DIIS: error= 3.69D-06 at cycle   7 NSaved=   7.
 NSaved= 7 IEnMin= 7 EnMin= -115.063437105409     IErMin= 7 ErrMin= 3.69D-06
 ErrMax= 3.69D-06 EMaxC= 1.00D-01 BMatC= 6.93D-10 BMatP= 1.02D-08
 IDIUse=1 WtCom= 1.00D+00 WtEn= 0.00D+00
 Coeff-Com: -0.370D-03 0.677D-03 0.410D-02 0.525D-02-0.855D-01-0.145D+00
 Coeff-Com:  0.122D+01
 Coeff:     -0.370D-03 0.677D-03 0.410D-02 0.525D-02-0.855D-01-0.145D+00
 Coeff:      0.122D+01
 Gap=     0.602 Goal=   None    Shift=    0.000
 RMSDP=1.10D-06 MaxDP=8.97D-06 DE=-2.04D-08 OVMax= 2.01D-05

 Cycle   8  Pass 1  IDiag  1:
 E= -115.063437107094     Delta-E=       -0.000000001685 Rises=F Damp=F
 DIIS: error= 1.11D-06 at cycle   8 NSaved=   8.
 NSaved= 8 IEnMin= 8 EnMin= -115.063437107094     IErMin= 8 ErrMin= 1.11D-06
 ErrMax= 1.11D-06 EMaxC= 1.00D-01 BMatC= 3.01D-11 BMatP= 6.93D-10
 IDIUse=1 WtCom= 1.00D+00 WtEn= 0.00D+00
 Coeff-Com:  0.697D-04-0.292D-03-0.807D-03 0.185D-02 0.176D-01 0.361D-02
 Coeff-Com: -0.326D+00 0.130D+01
 Coeff:      0.697D-04-0.292D-03-0.807D-03 0.185D-02 0.176D-01 0.361D-02
 Coeff:     -0.326D+00 0.130D+01
 Gap=     0.602 Goal=   None    Shift=    0.000
 RMSDP=2.70D-07 MaxDP=2.46D-06 DE=-1.69D-09 OVMax= 6.06D-06

 Cycle   9  Pass 1  IDiag  1:
 E= -115.063437107187     Delta-E=       -0.000000000094 Rises=F Damp=F
 DIIS: error= 2.84D-07 at cycle   9 NSaved=   9.
 NSaved= 9 IEnMin= 9 EnMin= -115.063437107187     IErMin= 9 ErrMin= 2.84D-07
 ErrMax= 2.84D-07 EMaxC= 1.00D-01 BMatC= 1.80D-12 BMatP= 3.01D-11
 IDIUse=1 WtCom= 1.00D+00 WtEn= 0.00D+00
 Coeff-Com:  0.825D-06 0.361D-04 0.195D-05-0.779D-03-0.455D-03 0.591D-02
 Coeff-Com:  0.320D-01-0.397D+00 0.136D+01
 Coeff:      0.825D-06 0.361D-04 0.195D-05-0.779D-03-0.455D-03 0.591D-02
 Coeff:      0.320D-01-0.397D+00 0.136D+01
 Gap=     0.602 Goal=   None    Shift=    0.000
 RMSDP=7.08D-08 MaxDP=7.29D-07 DE=-9.38D-11 OVMax= 1.82D-06

 Cycle  10  Pass 1  IDiag  1:
 E= -115.063437107193     Delta-E=       -0.000000000006 Rises=F Damp=F
 DIIS: error= 4.13D-08 at cycle  10 NSaved=  10.
 NSaved=10 IEnMin=10 EnMin= -115.063437107193     IErMin=10 ErrMin= 4.13D-08
 ErrMax= 4.13D-08 EMaxC= 1.00D-01 BMatC= 7.02D-14 BMatP= 1.80D-12
 IDIUse=1 WtCom= 1.00D+00 WtEn= 0.00D+00
 Coeff-Com: -0.199D-05-0.878D-05 0.311D-04 0.263D-03-0.574D-03-0.317D-02
 Coeff-Com:  0.456D-02 0.807D-01-0.459D+00 0.138D+01
 Coeff:     -0.199D-05-0.878D-05 0.311D-04 0.263D-03-0.574D-03-0.317D-02
 Coeff:      0.456D-02 0.807D-01-0.459D+00 0.138D+01
 Gap=     0.602 Goal=   None    Shift=    0.000
 RMSDP=1.36D-08 MaxDP=1.48D-07 DE=-5.88D-12 OVMax= 3.39D-07

 Cycle  11  Pass 1  IDiag  1:
 E= -115.063437107194     Delta-E=       -0.000000000001 Rises=F Damp=F
 DIIS: error= 6.58D-09 at cycle  11 NSaved=  11.
 NSaved=11 IEnMin=11 EnMin= -115.063437107194     IErMin=11 ErrMin= 6.58D-09
 ErrMax= 6.58D-09 EMaxC= 1.00D-01 BMatC= 2.45D-15 BMatP= 7.02D-14
 IDIUse=1 WtCom= 1.00D+00 WtEn= 0.00D+00
 Coeff-Com:  0.439D-06 0.527D-06-0.790D-05-0.284D-04 0.151D-03 0.431D-03
 Coeff-Com: -0.208D-02-0.361D-02 0.537D-01-0.319D+00 0.127D+01
 Coeff:      0.439D-06 0.527D-06-0.790D-05-0.284D-04 0.151D-03 0.431D-03
 Coeff:     -0.208D-02-0.361D-02 0.537D-01-0.319D+00 0.127D+01
 Gap=     0.602 Goal=   None    Shift=    0.000
 RMSDP=2.40D-09 MaxDP=2.48D-08 DE=-6.82D-13 OVMax= 5.52D-08

 SCF Done:  E(RHF) =  -115.063437107     A.U. after   11 cycles
             Convg  =    0.2396D-08             -V/T =  1.9992
 KE= 1.151505088470D+02 PE=-3.527222272354D+02 EE= 8.183341662559D+01
 Leave Link  502 at Sun Dec 29 12:25:12 2019, MaxMem=   91750400 cpu:       0.2
 (Enter /opt/g09gh/gaussian/g09/l701.exe)
 Compute integral first derivatives.
 ... and contract with generalized density number  0.
 Leave Link  701 at Sun Dec 29 12:25:12 2019, MaxMem=   91750400 cpu:       0.1
 (Enter /opt/g09gh/gaussian/g09/l702.exe)
 L702 exits ... SP integral derivatives will be done elsewhere.
 Leave Link  702 at Sun Dec 29 12:25:12 2019, MaxMem=   91750400 cpu:       0.0
 (Enter /opt/g09gh/gaussian/g09/l703.exe)
 Compute integral first derivatives, UseDBF=F ICtDFT=           0.
 Integral derivatives from FoFDir, PRISM(SPDF).
 Calling FoFJK, ICntrl=      2127 FMM=F ISym2X=0 I1Cent= 0 IOpClX= 0 NMat=1 NMatS=1 NMatT=0.
 FoFCou: FMM=F IPFlag=           0 FMFlag=      100000 FMFlg1=         800
         NFxFlg=           0 DoJE=F BraDBF=F KetDBF=F FulRan=T
         Omega=  0.000000  0.000000  1.000000  0.000000  0.000000 ICntrl=    2127 IOpCl=  0
         NMat0=    1 NMatS0=    1 NMatT0=    0 NMatD0=    1 NMtDS0=    0 NMtDT0=    0
         I1Cent=           0 NGrid=           0.
 Symmetry not used in FoFCou.
 Leave Link  703 at Sun Dec 29 12:25:13 2019, MaxMem=   91750400 cpu:       0.3
 (Enter /opt/g09gh/gaussian/g09/l716.exe)
 Dipole        = 3.79687354D-01-6.75988368D-01-3.07440916D-03
 ***** Axes restored to original set *****
 -------------------------------------------------------------------
 Center     Atomic                   Forces (Hartrees/Bohr)
 Number     Number              X              Y              Z
 -------------------------------------------------------------------
      1        8          -0.010872954   -0.003642275    0.000030759
      2        6           0.010640637    0.004751659    0.000038417
      3        1          -0.002839350    0.001500346    0.000221940
      4        1           0.000027227   -0.000994277    0.001438349
      5        1           0.000935932   -0.000946619   -0.001014266
      6        1           0.002108508   -0.000668835   -0.000715198
 -------------------------------------------------------------------
 Cartesian Forces:  Max     0.010872954 RMS     0.004006363
 Leave Link  716 at Sun Dec 29 12:25:13 2019, MaxMem=   91750400 cpu:       0.0
 (Enter /opt/g09gh/gaussian/g09/l103.exe)

 GradGradGradGradGradGradGradGradGradGradGradGradGradGradGradGradGradGrad
 Berny optimization.
 Using GEDIIS/GDIIS optimizer.
 Internal  Forces:  Max     0.009162939 RMS     0.002941955
 Search for a local minimum.
 Step number   2 out of a maximum of  100
 All quantities printed in internal units (Hartrees-Bohrs-Radians)
 RMS Force = .29420D-02 SwitMx=.10000D-02 MixMth= 1
 Mixed Optimization -- RFO/linear search
 Update second derivatives using D2CorX and points    1    2
 DE= -3.44D-03 DEPred=-3.58D-03 R= 9.60D-01
 SS=  1.41D+00  RLast= 1.74D-01 DXNew= 5.0454D-01 5.2107D-01
 Trust test= 9.60D-01 RLast= 1.74D-01 DXMaxT set to 5.05D-01
 The second derivative matrix:
                          R1        R2        R3        R4        R5
           R1           0.36963
           R2          -0.04839   0.53481
           R3          -0.01261   0.01408   0.35207
           R4          -0.00737   0.00930   0.00536   0.34675
           R5          -0.00760   0.00539   0.00382   0.00245   0.34445
           A1           0.01414   0.01384   0.00266   0.00146   0.00185
           A2          -0.00581   0.01637   0.00792   0.00496   0.00380
           A3           0.01141  -0.00971  -0.00639  -0.00409  -0.00282
           A4           0.01476  -0.01135  -0.00777  -0.00498  -0.00340
           A5          -0.01500  -0.01202  -0.00173  -0.00088  -0.00142
           A6          -0.00568  -0.00079   0.00088   0.00062   0.00024
           A7          -0.00082   0.01268   0.00536   0.00332   0.00268
           D1           0.00213   0.00950   0.00343   0.00209   0.00181
           D2          -0.00423  -0.02560  -0.00956  -0.00585  -0.00500
           D3           0.00416   0.02010   0.00733   0.00447   0.00386
                          A1        A2        A3        A4        A5
           A1           0.15460
           A2           0.00042   0.16675
           A3          -0.00265  -0.00621   0.16477
           A4          -0.00353  -0.00766   0.00578   0.16697
           A5           0.00551   0.00039   0.00193   0.00264   0.15448
           A6           0.00178   0.00133  -0.00051  -0.00055  -0.00164
           A7          -0.00079   0.00421  -0.00431  -0.00537   0.00130
           D1          -0.00142   0.00239  -0.00285  -0.00359   0.00172
           D2           0.00337  -0.00685   0.00790   0.00992  -0.00423
           D3          -0.00290   0.00515  -0.00609  -0.00766   0.00355
                          A6        A7        D1        D2        D3
           A6           0.15973
           A7           0.00116   0.16242
           D1           0.00096   0.00119   0.01274
           D2          -0.00254  -0.00354  -0.00133   0.01666
           D3           0.00202   0.00259   0.00089  -0.00298   0.01437
 Use linear search instead of GDIIS.
     Eigenvalues ---    0.01228   0.10343   0.10601   0.14865   0.16000
     Eigenvalues ---    0.16000   0.17998   0.34220   0.34343   0.34674
     Eigenvalues ---    0.36932   0.554341000.000001000.000001000.00000
 RFO step:  Lambda=-4.84926091D-04 EMin= 1.22775882D-02
 Quartic linear search produced a step of -0.01942.
 Iteration  1 RMS(Cart)=  0.01497664 RMS(Int)=  0.00022438
 Iteration  2 RMS(Cart)=  0.00019368 RMS(Int)=  0.00000872
 Iteration  3 RMS(Cart)=  0.00000003 RMS(Int)=  0.00000872
 Variable       Old X    -DE/DX   Delta X   Delta X   Delta X     New X
                                 (Linear)    (Quad)   (Total)
    R1        2.66923  -0.00916   0.00081  -0.02607  -0.02526   2.64398
    R2        1.77245   0.00150   0.00133  -0.00349  -0.00217   1.77029
    R3        2.03487   0.00247   0.00063   0.00403   0.00466   2.03953
    R4        2.04833   0.00164   0.00038   0.00287   0.00325   2.05158
    R5        2.05044   0.00092   0.00035   0.00094   0.00129   2.05173
    A1        1.90443   0.00286  -0.00097   0.02215   0.02118   1.92561
    A2        1.85092   0.00392   0.00080   0.02261   0.02340   1.87432
    A3        1.95568  -0.00126  -0.00116  -0.00361  -0.00478   1.95090
    A4        1.95871  -0.00236  -0.00148  -0.00872  -0.01020   1.94851
    A5        1.89772  -0.00055   0.00108  -0.00611  -0.00504   1.89268
    A6        1.89549  -0.00003   0.00048   0.00011   0.00059   1.89608
    A7        1.90303   0.00042   0.00030  -0.00359  -0.00330   1.89974
    D1        3.02581   0.00039  -0.00015   0.03224   0.03210   3.05791
    D2        0.95769  -0.00067  -0.00128   0.02765   0.02635   0.98404
    D3       -1.19030   0.00150   0.00007   0.04161   0.04167  -1.14863
         Item               Value     Threshold  Converged?
 Maximum Force            0.009163     0.000450     NO 
 RMS     Force            0.002942     0.000300     NO 
 Maximum Displacement     0.028778     0.001800     NO 
 RMS     Displacement     0.014935     0.001200     NO 
 Predicted change in Energy=-2.445935D-04
 GradGradGradGradGradGradGradGradGradGradGradGradGradGradGradGradGradGrad

 Leave Link  103 at Sun Dec 29 12:25:13 2019, MaxMem=   91750400 cpu:       0.0
 (Enter /opt/g09gh/gaussian/g09/l202.exe)
                          Input orientation:                          
 ---------------------------------------------------------------------
 Center     Atomic      Atomic             Coordinates (Angstroms)
 Number     Number       Type             X           Y           Z
 ---------------------------------------------------------------------
      1          8           0        0.728489    0.097298    0.021727
      2          6           0       -0.664585   -0.029656   -0.006541
      3          1           0       -1.081173    0.957262    0.124894
      4          1           0       -1.027480   -0.665215    0.795335
      5          1           0       -1.011098   -0.429085   -0.954797
      6          1           0        1.133056   -0.746784   -0.016198
 ---------------------------------------------------------------------
                    Distance matrix (angstroms):
                    1          2          3          4          5
     1  O    0.000000
     2  C    1.399132   0.000000
     3  H    2.006255   1.079273   0.000000
     4  H    2.064781   1.085649   1.756361   0.000000
     5  H    2.063211   1.085727   1.758579   1.766065   0.000000
     6  H    0.936796   1.935427   2.797587   2.309363   2.362054
                    6
     6  H    0.000000
 Stoichiometry    CH4O
 Framework group  C1[X(CH4O)]
 Deg. of freedom    12
 Full point group                 C1      NOp   1
 Largest Abelian subgroup         C1      NOp   1
 Largest concise Abelian subgroup C1      NOp   1
                         Standard orientation:                         
 ---------------------------------------------------------------------
 Center     Atomic      Atomic             Coordinates (Angstroms)
 Number     Number       Type             X           Y           Z
 ---------------------------------------------------------------------
      1          8           0       -0.735781    0.119583    0.000341
      2          6           0        0.656406   -0.019655    0.000307
      3          1           0        1.079527    0.969562   -0.084828
      4          1           0        1.001708   -0.614363   -0.839766
      5          1           0        1.013619   -0.471819    0.920497
      6          1           0       -1.147044   -0.722111   -0.000474
 ---------------------------------------------------------------------
 Rotational constants (GHZ):    132.0021614     25.4401048     24.5924586
 Leave Link  202 at Sun Dec 29 12:25:13 2019, MaxMem=   91750400 cpu:       0.0
 (Enter /opt/g09gh/gaussian/g09/l301.exe)
 Standard basis: 6-311G(d) (5D, 7F)
 Ernie: Thresh=  0.10000D-02 Tol=  0.10000D-05 Strict=F.
 There are    48 symmetry adapted basis functions of A   symmetry.
 Integral buffers will be    131072 words long.
 Raffenetti 1 integral format.
 Two-electron integral symmetry is turned on.
    48 basis functions,    84 primitive gaussians,    50 cartesian basis functions
     9 alpha electrons        9 beta electrons
       nuclear repulsion energy        40.8612470603 Hartrees.
 IExCor=    0 DFT=F Ex=HF Corr=None ExCW=0 ScaHFX=  1.000000
 ScaDFX=  1.000000  1.000000  1.000000  1.000000 ScalE2=  1.000000  1.000000
 IRadAn=      0 IRanWt=     -1 IRanGd=            0 ICorTp=0
 NAtoms=    6 NActive=    6 NUniq=    6 SFac= 7.50D-01 NAtFMM=   80 NAOKFM=F Big=F
 Leave Link  301 at Sun Dec 29 12:25:13 2019, MaxMem=   91750400 cpu:       0.1
 (Enter /opt/g09gh/gaussian/g09/l302.exe)
 NPDir=0 NMtPBC=     1 NCelOv=     1 NCel=       1 NClECP=     1 NCelD=      1
         NCelK=      1 NCelE2=     1 NClLst=     1 CellRange=     0.0.
 One-electron integrals computed using PRISM.
 NBasis=    48 RedAO= T  NBF=    48
 NBsUse=    48 1.00D-06 NBFU=    48
 Leave Link  302 at Sun Dec 29 12:25:13 2019, MaxMem=   91750400 cpu:       0.1
 (Enter /opt/g09gh/gaussian/g09/l303.exe)
 DipDrv:  MaxL=1.
 Leave Link  303 at Sun Dec 29 12:25:13 2019, MaxMem=   91750400 cpu:       0.0
 (Enter /opt/g09gh/gaussian/g09/l401.exe)
 Initial guess read from the read-write file.
 B after Tr=     0.000000    0.000000    0.000000
         Rot=    1.000000    0.000000    0.000000    0.000000 Ang=   0.00 deg.
 Guess basis will be translated and rotated to current coordinates.
 Initial guess orbital symmetries:
       Occupied  (A) (A) (A) (A) (A) (A) (A) (A) (A)
       Virtual   (A) (A) (A) (A) (A) (A) (A) (A) (A) (A) (A) (A)
                 (A) (A) (A) (A) (A) (A) (A) (A) (A) (A) (A) (A)
                 (A) (A) (A) (A) (A) (A) (A) (A) (A) (A) (A) (A)
                 (A) (A) (A)
 The electronic state of the initial guess is 1-A.
 Generating alternative initial guess.
 Harris functional with IExCor=  205 diagonalized for initial guess.
 ExpMin= 1.03D-01 ExpMax= 8.59D+03 ExpMxC= 1.30D+03 IAcc=1 IRadAn=         1 AccDes= 0.00D+00
 HarFok:  IExCor=  205 AccDes= 0.00D+00 IRadAn=         1 IDoV= 1
 ScaDFX=  1.000000  1.000000  1.000000  1.000000
 FoFCou: FMM=F IPFlag=           0 FMFlag=      100000 FMFlg1=           0
         NFxFlg=           0 DoJE=T BraDBF=F KetDBF=T FulRan=T
         Omega=  0.000000  0.000000  1.000000  0.000000  0.000000 ICntrl=     500 IOpCl=  0
         NMat0=    1 NMatS0=    1 NMatT0=    0 NMatD0=    1 NMtDS0=    0 NMtDT0=    0
         I1Cent=           4 NGrid=           0.
 Petite list used in FoFCou.
 Harris En= -115.248912925609    
 Leave Link  401 at Sun Dec 29 12:25:13 2019, MaxMem=   91750400 cpu:       0.3
 (Enter /opt/g09gh/gaussian/g09/l502.exe)
 Closed shell SCF:
 Requested convergence on RMS density matrix=1.00D-08 within 128 cycles.
 Requested convergence on MAX density matrix=1.00D-06.
 Requested convergence on             energy=1.00D-06.
 No special actions if energy rises.
 Using DIIS extrapolation, IDIIS=  1040.
 Integral symmetry usage will be decided dynamically.
 Keep R1 ints in memory in canonical form, NReq=1659792.
 IEnd=       26328 IEndB=       26328 NGot=    91750400 MDV=    90929785
 LenX=    90929785 LenY=    90926844
 Symmetry not used in FoFDir.
 MinBra= 0 MaxBra= 2 Meth= 1.
 IRaf=       0 NMat=   1 IRICut=       1 DoRegI=T DoRafI=F ISym2E= 0 JSym2E=0.

 Cycle   1  Pass 1  IDiag  1:
 E= -115.063068263836    
 DIIS: error= 2.88D-03 at cycle   1 NSaved=   1.
 NSaved= 1 IEnMin= 1 EnMin= -115.063068263836     IErMin= 1 ErrMin= 2.88D-03
 ErrMax= 2.88D-03 EMaxC= 1.00D-01 BMatC= 3.84D-04 BMatP= 3.84D-04
 IDIUse=3 WtCom= 9.71D-01 WtEn= 2.88D-02
 Coeff-Com:  0.100D+01
 Coeff-En:   0.100D+01
 Coeff:      0.100D+01
 Gap=     0.600 Goal=   None    Shift=    0.000
 GapD=    0.600 DampG=2.000 DampE=1.000 DampFc=2.0000 IDamp=-1.
 RMSDP=2.66D-04 MaxDP=1.74D-03              OVMax= 6.09D-03

 Cycle   2  Pass 1  IDiag  1:
 E= -115.063608183579     Delta-E=       -0.000539919743 Rises=F Damp=F
 DIIS: error= 9.28D-04 at cycle   2 NSaved=   2.
 NSaved= 2 IEnMin= 2 EnMin= -115.063608183579     IErMin= 2 ErrMin= 9.28D-04
 ErrMax= 9.28D-04 EMaxC= 1.00D-01 BMatC= 3.02D-05 BMatP= 3.84D-04
 IDIUse=3 WtCom= 9.91D-01 WtEn= 9.28D-03
 Coeff-Com: -0.293D+00 0.129D+01
 Coeff-En:   0.000D+00 0.100D+01
 Coeff:     -0.290D+00 0.129D+01
 Gap=     0.599 Goal=   None    Shift=    0.000
 RMSDP=1.40D-04 MaxDP=1.20D-03 DE=-5.40D-04 OVMax= 2.89D-03

 Cycle   3  Pass 1  IDiag  1:
 E= -115.063672632360     Delta-E=       -0.000064448781 Rises=F Damp=F
 DIIS: error= 1.64D-04 at cycle   3 NSaved=   3.
 NSaved= 3 IEnMin= 3 EnMin= -115.063672632360     IErMin= 3 ErrMin= 1.64D-04
 ErrMax= 1.64D-04 EMaxC= 1.00D-01 BMatC= 1.47D-06 BMatP= 3.02D-05
 IDIUse=3 WtCom= 9.98D-01 WtEn= 1.64D-03
 Coeff-Com: -0.352D-01 0.298D-01 0.101D+01
 Coeff-En:   0.000D+00 0.000D+00 0.100D+01
 Coeff:     -0.352D-01 0.298D-01 0.101D+01
 Gap=     0.600 Goal=   None    Shift=    0.000
 RMSDP=4.01D-05 MaxDP=3.29D-04 DE=-6.44D-05 OVMax= 6.97D-04

 Cycle   4  Pass 1  IDiag  1:
 E= -115.063675332320     Delta-E=       -0.000002699960 Rises=F Damp=F
 DIIS: error= 6.50D-05 at cycle   4 NSaved=   4.
 NSaved= 4 IEnMin= 4 EnMin= -115.063675332320     IErMin= 4 ErrMin= 6.50D-05
 ErrMax= 6.50D-05 EMaxC= 1.00D-01 BMatC= 2.97D-07 BMatP= 1.47D-06
 IDIUse=1 WtCom= 1.00D+00 WtEn= 0.00D+00
 Coeff-Com:  0.262D-01-0.152D+00 0.270D+00 0.856D+00
 Coeff:      0.262D-01-0.152D+00 0.270D+00 0.856D+00
 Gap=     0.600 Goal=   None    Shift=    0.000
 RMSDP=1.54D-05 MaxDP=1.29D-04 DE=-2.70D-06 OVMax= 2.28D-04

 Cycle   5  Pass 1  IDiag  1:
 E= -115.063675697738     Delta-E=       -0.000000365418 Rises=F Damp=F
 DIIS: error= 1.03D-05 at cycle   5 NSaved=   5.
 NSaved= 5 IEnMin= 5 EnMin= -115.063675697738     IErMin= 5 ErrMin= 1.03D-05
 ErrMax= 1.03D-05 EMaxC= 1.00D-01 BMatC= 6.16D-09 BMatP= 2.97D-07
 IDIUse=1 WtCom= 1.00D+00 WtEn= 0.00D+00
 Coeff-Com: -0.185D-02 0.178D-01-0.811D-01-0.116D+00 0.118D+01
 Coeff:     -0.185D-02 0.178D-01-0.811D-01-0.116D+00 0.118D+01
 Gap=     0.600 Goal=   None    Shift=    0.000
 RMSDP=4.44D-06 MaxDP=2.86D-05 DE=-3.65D-07 OVMax= 7.23D-05

 Cycle   6  Pass 1  IDiag  1:
 E= -115.063675715239     Delta-E=       -0.000000017501 Rises=F Damp=F
 DIIS: error= 2.55D-06 at cycle   6 NSaved=   6.
 NSaved= 6 IEnMin= 6 EnMin= -115.063675715239     IErMin= 6 ErrMin= 2.55D-06
 ErrMax= 2.55D-06 EMaxC= 1.00D-01 BMatC= 4.34D-10 BMatP= 6.16D-09
 IDIUse=1 WtCom= 1.00D+00 WtEn= 0.00D+00
 Coeff-Com: -0.112D-02 0.604D-02-0.639D-02-0.370D-01-0.908D-01 0.113D+01
 Coeff:     -0.112D-02 0.604D-02-0.639D-02-0.370D-01-0.908D-01 0.113D+01
 Gap=     0.600 Goal=   None    Shift=    0.000
 RMSDP=8.84D-07 MaxDP=7.13D-06 DE=-1.75D-08 OVMax= 1.88D-05

 Cycle   7  Pass 1  IDiag  1:
 E= -115.063675716472     Delta-E=       -0.000000001233 Rises=F Damp=F
 DIIS: error= 8.85D-07 at cycle   7 NSaved=   7.
 NSaved= 7 IEnMin= 7 EnMin= -115.063675716472     IErMin= 7 ErrMin= 8.85D-07
 ErrMax= 8.85D-07 EMaxC= 1.00D-01 BMatC= 5.25D-11 BMatP= 4.34D-10
 IDIUse=1 WtCom= 1.00D+00 WtEn= 0.00D+00
 Coeff-Com:  0.194D-03-0.170D-02 0.775D-02 0.105D-01-0.108D+00-0.656D-02
 Coeff-Com:  0.110D+01
 Coeff:      0.194D-03-0.170D-02 0.775D-02 0.105D-01-0.108D+00-0.656D-02
 Coeff:      0.110D+01
 Gap=     0.600 Goal=   None    Shift=    0.000
 RMSDP=2.96D-07 MaxDP=2.65D-06 DE=-1.23D-09 OVMax= 7.03D-06

 Cycle   8  Pass 1  IDiag  1:
 E= -115.063675716613     Delta-E=       -0.000000000140 Rises=F Damp=F
 DIIS: error= 2.58D-07 at cycle   8 NSaved=   8.
 NSaved= 8 IEnMin= 8 EnMin= -115.063675716613     IErMin= 8 ErrMin= 2.58D-07
 ErrMax= 2.58D-07 EMaxC= 1.00D-01 BMatC= 4.26D-12 BMatP= 5.25D-11
 IDIUse=1 WtCom= 1.00D+00 WtEn= 0.00D+00
 Coeff-Com:  0.116D-03-0.654D-03 0.877D-03 0.394D-02 0.783D-02-0.117D+00
 Coeff-Com: -0.115D-01 0.112D+01
 Coeff:      0.116D-03-0.654D-03 0.877D-03 0.394D-02 0.783D-02-0.117D+00
 Coeff:     -0.115D-01 0.112D+01
 Gap=     0.600 Goal=   None    Shift=    0.000
 RMSDP=1.05D-07 MaxDP=9.41D-07 DE=-1.40D-10 OVMax= 2.48D-06

 Cycle   9  Pass 1  IDiag  1:
 E= -115.063675716625     Delta-E=       -0.000000000012 Rises=F Damp=F
 DIIS: error= 6.01D-08 at cycle   9 NSaved=   9.
 NSaved= 9 IEnMin= 9 EnMin= -115.063675716625     IErMin= 9 ErrMin= 6.01D-08
 ErrMax= 6.01D-08 EMaxC= 1.00D-01 BMatC= 1.68D-13 BMatP= 4.26D-12
 IDIUse=1 WtCom= 1.00D+00 WtEn= 0.00D+00
 Coeff-Com: -0.207D-04 0.146D-03-0.466D-03-0.942D-03 0.485D-02 0.141D-01
 Coeff-Com: -0.517D-01-0.128D+00 0.116D+01
 Coeff:     -0.207D-04 0.146D-03-0.466D-03-0.942D-03 0.485D-02 0.141D-01
 Coeff:     -0.517D-01-0.128D+00 0.116D+01
 Gap=     0.600 Goal=   None    Shift=    0.000
 RMSDP=1.96D-08 MaxDP=1.83D-07 DE=-1.19D-11 OVMax= 4.80D-07

 Cycle  10  Pass 1  IDiag  1:
 E= -115.063675716625     Delta-E=        0.000000000000 Rises=F Damp=F
 DIIS: error= 1.55D-08 at cycle  10 NSaved=  10.
 NSaved=10 IEnMin=10 EnMin= -115.063675716625     IErMin=10 ErrMin= 1.55D-08
 ErrMax= 1.55D-08 EMaxC= 1.00D-01 BMatC= 1.33D-14 BMatP= 1.68D-13
 IDIUse=1 WtCom= 1.00D+00 WtEn= 0.00D+00
 Coeff-Com:  0.329D-06-0.114D-04 0.952D-04 0.963D-04-0.194D-02 0.930D-03
 Coeff-Com:  0.172D-01-0.171D-01-0.374D+00 0.137D+01
 Coeff:      0.329D-06-0.114D-04 0.952D-04 0.963D-04-0.194D-02 0.930D-03
 Coeff:      0.172D-01-0.171D-01-0.374D+00 0.137D+01
 Gap=     0.600 Goal=   None    Shift=    0.000
 RMSDP=6.16D-09 MaxDP=6.60D-08 DE=-3.41D-13 OVMax= 1.63D-07

 SCF Done:  E(RHF) =  -115.063675717     A.U. after   10 cycles
             Convg  =    0.6156D-08             -V/T =  1.9991
 KE= 1.151700633916D+02 PE=-3.531035079518D+02 EE= 8.200852178330D+01
 Leave Link  502 at Sun Dec 29 12:25:14 2019, MaxMem=   91750400 cpu:       0.2
 (Enter /opt/g09gh/gaussian/g09/l701.exe)
 Compute integral first derivatives.
 ... and contract with generalized density number  0.
 Leave Link  701 at Sun Dec 29 12:25:14 2019, MaxMem=   91750400 cpu:       0.1
 (Enter /opt/g09gh/gaussian/g09/l702.exe)
 L702 exits ... SP integral derivatives will be done elsewhere.
 Leave Link  702 at Sun Dec 29 12:25:14 2019, MaxMem=   91750400 cpu:       0.0
 (Enter /opt/g09gh/gaussian/g09/l703.exe)
 Compute integral first derivatives, UseDBF=F ICtDFT=           0.
 Integral derivatives from FoFDir, PRISM(SPDF).
 Calling FoFJK, ICntrl=      2127 FMM=F ISym2X=0 I1Cent= 0 IOpClX= 0 NMat=1 NMatS=1 NMatT=0.
 FoFCou: FMM=F IPFlag=           0 FMFlag=      100000 FMFlg1=         800
         NFxFlg=           0 DoJE=F BraDBF=F KetDBF=F FulRan=T
         Omega=  0.000000  0.000000  1.000000  0.000000  0.000000 ICntrl=    2127 IOpCl=  0
         NMat0=    1 NMatS0=    1 NMatT0=    0 NMatD0=    1 NMtDS0=    0 NMtDT0=    0
         I1Cent=           0 NGrid=           0.
 Symmetry not used in FoFCou.
 Leave Link  703 at Sun Dec 29 12:25:14 2019, MaxMem=   91750400 cpu:       0.3
 (Enter /opt/g09gh/gaussian/g09/l716.exe)
 Dipole        = 3.49029232D-01-6.71702317D-01-5.24438937D-03
 ***** Axes restored to original set *****
 -------------------------------------------------------------------
 Center     Atomic                   Forces (Hartrees/Bohr)
 Number     Number              X              Y              Z
 -------------------------------------------------------------------
      1        8          -0.001105494    0.003366365    0.000893295
      2        6           0.002460280   -0.000942454   -0.000180080
      3        1          -0.000010069    0.000711790   -0.000180524
      4        1          -0.000820831   -0.000451320    0.000733972
      5        1          -0.000938749   -0.000334659   -0.000661853
      6        1           0.000414863   -0.002349721   -0.000604810
 -------------------------------------------------------------------
 Cartesian Forces:  Max     0.003366365 RMS     0.001286080
 Leave Link  716 at Sun Dec 29 12:25:14 2019, MaxMem=   91750400 cpu:       0.0
 (Enter /opt/g09gh/gaussian/g09/l103.exe)

 GradGradGradGradGradGradGradGradGradGradGradGradGradGradGradGradGradGrad
 Berny optimization.
 Using GEDIIS/GDIIS optimizer.
 Internal  Forces:  Max     0.002320820 RMS     0.000905143
 Search for a local minimum.
 Step number   3 out of a maximum of  100
 All quantities printed in internal units (Hartrees-Bohrs-Radians)
 RMS Force = .90514D-03 SwitMx=.10000D-02 MixMth= 2
 Mixed Optimization -- En-DIIS/RFO-DIIS
 Update second derivatives using D2CorX and points    1    2    3
 DE= -2.39D-04 DEPred=-2.45D-04 R= 9.76D-01
 SS=  1.41D+00  RLast= 7.28D-02 DXNew= 8.4853D-01 2.1836D-01
 Trust test= 9.76D-01 RLast= 7.28D-02 DXMaxT set to 5.05D-01
 The second derivative matrix:
                          R1        R2        R3        R4        R5
           R1           0.34100
           R2          -0.00808   0.55462
           R3           0.00155   0.01093   0.34870
           R4           0.01435   0.01167   0.00189   0.34441
           R5           0.01150   0.01021   0.00137   0.00156   0.34479
           A1          -0.00146  -0.00913   0.00040  -0.00592  -0.00622
           A2          -0.00640  -0.00347   0.00353  -0.00335  -0.00420
           A3           0.01845  -0.00280  -0.00605  -0.00231  -0.00070
           A4           0.02544   0.00164  -0.00671  -0.00120   0.00087
           A5          -0.01196  -0.00756  -0.00133   0.00059   0.00019
           A6          -0.00472  -0.00118   0.00059   0.00032   0.00003
           A7          -0.02347   0.00719   0.00822   0.00455   0.00247
           D1           0.00931   0.01052   0.00234   0.00141   0.00161
           D2           0.02214  -0.01822  -0.01268  -0.00687  -0.00435
           D3          -0.01285   0.01166   0.00851   0.00356   0.00194
                          A1        A2        A3        A4        A5
           A1           0.17214
           A2           0.01183   0.17183
           A3          -0.00833  -0.01018   0.16636
           A4          -0.01364  -0.01439   0.00876   0.17245
           A5           0.00200  -0.00195   0.00314   0.00477   0.15515
           A6           0.00167   0.00101  -0.00047  -0.00046  -0.00164
           A7           0.00841   0.01335  -0.00653  -0.00999  -0.00060
           D1          -0.00398  -0.00040  -0.00224  -0.00229   0.00224
           D2          -0.00791  -0.01777   0.01069   0.01565  -0.00190
           D3           0.00650   0.01313  -0.00865  -0.01263   0.00162
                          A6        A7        D1        D2        D3
           A6           0.15970
           A7           0.00137   0.16229
           D1           0.00087   0.00150   0.01254
           D2          -0.00278  -0.00385  -0.00156   0.01758
           D3           0.00212   0.00453   0.00051  -0.00566   0.01760
 Use linear search instead of GDIIS.
     Eigenvalues ---    0.01092   0.10414   0.10620   0.14868   0.16000
     Eigenvalues ---    0.16180   0.20908   0.33127   0.34311   0.34997
     Eigenvalues ---    0.36785   0.557021000.000001000.000001000.00000
 RFO step:  Lambda=-5.76854857D-05 EMin= 1.09179302D-02
 Quartic linear search produced a step of -0.02597.
 Iteration  1 RMS(Cart)=  0.00751579 RMS(Int)=  0.00010457
 Iteration  2 RMS(Cart)=  0.00008632 RMS(Int)=  0.00000570
 Iteration  3 RMS(Cart)=  0.00000001 RMS(Int)=  0.00000570
 Variable       Old X    -DE/DX   Delta X   Delta X   Delta X     New X
                                 (Linear)    (Quad)   (Total)
    R1        2.64398  -0.00059   0.00066  -0.00505  -0.00440   2.63958
    R2        1.77029   0.00232   0.00006   0.00373   0.00379   1.77408
    R3        2.03953   0.00063  -0.00012   0.00231   0.00219   2.04172
    R4        2.05158   0.00108  -0.00008   0.00342   0.00334   2.05492
    R5        2.05173   0.00100  -0.00003   0.00294   0.00290   2.05463
    A1        1.92561  -0.00117  -0.00055  -0.00394  -0.00449   1.92112
    A2        1.87432  -0.00075  -0.00061  -0.00220  -0.00280   1.87152
    A3        1.95090   0.00068   0.00012   0.00414   0.00425   1.95515
    A4        1.94851   0.00093   0.00026   0.00476   0.00502   1.95353
    A5        1.89268  -0.00011   0.00013  -0.00208  -0.00195   1.89073
    A6        1.89608  -0.00036  -0.00002  -0.00309  -0.00310   1.89298
    A7        1.89974  -0.00044   0.00009  -0.00192  -0.00185   1.89789
    D1        3.05791   0.00033  -0.00083   0.02623   0.02539   3.08330
    D2        0.98404   0.00053  -0.00068   0.02776   0.02708   1.01113
    D3       -1.14863  -0.00005  -0.00108   0.02383   0.02274  -1.12589
         Item               Value     Threshold  Converged?
 Maximum Force            0.002321     0.000450     NO 
 RMS     Force            0.000905     0.000300     NO 
 Maximum Displacement     0.018680     0.001800     NO 
 RMS     Displacement     0.007541     0.001200     NO 
 Predicted change in Energy=-2.897327D-05
 GradGradGradGradGradGradGradGradGradGradGradGradGradGradGradGradGradGrad

 Leave Link  103 at Sun Dec 29 12:25:14 2019, MaxMem=   91750400 cpu:       0.0
 (Enter /opt/g09gh/gaussian/g09/l202.exe)
                          Input orientation:                          
 ---------------------------------------------------------------------
 Center     Atomic      Atomic             Coordinates (Angstroms)
 Number     Number       Type             X           Y           Z
 ---------------------------------------------------------------------
      1          8           0        0.728064    0.099298    0.029967
      2          6           0       -0.662216   -0.030955   -0.004892
      3          1           0       -1.079542    0.957521    0.121941
      4          1           0       -1.032673   -0.664162    0.797781
      5          1           0       -1.008814   -0.431763   -0.954294
      6          1           0        1.132389   -0.746118   -0.026083
 ---------------------------------------------------------------------
                    Distance matrix (angstroms):
                    1          2          3          4          5
     1  O    0.000000
     2  C    1.396804   0.000000
     3  H    2.003109   1.080431   0.000000
     4  H    2.067028   1.087416   1.757502   0.000000
     5  H    2.065803   1.087263   1.758806   1.767582   0.000000
     6  H    0.938801   1.931972   2.795878   2.317965   2.354813
                    6
     6  H    0.000000
 Stoichiometry    CH4O
 Framework group  C1[X(CH4O)]
 Deg. of freedom    12
 Full point group                 C1      NOp   1
 Largest Abelian subgroup         C1      NOp   1
 Largest concise Abelian subgroup C1      NOp   1
                         Standard orientation:                         
 ---------------------------------------------------------------------
 Center     Atomic      Atomic             Coordinates (Angstroms)
 Number     Number       Type             X           Y           Z
 ---------------------------------------------------------------------
      1          8           0       -0.735242    0.119497    0.000193
      2          6           0        0.654604   -0.019755    0.000253
      3          1           0        1.075751    0.973404   -0.059771
      4          1           0        1.007001   -0.592870   -0.854047
      5          1           0        1.015309   -0.492213    0.910647
      6          1           0       -1.143747   -0.725767    0.000109
 ---------------------------------------------------------------------
 Rotational constants (GHZ):    131.6981714     25.4925632     24.6369831
 Leave Link  202 at Sun Dec 29 12:25:14 2019, MaxMem=   91750400 cpu:       0.0
 (Enter /opt/g09gh/gaussian/g09/l301.exe)
 Standard basis: 6-311G(d) (5D, 7F)
 Ernie: Thresh=  0.10000D-02 Tol=  0.10000D-05 Strict=F.
 There are    48 symmetry adapted basis functions of A   symmetry.
 Integral buffers will be    131072 words long.
 Raffenetti 1 integral format.
 Two-electron integral symmetry is turned on.
    48 basis functions,    84 primitive gaussians,    50 cartesian basis functions
     9 alpha electrons        9 beta electrons
       nuclear repulsion energy        40.8707151761 Hartrees.
 IExCor=    0 DFT=F Ex=HF Corr=None ExCW=0 ScaHFX=  1.000000
 ScaDFX=  1.000000  1.000000  1.000000  1.000000 ScalE2=  1.000000  1.000000
 IRadAn=      0 IRanWt=     -1 IRanGd=            0 ICorTp=0
 NAtoms=    6 NActive=    6 NUniq=    6 SFac= 7.50D-01 NAtFMM=   80 NAOKFM=F Big=F
 Leave Link  301 at Sun Dec 29 12:25:14 2019, MaxMem=   91750400 cpu:       0.1
 (Enter /opt/g09gh/gaussian/g09/l302.exe)
 NPDir=0 NMtPBC=     1 NCelOv=     1 NCel=       1 NClECP=     1 NCelD=      1
         NCelK=      1 NCelE2=     1 NClLst=     1 CellRange=     0.0.
 One-electron integrals computed using PRISM.
 NBasis=    48 RedAO= T  NBF=    48
 NBsUse=    48 1.00D-06 NBFU=    48
 Leave Link  302 at Sun Dec 29 12:25:14 2019, MaxMem=   91750400 cpu:       0.1
 (Enter /opt/g09gh/gaussian/g09/l303.exe)
 DipDrv:  MaxL=1.
 Leave Link  303 at Sun Dec 29 12:25:14 2019, MaxMem=   91750400 cpu:       0.0
 (Enter /opt/g09gh/gaussian/g09/l401.exe)
 Initial guess read from the read-write file.
 B after Tr=     0.000000    0.000000    0.000000
         Rot=    1.000000    0.000000    0.000000    0.000000 Ang=   0.00 deg.
 Guess basis will be translated and rotated to current coordinates.
 Initial guess orbital symmetries:
       Occupied  (A) (A) (A) (A) (A) (A) (A) (A) (A)
       Virtual   (A) (A) (A) (A) (A) (A) (A) (A) (A) (A) (A) (A)
                 (A) (A) (A) (A) (A) (A) (A) (A) (A) (A) (A) (A)
                 (A) (A) (A) (A) (A) (A) (A) (A) (A) (A) (A) (A)
                 (A) (A) (A)
 The electronic state of the initial guess is 1-A.
 Leave Link  401 at Sun Dec 29 12:25:15 2019, MaxMem=   91750400 cpu:       0.1
 (Enter /opt/g09gh/gaussian/g09/l502.exe)
 Closed shell SCF:
 Requested convergence on RMS density matrix=1.00D-08 within 128 cycles.
 Requested convergence on MAX density matrix=1.00D-06.
 Requested convergence on             energy=1.00D-06.
 No special actions if energy rises.
 Using DIIS extrapolation, IDIIS=  1040.
 Integral symmetry usage will be decided dynamically.
 Keep R1 ints in memory in canonical form, NReq=1659792.
 IEnd=       26328 IEndB=       26328 NGot=    91750400 MDV=    90929785
 LenX=    90929785 LenY=    90926844
 Symmetry not used in FoFDir.
 MinBra= 0 MaxBra= 2 Meth= 1.
 IRaf=       0 NMat=   1 IRICut=       1 DoRegI=T DoRafI=F ISym2E= 0 JSym2E=0.

 Cycle   1  Pass 1  IDiag  1:
 E= -115.063546076071    
 DIIS: error= 1.83D-03 at cycle   1 NSaved=   1.
 NSaved= 1 IEnMin= 1 EnMin= -115.063546076071     IErMin= 1 ErrMin= 1.83D-03
 ErrMax= 1.83D-03 EMaxC= 1.00D-01 BMatC= 9.20D-05 BMatP= 9.20D-05
 IDIUse=3 WtCom= 9.82D-01 WtEn= 1.83D-02
 Coeff-Com:  0.100D+01
 Coeff-En:   0.100D+01
 Coeff:      0.100D+01
 Gap=     0.599 Goal=   None    Shift=    0.000
 GapD=    0.599 DampG=2.000 DampE=1.000 DampFc=2.0000 IDamp=-1.
 RMSDP=1.21D-04 MaxDP=1.05D-03              OVMax= 3.44D-03

 Cycle   2  Pass 1  IDiag  1:
 E= -115.063690501876     Delta-E=       -0.000144425805 Rises=F Damp=F
 DIIS: error= 5.86D-04 at cycle   2 NSaved=   2.
 NSaved= 2 IEnMin= 2 EnMin= -115.063690501876     IErMin= 2 ErrMin= 5.86D-04
 ErrMax= 5.86D-04 EMaxC= 1.00D-01 BMatC= 8.26D-06 BMatP= 9.20D-05
 IDIUse=3 WtCom= 9.94D-01 WtEn= 5.86D-03
 Coeff-Com: -0.338D+00 0.134D+01
 Coeff-En:   0.000D+00 0.100D+01
 Coeff:     -0.336D+00 0.134D+01
 Gap=     0.600 Goal=   None    Shift=    0.000
 RMSDP=7.56D-05 MaxDP=7.50D-04 DE=-1.44D-04 OVMax= 1.68D-03

 Cycle   3  Pass 1  IDiag  1:
 E= -115.063709653404     Delta-E=       -0.000019151528 Rises=F Damp=F
 DIIS: error= 8.91D-05 at cycle   3 NSaved=   3.
 NSaved= 3 IEnMin= 3 EnMin= -115.063709653404     IErMin= 3 ErrMin= 8.91D-05
 ErrMax= 8.91D-05 EMaxC= 1.00D-01 BMatC= 2.42D-07 BMatP= 8.26D-06
 IDIUse=1 WtCom= 1.00D+00 WtEn= 0.00D+00
 Coeff-Com:  0.233D-02-0.126D+00 0.112D+01
 Coeff:      0.233D-02-0.126D+00 0.112D+01
 Gap=     0.599 Goal=   None    Shift=    0.000
 RMSDP=2.24D-05 MaxDP=1.79D-04 DE=-1.92D-05 OVMax= 3.38D-04

 Cycle   4  Pass 1  IDiag  1:
 E= -115.063710261040     Delta-E=       -0.000000607636 Rises=F Damp=F
 DIIS: error= 2.01D-05 at cycle   4 NSaved=   4.
 NSaved= 4 IEnMin= 4 EnMin= -115.063710261040     IErMin= 4 ErrMin= 2.01D-05
 ErrMax= 2.01D-05 EMaxC= 1.00D-01 BMatC= 2.35D-08 BMatP= 2.42D-07
 IDIUse=1 WtCom= 1.00D+00 WtEn= 0.00D+00
 Coeff-Com:  0.173D-01-0.976D-01 0.217D+00 0.863D+00
 Coeff:      0.173D-01-0.976D-01 0.217D+00 0.863D+00
 Gap=     0.599 Goal=   None    Shift=    0.000
 RMSDP=5.54D-06 MaxDP=4.24D-05 DE=-6.08D-07 OVMax= 7.48D-05

 Cycle   5  Pass 1  IDiag  1:
 E= -115.063710293969     Delta-E=       -0.000000032929 Rises=F Damp=F
 DIIS: error= 3.56D-06 at cycle   5 NSaved=   5.
 NSaved= 5 IEnMin= 5 EnMin= -115.063710293969     IErMin= 5 ErrMin= 3.56D-06
[...]
 DIIS: error= 2.43D-06 at cycle   4 NSaved=   4.
 NSaved= 4 IEnMin= 4 EnMin= -115.063728438915     IErMin= 4 ErrMin= 2.43D-06
 ErrMax= 2.43D-06 EMaxC= 1.00D-01 BMatC= 3.91D-10 BMatP= 3.59D-09
 IDIUse=1 WtCom= 1.00D+00 WtEn= 0.00D+00
 Coeff-Com:  0.125D-01-0.904D-01 0.209D+00 0.869D+00
 Coeff:      0.125D-01-0.904D-01 0.209D+00 0.869D+00
 Gap=     0.600 Goal=   None    Shift=    0.000
 RMSDP=6.36D-07 MaxDP=4.92D-06 DE=-8.66D-09 OVMax= 8.68D-06

 Cycle   5  Pass 1  IDiag  1:
 E= -115.063728439446     Delta-E=       -0.000000000532 Rises=F Damp=F
 DIIS: error= 6.32D-07 at cycle   5 NSaved=   5.
 NSaved= 5 IEnMin= 5 EnMin= -115.063728439446     IErMin= 5 ErrMin= 6.32D-07
 ErrMax= 6.32D-07 EMaxC= 1.00D-01 BMatC= 3.00D-11 BMatP= 3.91D-10
 IDIUse=1 WtCom= 1.00D+00 WtEn= 0.00D+00
 Coeff-Com:  0.147D-02-0.601D-03-0.719D-01 0.138D+00 0.933D+00
 Coeff:      0.147D-02-0.601D-03-0.719D-01 0.138D+00 0.933D+00
 Gap=     0.600 Goal=   None    Shift=    0.000
 RMSDP=2.10D-07 MaxDP=1.49D-06 DE=-5.32D-10 OVMax= 3.03D-06

 Cycle   6  Pass 1  IDiag  1:
 E= -115.063728439487     Delta-E=       -0.000000000041 Rises=F Damp=F
 DIIS: error= 1.17D-07 at cycle   6 NSaved=   6.
 NSaved= 6 IEnMin= 6 EnMin= -115.063728439487     IErMin= 6 ErrMin= 1.17D-07
 ErrMax= 1.17D-07 EMaxC= 1.00D-01 BMatC= 1.25D-12 BMatP= 3.00D-11
 IDIUse=1 WtCom= 1.00D+00 WtEn= 0.00D+00
 Coeff-Com: -0.340D-03 0.394D-02-0.174D-01-0.224D-01 0.802D-01 0.956D+00
 Coeff:     -0.340D-03 0.394D-02-0.174D-01-0.224D-01 0.802D-01 0.956D+00
 Gap=     0.600 Goal=   None    Shift=    0.000
 RMSDP=4.39D-08 MaxDP=2.78D-07 DE=-4.11D-11 OVMax= 8.15D-07

 Cycle   7  Pass 1  IDiag  1:
 E= -115.063728439490     Delta-E=       -0.000000000003 Rises=F Damp=F
 DIIS: error= 5.42D-08 at cycle   7 NSaved=   7.
 NSaved= 7 IEnMin= 7 EnMin= -115.063728439490     IErMin= 7 ErrMin= 5.42D-08
 ErrMax= 5.42D-08 EMaxC= 1.00D-01 BMatC= 1.55D-13 BMatP= 1.25D-12
 IDIUse=1 WtCom= 1.00D+00 WtEn= 0.00D+00
 Coeff-Com: -0.238D-03 0.625D-03 0.526D-02-0.158D-01-0.873D-01 0.292D-01
 Coeff-Com:  0.107D+01
 Coeff:     -0.238D-03 0.625D-03 0.526D-02-0.158D-01-0.873D-01 0.292D-01
 Coeff:      0.107D+01
 Gap=     0.600 Goal=   None    Shift=    0.000
 RMSDP=1.64D-08 MaxDP=1.71D-07 DE=-2.70D-12 OVMax= 4.37D-07

 Cycle   8  Pass 1  IDiag  1:
 E= -115.063728439490     Delta-E=        0.000000000000 Rises=F Damp=F
 DIIS: error= 2.00D-08 at cycle   8 NSaved=   8.
 NSaved= 8 IEnMin= 8 EnMin= -115.063728439490     IErMin= 8 ErrMin= 2.00D-08
 ErrMax= 2.00D-08 EMaxC= 1.00D-01 BMatC= 1.55D-14 BMatP= 1.55D-13
 IDIUse=1 WtCom= 1.00D+00 WtEn= 0.00D+00
 Coeff-Com:  0.121D-03-0.635D-03 0.914D-04 0.776D-02 0.222D-01-0.106D+00
 Coeff-Com: -0.351D+00 0.143D+01
 Coeff:      0.121D-03-0.635D-03 0.914D-04 0.776D-02 0.222D-01-0.106D+00
 Coeff:     -0.351D+00 0.143D+01
 Gap=     0.600 Goal=   None    Shift=    0.000
 RMSDP=7.24D-09 MaxDP=8.93D-08 DE=-1.14D-13 OVMax= 2.10D-07

 SCF Done:  E(RHF) =  -115.063728439     A.U. after    8 cycles
             Convg  =    0.7239D-08             -V/T =  1.9991
 KE= 1.151617493583D+02 PE=-3.530756831011D+02 EE= 8.199807194036D+01
 Leave Link  502 at Sun Dec 29 12:25:19 2019, MaxMem=   91750400 cpu:       0.1
 (Enter /opt/g09gh/gaussian/g09/l701.exe)
 Compute integral first derivatives.
 ... and contract with generalized density number  0.
 Leave Link  701 at Sun Dec 29 12:25:19 2019, MaxMem=   91750400 cpu:       0.1
 (Enter /opt/g09gh/gaussian/g09/l702.exe)
 L702 exits ... SP integral derivatives will be done elsewhere.
 Leave Link  702 at Sun Dec 29 12:25:19 2019, MaxMem=   91750400 cpu:       0.0
 (Enter /opt/g09gh/gaussian/g09/l703.exe)
 Compute integral first derivatives, UseDBF=F ICtDFT=           0.
 Integral derivatives from FoFDir, PRISM(SPDF).
 Calling FoFJK, ICntrl=      2127 FMM=F ISym2X=0 I1Cent= 0 IOpClX= 0 NMat=1 NMatS=1 NMatT=0.
 FoFCou: FMM=F IPFlag=           0 FMFlag=      100000 FMFlg1=         800
         NFxFlg=           0 DoJE=F BraDBF=F KetDBF=F FulRan=T
         Omega=  0.000000  0.000000  1.000000  0.000000  0.000000 ICntrl=    2127 IOpCl=  0
         NMat0=    1 NMatS0=    1 NMatT0=    0 NMatD0=    1 NMtDS0=    0 NMtDT0=    0
         I1Cent=           0 NGrid=           0.
 Symmetry not used in FoFCou.
 Leave Link  703 at Sun Dec 29 12:25:19 2019, MaxMem=   91750400 cpu:       0.3
 (Enter /opt/g09gh/gaussian/g09/l716.exe)
 Dipole        = 3.48151146D-01-6.71569520D-01-1.41579744D-06
 ***** Axes restored to original set *****
 -------------------------------------------------------------------
 Center     Atomic                   Forces (Hartrees/Bohr)
 Number     Number              X              Y              Z
 -------------------------------------------------------------------
      1        8           0.000004372   -0.000021866    0.000000673
      2        6           0.000005547   -0.000012285   -0.000010522
      3        1           0.000003237   -0.000001699    0.000001912
      4        1           0.000004639    0.000005664   -0.000001984
      5        1           0.000007872    0.000002997    0.000009677
      6        1          -0.000025668    0.000027189    0.000000244
 -------------------------------------------------------------------
 Cartesian Forces:  Max     0.000027189 RMS     0.000011613
 Leave Link  716 at Sun Dec 29 12:25:19 2019, MaxMem=   91750400 cpu:       0.0
 (Enter /opt/g09gh/gaussian/g09/l103.exe)

 GradGradGradGradGradGradGradGradGradGradGradGradGradGradGradGradGradGrad
 Berny optimization.
 Using GEDIIS/GDIIS optimizer.
 Internal  Forces:  Max     0.000035458 RMS     0.000012610
 Search for a local minimum.
 Step number   7 out of a maximum of  100
 All quantities printed in internal units (Hartrees-Bohrs-Radians)
 RMS Force = .12610D-04 SwitMx=.10000D-02 MixMth= 2
 Mixed Optimization -- En-DIIS/RFO-DIIS
 Swaping is turned off.
 Update second derivatives using D2CorX and points    1    2    3    4    5
                                                      6    7
 DE= -7.46D-07 DEPred=-5.91D-07 R= 1.26D+00
 Trust test= 1.26D+00 RLast= 4.30D-03 DXMaxT set to 5.05D-01
 The second derivative matrix:
                          R1        R2        R3        R4        R5
           R1           0.40913
           R2          -0.01224   0.54376
           R3          -0.00088   0.00833   0.34844
           R4           0.00917   0.00610   0.00054   0.34212
           R5           0.01315   0.00179  -0.00124  -0.00243   0.33988
           A1           0.03081  -0.00577   0.00068  -0.00829  -0.00661
           A2           0.02440  -0.00558   0.00251  -0.00675  -0.00572
           A3           0.01964  -0.00544  -0.00700  -0.00371  -0.00278
           A4           0.03468  -0.00099  -0.00743  -0.00219  -0.00015
           A5          -0.02408  -0.00824  -0.00166   0.00104   0.00023
           A6          -0.02498   0.00671   0.00305   0.00550   0.00433
           A7          -0.03318   0.00875   0.00917   0.00531   0.00330
           D1           0.00034   0.01141   0.00368   0.00385   0.00381
           D2           0.00574  -0.01384  -0.01058  -0.00279  -0.00192
           D3          -0.00368   0.00394   0.00722  -0.00054  -0.00108
                          A1        A2        A3        A4        A5
           A1           0.18694
           A2           0.02406   0.18210
           A3          -0.00937  -0.01074   0.16527
           A4          -0.01105  -0.01036   0.00882   0.17564
           A5          -0.00189  -0.00756   0.00380   0.00277   0.15656
           A6          -0.00702  -0.00758   0.00278  -0.00011   0.00031
           A7           0.00661   0.01327  -0.00853  -0.01539   0.00302
           D1          -0.00469   0.00022  -0.00048  -0.00150   0.00111
           D2          -0.01048  -0.02293   0.01515   0.01895  -0.00405
           D3           0.01534   0.02330  -0.01303  -0.01776   0.00145
                          A6        A7        D1        D2        D3
           A6           0.16037
           A7           0.00354   0.16408
           D1           0.00058  -0.00021   0.01000
           D2          -0.00222  -0.00485  -0.00371   0.01791
           D3           0.00226   0.00411  -0.00284  -0.01068   0.01685
     Eigenvalues ---    0.00342   0.10409   0.10801   0.15004   0.16210
     Eigenvalues ---    0.16329   0.23505   0.33874   0.34369   0.34981
     Eigenvalues ---    0.43039   0.546291000.000001000.000001000.00000
 En-DIIS/RFO-DIIS IScMMF=        0 using points:     7    6    5    4    3
 RFO step:  Lambda= 0.00000000D+00.
 DIIS coeffs:      0.91719      0.12090     -0.04369     -0.00867      0.01426
 Iteration  1 RMS(Cart)=  0.00012065 RMS(Int)=  0.00000008
 Iteration  2 RMS(Cart)=  0.00000002 RMS(Int)=  0.00000008
 Variable       Old X    -DE/DX   Delta X   Delta X   Delta X     New X
                                  (DIIS)     (GDIIS)  (Total)
    R1        2.64179  -0.00002  -0.00004   0.00000  -0.00003   2.64175
    R2        1.77429  -0.00004  -0.00004  -0.00002  -0.00006   1.77423
    R3        2.04146   0.00000  -0.00002   0.00001   0.00000   2.04145
    R4        2.05470  -0.00001  -0.00001   0.00000  -0.00002   2.05469
    R5        2.05472  -0.00001   0.00000  -0.00003  -0.00003   2.05469
    A1        1.92033  -0.00002  -0.00005  -0.00005  -0.00010   1.92023
    A2        1.87173   0.00000  -0.00001   0.00002   0.00001   1.87173
    A3        1.95413   0.00000  -0.00003   0.00000  -0.00003   1.95411
    A4        1.95413   0.00000  -0.00004   0.00003  -0.00001   1.95411
    A5        1.89219   0.00000   0.00005  -0.00006  -0.00001   1.89218
    A6        1.89215   0.00000   0.00002   0.00000   0.00002   1.89218
    A7        1.89752   0.00000   0.00001   0.00001   0.00002   1.89754
    D1        3.14120   0.00000   0.00039  -0.00003   0.00036   3.14155
    D2        1.06769   0.00000   0.00034   0.00004   0.00038   1.06807
    D3       -1.06854   0.00000   0.00038   0.00000   0.00038  -1.06815
         Item               Value     Threshold  Converged?
 Maximum Force            0.000035     0.000450     YES
 RMS     Force            0.000013     0.000300     YES
 Maximum Displacement     0.000283     0.001800     YES
 RMS     Displacement     0.000121     0.001200     YES
 Predicted change in Energy=-4.145481D-09
 Optimization completed.
    -- Stationary point found.
                           ----------------------------
                           !   Optimized Parameters   !
                           ! (Angstroms and Degrees)  !
 --------------------------                            --------------------------
 ! Name  Definition              Value          Derivative Info.                !
 --------------------------------------------------------------------------------
 ! R1    R(1,2)                  1.398          -DE/DX =    0.0                 !
 ! R2    R(1,6)                  0.9389         -DE/DX =    0.0                 !
 ! R3    R(2,3)                  1.0803         -DE/DX =    0.0                 !
 ! R4    R(2,4)                  1.0873         -DE/DX =    0.0                 !
 ! R5    R(2,5)                  1.0873         -DE/DX =    0.0                 !
 ! A1    A(2,1,6)              110.0267         -DE/DX =    0.0                 !
 ! A2    A(1,2,3)              107.242          -DE/DX =    0.0                 !
 ! A3    A(1,2,4)              111.9636         -DE/DX =    0.0                 !
 ! A4    A(1,2,5)              111.9632         -DE/DX =    0.0                 !
 ! A5    A(3,2,4)              108.4145         -DE/DX =    0.0                 !
 ! A6    A(3,2,5)              108.4124         -DE/DX =    0.0                 !
 ! A7    A(4,2,5)              108.7201         -DE/DX =    0.0                 !
 ! D1    D(6,1,2,3)            179.9772         -DE/DX =    0.0                 !
 ! D2    D(6,1,2,4)             61.1742         -DE/DX =    0.0                 !
 ! D3    D(6,1,2,5)            -61.2226         -DE/DX =    0.0                 !
 --------------------------------------------------------------------------------
 GradGradGradGradGradGradGradGradGradGradGradGradGradGradGradGradGradGrad

 Largest change from initial coordinates is atom    4       0.054 Angstoms.
 Leave Link  103 at Sun Dec 29 12:25:19 2019, MaxMem=   91750400 cpu:       0.0
 (Enter /opt/g09gh/gaussian/g09/l202.exe)
                          Input orientation:                          
 ---------------------------------------------------------------------
 Center     Atomic      Atomic             Coordinates (Angstroms)
 Number     Number       Type             X           Y           Z
 ---------------------------------------------------------------------
      1          8           0        0.728535    0.097626    0.048281
      2          6           0       -0.662633   -0.031157   -0.000670
      3          1           0       -1.080098    0.958440    0.115312
      4          1           0       -1.041318   -0.659873    0.801540
      5          1           0       -1.000265   -0.437094   -0.951179
      6          1           0        1.132987   -0.744123   -0.048864
 ---------------------------------------------------------------------
                    Distance matrix (angstroms):
                    1          2          3          4          5
     1  O    0.000000
     2  C    1.397973   0.000000
     3  H    2.004157   1.080292   0.000000
     4  H    2.067264   1.087303   1.758223   0.000000
     5  H    2.067268   1.087313   1.758208   1.767298   0.000000
     6  H    0.938915   1.932587   2.797038   2.336212   2.336494
                    6
     6  H    0.000000
 Stoichiometry    CH4O
 Framework group  C1[X(CH4O)]
 Deg. of freedom    12
 Full point group                 C1      NOp   1
 Largest Abelian subgroup         C1      NOp   1
 Largest concise Abelian subgroup C1      NOp   1
                         Standard orientation:                         
 ---------------------------------------------------------------------
 Center     Atomic      Atomic             Coordinates (Angstroms)
 Number     Number       Type             X           Y           Z
 ---------------------------------------------------------------------
      1          8           0       -0.735857    0.119505   -0.000001
      2          6           0        0.655174   -0.019640   -0.000003
      3          1           0        1.076485    0.975110   -0.000451
      4          1           0        1.011427   -0.543928   -0.883424
      5          1           0        1.011506   -0.543126    0.883874
      6          1           0       -1.143602   -0.726252    0.000031
 ---------------------------------------------------------------------
 Rotational constants (GHZ):    131.6808992     25.4602847     24.6048354
 Leave Link  202 at Sun Dec 29 12:25:19 2019, MaxMem=   91750400 cpu:       0.0
 (Enter /opt/g09gh/gaussian/g09/l601.exe)
 Copying SCF densities to generalized density rwf, IOpCl= 0 IROHF=0.

 **********************************************************************

            Population analysis using the SCF density.

 **********************************************************************

 Orbital symmetries:
       Occupied  (A) (A) (A) (A) (A) (A) (A) (A) (A)
       Virtual   (A) (A) (A) (A) (A) (A) (A) (A) (A) (A) (A) (A)
                 (A) (A) (A) (A) (A) (A) (A) (A) (A) (A) (A) (A)
                 (A) (A) (A) (A) (A) (A) (A) (A) (A) (A) (A) (A)
                 (A) (A) (A)
 The electronic state is 1-A.
 Alpha  occ. eigenvalues --  -20.54166 -11.26481  -1.36445  -0.92835  -0.69700
 Alpha  occ. eigenvalues --   -0.62229  -0.59734  -0.49809  -0.44492
 Alpha virt. eigenvalues --    0.15461   0.18911   0.22732   0.23399   0.34624
 Alpha virt. eigenvalues --    0.46135   0.48402   0.59618   0.70036   0.73724
 Alpha virt. eigenvalues --    0.79099   0.80580   0.94602   1.06463   1.07995
 Alpha virt. eigenvalues --    1.17525   1.54683   1.60221   1.69555   1.76419
 Alpha virt. eigenvalues --    1.77084   2.00242   2.36810   2.61907   2.70592
 Alpha virt. eigenvalues --    2.72486   3.16486   3.25777   3.37850   3.42115
 Alpha virt. eigenvalues --    3.51618   3.57720   3.82999   4.27330   5.38592
 Alpha virt. eigenvalues --    5.54223   5.93233  24.56798  51.52762
          Condensed to atoms (all electrons):
              1          2          3          4          5          6
     1  O    8.263046   0.217580  -0.028360  -0.034335  -0.034341   0.269345
     2  C    0.217580   4.979099   0.391878   0.394321   0.394320  -0.049594
     3  H   -0.028360   0.391878   0.485588  -0.032925  -0.032935   0.007289
     4  H   -0.034335   0.394321  -0.032925   0.538265  -0.040950  -0.004273
     5  H   -0.034341   0.394320  -0.032935  -0.040950   0.538271  -0.004265
     6  H    0.269345  -0.049594   0.007289  -0.004273  -0.004265   0.370215
 Mulliken atomic charges:
              1
     1  O   -0.652936
     2  C   -0.327605
     3  H    0.209464
     4  H    0.179896
     5  H    0.179900
     6  H    0.411282
 Sum of Mulliken atomic charges =   0.00000
 Mulliken charges with hydrogens summed into heavy atoms:
              1
     1  O   -0.241655
     2  C    0.241655
 Sum of Mulliken charges with hydrogens summed into heavy atoms =   0.00000
 Electronic spatial extent (au):  <R**2>=             82.6797
 Charge=              0.0000 electrons
 Dipole moment (field-independent basis, Debye):
    X=              0.8849    Y=             -1.7070    Z=              0.0000  Tot=              1.9227
 Quadrupole moment (field-independent basis, Debye-Ang):
   XX=            -12.6387   YY=            -12.0947   ZZ=            -13.6209
   XY=              2.4352   XZ=             -0.0002   YZ=             -0.0001
 Traceless Quadrupole moment (field-independent basis, Debye-Ang):
   XX=              0.1461   YY=              0.6901   ZZ=             -0.8361
   XY=              2.4352   XZ=             -0.0002   YZ=             -0.0001
 Octapole moment (field-independent basis, Debye-Ang**2):
  XXX=             -4.4506  YYY=             -0.6269  ZZZ=              0.0005  XYY=             -1.7665
  XXY=             -2.5060  XXZ=              0.0000  XZZ=             -0.5123  YZZ=             -0.6732
  YYZ=             -0.0007  XYZ=              0.0000
 Hexadecapole moment (field-independent basis, Debye-Ang**3):
 XXXX=            -58.4019 YYYY=            -19.0667 ZZZZ=            -18.9906 XXXY=              4.0982
 XXXZ=             -0.0003 YYYX=              2.9850 YYYZ=             -0.0001 ZZZX=              0.0006
 ZZZY=             -0.0001 XXYY=            -11.8872 XXZZ=            -13.5209 YYZZ=             -6.4468
 XXYZ=             -0.0002 YYXZ=             -0.0009 ZZXY=             -0.0523
 N-N= 4.085213336298D+01 E-N=-3.530756833271D+02  KE= 1.151617493583D+02
 No NMR shielding tensors so no spin-rotation constants.
 Leave Link  601 at Sun Dec 29 12:25:20 2019, MaxMem=   91750400 cpu:       0.1
 (Enter /opt/g09gh/gaussian/g09/l9999.exe)
 1\1\GINC-NODE36\FOpt\RHF\6-311G(d)\C1H4O1\BDW2292\29-Dec-2019\0\\#P op
 t=(,maxcycle=400) HF/6-311G* MaxDisk=100GB\\methanol Rotatable Bond Op
 timization on node36.bme.utexas.edu\\0,1\O,0.728534668,0.0976264704,0.
 0482808379\C,-0.6626327968,-0.0311568869,-0.0006700402\H,-1.0800976544
 ,0.9584400905,0.1153124937\H,-1.0413175612,-0.6598728224,0.8015400879\
 H,-1.0002649441,-0.4370941262,-0.9511794585\H,1.1329872886,-0.74412272
 53,-0.0488639207\\Version=EM64L-G09RevA.02\State=1-A\HF=-115.0637284\R
 MSD=7.239e-09\RMSF=1.161e-05\Dipole=-0.3505792,-0.6639192,-0.0923056\Q
 uadrupole=0.0945942,0.519032,-0.6136262,-1.7962208,-0.2107952,0.102363
 9\PG=C01 [X(C1H4O1)]\\@


 It is also a good rule not to put too much confidence in
 experimental results until they have been confirmed by
 Theory.
                             -- Sir Arthur Eddington
 Job cpu time:  0 days  0 hours  0 minutes  9.1 seconds.
 File lengths (MBytes):  RWF=      5 Int=      0 D2E=      0 Chk=      1 Scr=      1
 Normal termination of Gaussian 09 at Sun Dec 29 12:25:20 2019.
