 Entering Gaussian System, Link 0=g09
 Input=methanol-sp-6-1-2-3-229.com
 Output=methanol-sp-6-1-2-3-229.log
 Initial command:
 /opt/g09gh/gaussian/g09/l1.exe /scratch/bdw2292/Gau-methanol/Gau-41325.inp -scrdir=/scratch/bdw2292/Gau-methanol/
 Entering Link 1 = /opt/g09gh/gaussian/g09/l1.exe PID=     41326.
  
 Copyright (c) 1988,1990,1992,1993,1995,1998,2003,2009, Gaussian, Inc.
                  All Rights Reserved.
  
 This is part of the Gaussian(R) 09 program.  It is based on
 the Gaussian(R) 03 system (copyright 2003, Gaussian, Inc.),
 the Gaussian(R) 98 system (copyright 1998, Gaussian, Inc.),
 the Gaussian(R) 94 system (copyright 1995, Gaussian, Inc.),
 the Gaussian 92(TM) system (copyright 1992, Gaussian, Inc.),
 the Gaussian 90(TM) system (copyright 1990, Gaussian, Inc.),
 the Gaussian 88(TM) system (copyright 1988, Gaussian, Inc.),
 the Gaussian 86(TM) system (copyright 1986, Carnegie Mellon
 University), and the Gaussian 82(TM) system (copyright 1983,
 Carnegie Mellon University). Gaussian is a federally registered
 trademark of Gaussian, Inc.
  
 This software contains proprietary and confidential information,
 including trade secrets, belonging to Gaussian, Inc.
  
 This software is provided under written license and may be
 used, copied, transmitted, or stored only in accord with that
 written license.
  
 The following legend is applicable only to US Government
 contracts under FAR:
  
                    RESTRICTED RIGHTS LEGEND
  
 Use, reproduction and disclosure by the US Government is
 subject to restrictions as set forth in subparagraphs (a)
 and (c) of the Commercial Computer Software - Restricted
 Rights clause in FAR 52.227-19.
  
 Gaussian, Inc.
 340 Quinnipiac St., Bldg. 40, Wallingford CT 06492
  
  
 ---------------------------------------------------------------
 Warning -- This program may not be used in any manner that
 competes with the business of Gaussian, Inc. or will provide
 assistance to any competitor of Gaussian, Inc.  The licensee
 of this program is prohibited from giving any competitor of
 Gaussian, Inc. access to this program.  By using this program,
 the user acknowledges that Gaussian, Inc. is engaged in the
 business of creating and licensing software in the field of
 computational chemistry and represents and warrants to the
 licensee that it is not a competitor of Gaussian, Inc. and that
 it will not use this program in any manner prohibited above.
 ---------------------------------------------------------------
  

 Cite this work as:
 Gaussian 09, Revision A.02,
 M. J. Frisch, G. W. Trucks, H. B. Schlegel, G. E. Scuseria, 
 M. A. Robb, J. R. Cheeseman, G. Scalmani, V. Barone, B. Mennucci, 
 G. A. Petersson, H. Nakatsuji, M. Caricato, X. Li, H. P. Hratchian, 
 A. F. Izmaylov, J. Bloino, G. Zheng, J. L. Sonnenberg, M. Hada, 
 M. Ehara, K. Toyota, R. Fukuda, J. Hasegawa, M. Ishida, T. Nakajima, 
 Y. Honda, O. Kitao, H. Nakai, T. Vreven, J. A. Montgomery, Jr., 
 J. E. Peralta, F. Ogliaro, M. Bearpark, J. J. Heyd, E. Brothers, 
 K. N. Kudin, V. N. Staroverov, R. Kobayashi, J. Normand, 
 K. Raghavachari, A. Rendell, J. C. Burant, S. S. Iyengar, J. Tomasi, 
 M. Cossi, N. Rega, J. M. Millam, M. Klene, J. E. Knox, J. B. Cross, 
 V. Bakken, C. Adamo, J. Jaramillo, R. Gomperts, R. E. Stratmann, 
 O. Yazyev, A. J. Austin, R. Cammi, C. Pomelli, J. W. Ochterski, 
 R. L. Martin, K. Morokuma, V. G. Zakrzewski, G. A. Voth, 
 P. Salvador, J. J. Dannenberg, S. Dapprich, A. D. Daniels, 
 O. Farkas, J. B. Foresman, J. V. Ortiz, J. Cioslowski, 
 and D. J. Fox, Gaussian, Inc., Wallingford CT, 2009.
 
 ******************************************
 Gaussian 09:  EM64L-G09RevA.02 11-Jun-2009
                29-Dec-2019 
 ******************************************
 %RWF=/scratch/bdw2292/Gau-methanol/,100GB
 %Nosave
 %Chk=methanol-sp-6-1-2-3-229.chk
 %Mem=700MB
 %Nproc=1
 Will use up to    1 processors via shared memory.
 ----------------------------------------------------------------------
 #P MP2/6-311++G(2d,2p) SP SCF=(qc,maxcycle=800) Guess=Indo MaxDisk=100
 GB SCRF=(PCM)
 ----------------------------------------------------------------------
 1/38=1/1;
 2/12=2,17=6,18=5,40=1/2;
 3/5=4,6=6,7=1212,11=9,16=1,25=1,30=1,70=2201,72=1/1,2,3;
 4/5=4,11=3/1;
 5/5=2,7=800,8=3,38=5/8;
 8/10=2/1;
 9/16=-3/6;
 6/7=2,8=2,9=2,10=2/1;
 99/5=1,9=1/99;
 Leave Link    1 at Sun Dec 29 12:30:10 2019, MaxMem=   91750400 cpu:       0.0
 (Enter /opt/g09gh/gaussian/g09/l101.exe)
 ---------------------------------------------------------------
 methanol Rotatable Bond SP Calculation on node36.bme.utexas.edu
 ---------------------------------------------------------------
 Symbolic Z-matrix:
 Charge =  0 Multiplicity = 1
 O                     0.74018   0.03633   0.25568 
 C                    -0.68057  -0.01822   0.05799 
 H                    -1.04373   0.99883  -0.1166 
 H                    -1.13505  -0.46979   0.94476 
 H                    -0.88344  -0.63998  -0.81989 
 H                     1.12752  -0.64519  -0.32226 
 
 NAtoms=      6 NQM=      6 NQMF=      0 NMic=      0 NMicF=      0 NTot=      6.
                    Isotopes and Nuclear Properties:
 (Nuclear quadrupole moments (NQMom) in fm**2, nuclear magnetic moments (NMagM)
  in nuclear magnetons)

  Atom         1           2           3           4           5           6
 IAtWgt=          16          12           1           1           1           1
 AtmWgt=  15.9949146  12.0000000   1.0078250   1.0078250   1.0078250   1.0078250
 NucSpn=           0           0           1           1           1           1
 AtZEff=   0.0000000   0.0000000   0.0000000   0.0000000   0.0000000   0.0000000
 NQMom=    0.0000000   0.0000000   0.0000000   0.0000000   0.0000000   0.0000000
 NMagM=    0.0000000   0.0000000   2.7928460   2.7928460   2.7928460   2.7928460
 Leave Link  101 at Sun Dec 29 12:30:10 2019, MaxMem=   91750400 cpu:       0.1
 (Enter /opt/g09gh/gaussian/g09/l202.exe)
                          Input orientation:                          
 ---------------------------------------------------------------------
 Center     Atomic      Atomic             Coordinates (Angstroms)
 Number     Number       Type             X           Y           Z
 ---------------------------------------------------------------------
      1          8           0        0.740178    0.036333    0.255684
      2          6           0       -0.680568   -0.018218    0.057994
      3          1           0       -1.043726    0.998832   -0.116598
      4          1           0       -1.135048   -0.469786    0.944759
      5          1           0       -0.883439   -0.639983   -0.819892
      6          1           0        1.127515   -0.645187   -0.322262
 ---------------------------------------------------------------------
                    Distance matrix (angstroms):
                    1          2          3          4          5
     1  O    0.000000
     2  C    1.435471   0.000000
     3  H    2.060901   1.093964   0.000000
     4  H    2.060935   1.093992   1.814292   0.000000
     5  H    2.061650   1.094729   1.790539   1.790605   0.000000
     6  H    0.973920   1.951115   2.731187   2.599096   2.071617
                    6
     6  H    0.000000
 Stoichiometry    CH4O
 Framework group  C1[X(CH4O)]
 Deg. of freedom    12
 Full point group                 C1      NOp   1
 Largest Abelian subgroup         C1      NOp   1
 Largest concise Abelian subgroup C1      NOp   1
                         Standard orientation:                         
 ---------------------------------------------------------------------
 Center     Atomic      Atomic             Coordinates (Angstroms)
 Number     Number       Type             X           Y           Z
 ---------------------------------------------------------------------
      1          8           0       -0.750505   -0.129949    0.001925
      2          6           0        0.677612    0.015154    0.000588
      3          1           0        1.090245   -0.641822   -0.770692
      4          1           0        1.050825   -0.237285    0.997486
      5          1           0        0.918607    1.057276   -0.232513
      6          1           0       -1.121310    0.770493   -0.013212
 ---------------------------------------------------------------------
 Rotational constants (GHZ):    124.4399834     24.6219687     23.7550576
 Leave Link  202 at Sun Dec 29 12:30:10 2019, MaxMem=   91750400 cpu:       0.0
 (Enter /opt/g09gh/gaussian/g09/l301.exe)
 Standard basis: 6-311++G(2d,2p) (5D, 7F)
 Ernie: Thresh=  0.10000D-02 Tol=  0.10000D-05 Strict=F.
 There are    94 symmetry adapted basis functions of A   symmetry.
 Integral buffers will be    131072 words long.
 Raffenetti 1 integral format.
 Two-electron integral symmetry is turned on.
    94 basis functions,   132 primitive gaussians,    98 cartesian basis functions
     9 alpha electrons        9 beta electrons
       nuclear repulsion energy        40.0711563841 Hartrees.
 IExCor=    0 DFT=F Ex=HF Corr=None ExCW=0 ScaHFX=  1.000000
 ScaDFX=  1.000000  1.000000  1.000000  1.000000 ScalE2=  1.000000  1.000000
 IRadAn=      0 IRanWt=     -1 IRanGd=            0 ICorTp=0
 NAtoms=    6 NActive=    6 NUniq=    6 SFac= 7.50D-01 NAtFMM=   80 NAOKFM=F Big=F
 ------------------------------------------------------------------------------
 Polarizable Continuum Model (PCM)
 =================================
 Model                : PCM.
 Atomic radii         : UFF (Universal Force Field).
 Polarization charges : Total charges.
 Charge compensation  : None.
 Solution method      : Matrix inversion.
 Cavity type          : Scaled VdW (van der Waals Surface) (Alpha=1.100).
 Cavity algorithm     : GePol (No added spheres)
                        Default sphere list used, NSphG=    6.
                        Lebedev-Laikov grids with approx.  5.0 points / Ang**2.
                        Smoothing algorithm: Karplus/York (Gamma=1.0000).
                        Polarization charges: spherical gaussians, with
                                              point-specific exponents (IZeta= 3).
                        Self-potential: point-specific (ISelfS= 7).
                        Self-field    : sphere-specific E.n sum rule (ISelfD= 2).
 Solvent              : Water, Eps=  78.355300 Eps(inf)=   1.777849
 ------------------------------------------------------------------------------
 Spheres list:
 ISph  on   Nord    Re0     Alpha      Xe            Ye            Ze
    1   O      1    1.750   1.100     -0.750505     -0.129949      0.001925
    2   C      2    1.926   1.100      0.677612      0.015154      0.000588
    3   H      3    1.443   1.100      1.090245     -0.641822     -0.770692
    4   H      4    1.443   1.100      1.050825     -0.237285      0.997486
    5   H      5    1.443   1.100      0.918607      1.057276     -0.232513
    6   H      6    1.443   1.100     -1.121310      0.770493     -0.013212
 ------------------------------------------------------------------------------
 GePol: Number of generator spheres                  =       6
 GePol: Total number of spheres                      =       6
 GePol: Number of exposed spheres                    =       6 (100.00%)
 GePol: Number of points                             =     607
 GePol: Average weight of points                     =       0.14
 GePol: Minimum weight of points                     =   0.14D-06
 GePol: Maximum weight of points                     =    0.20577
 GePol: Number of points with low weight             =      27
 GePol: Fraction of low-weight points (<1% of avg)   =       4.45%
 GePol: Cavity surface area                          =     83.900 Ang**2
 GePol: Cavity volume                                =     65.269 Ang**3
 Leave Link  301 at Sun Dec 29 12:30:11 2019, MaxMem=   91750400 cpu:       0.1
 (Enter /opt/g09gh/gaussian/g09/l302.exe)
 NPDir=0 NMtPBC=     1 NCelOv=     1 NCel=       1 NClECP=     1 NCelD=      1
         NCelK=      1 NCelE2=     1 NClLst=     1 CellRange=     0.0.
 One-electron integrals computed using PRISM.
 NBasis=    94 RedAO= T  NBF=    94
 NBsUse=    94 1.00D-06 NBFU=    94
 Leave Link  302 at Sun Dec 29 12:30:11 2019, MaxMem=   91750400 cpu:       0.1
 (Enter /opt/g09gh/gaussian/g09/l303.exe)
 DipDrv:  MaxL=1.
 Leave Link  303 at Sun Dec 29 12:30:11 2019, MaxMem=   91750400 cpu:       0.0
 (Enter /opt/g09gh/gaussian/g09/l401.exe)
 Projected INDO guess.
 Initial guess orbital symmetries:
       Occupied  (A) (A) (A) (A) (A) (A) (A) (A) (A)
       Virtual   (A) (A) (A) (A) (A) (A) (A) (A) (A) (A) (A) (A)
                 (A) (A) (A) (A) (A) (A) (A) (A) (A) (A) (A) (A)
                 (A) (A) (A) (A) (A) (A) (A) (A) (A) (A) (A) (A)
                 (A) (A) (A) (A) (A) (A) (A) (A) (A) (A) (A) (A)
                 (A) (A) (A) (A) (A) (A) (A) (A) (A) (A) (A) (A)
                 (A) (A) (A) (A) (A) (A) (A) (A) (A) (A) (A) (A)
                 (A) (A) (A) (A) (A) (A) (A) (A) (A) (A) (A) (A)
                 (A)
 The electronic state of the initial guess is 1-A.
 Leave Link  401 at Sun Dec 29 12:30:11 2019, MaxMem=   91750400 cpu:       0.1
 (Enter /opt/g09gh/gaussian/g09/l508.exe)
 Direct SCF.
 Tight linear equation convergence will be used.
 RHF wavefunction.
 Quadratic Convergence SCF Method.
 Line search only if initial step raises energy.
 Integral symmetry usage will be decided dynamically.
 ReadGW:  IGet=1 IStart=           2 Next=           2 LGW=           0.
 Keep R1 ints in memory in canonical form, NReq=15225890.
 Symmetry not used in FoFDir.
 MinBra= 0 MaxBra= 2 Meth= 1.
 IRaf=       0 NMat=   1 IRICut=       1 DoRegI=T DoRafI=F ISym2E= 0 JSym2E=0.
 Iteration   1 EE= -114.497177911315                                    Grad=2.171D+00
 Gradient too large for Newton-Raphson -- use scaled steepest descent instead.
     ILin= 1 X=0.000D+00 Y=-1.144971779113D+02 DE= 0.00D+00
     ILin= 2 X=3.000D-01 Y=-1.147748000855D+02 DE=-2.78D-01
     ILin= 3 X=4.243D-01 Y=-1.148633282528D+02 DE=-3.66D-01
     ILin= 4 X=6.000D-01 Y=-1.149616653048D+02 DE=-4.64D-01
     ILin= 5 X=8.485D-01 Y=-1.150464008769D+02 DE=-5.49D-01
     ILin= 6 X=1.200D+00 Y=-1.150561958693D+02 DE=-5.59D-01
     ILin= 7 X=1.697D+00 Y=-1.148477084131D+02 DE=-3.51D-01
     An  expanding polynomial of degree  7 produced  1.0510
 Iteration   2 EE= -115.067877069910     Delta-E=       -0.570699158595 Grad=1.808D-01
 Gradient too large for Newton-Raphson -- use scaled steepest descent instead.
     ILin= 1 X=0.000D+00 Y=-1.150678770699D+02 DE= 0.00D+00
     ILin= 2 X=1.051D+00 Y=-1.150818977409D+02 DE=-1.40D-02
     ILin= 3 X=1.486D+00 Y=-1.150735840350D+02 DE=-5.71D-03
     An  expanding polynomial of degree  3 produced  0.8311
 Iteration   3 EE= -115.082977838019     Delta-E=       -0.015100768109 Grad=6.951D-02
 Gradient too large for Newton-Raphson -- use scaled steepest descent instead.
     ILin= 1 X=0.000D+00 Y=-1.150829778380D+02 DE= 0.00D+00
     ILin= 2 X=8.311D-01 Y=-1.150859375228D+02 DE=-2.96D-03
     ILin= 3 X=1.175D+00 Y=-1.150859090552D+02 DE=-2.93D-03
     An  expanding polynomial of degree  3 produced  0.9899
 Iteration   4 EE= -115.086016430175     Delta-E=       -0.003038592157 Grad=3.711D-02
 Gradient too large for Newton-Raphson -- use scaled steepest descent instead.
     ILin= 1 X=0.000D+00 Y=-1.150860164302D+02 DE= 0.00D+00
     ILin= 2 X=9.899D-01 Y=-1.150867489604D+02 DE=-7.33D-04
     ILin= 3 X=1.400D+00 Y=-1.150864524852D+02 DE=-4.36D-04
     An  expanding polynomial of degree  3 produced  0.8490
 Iteration   5 EE= -115.086769849060     Delta-E=       -0.000753418885 Grad=1.751D-02
 Gradient too large for Newton-Raphson -- use scaled steepest descent instead.
     ILin= 1 X=0.000D+00 Y=-1.150867698491D+02 DE= 0.00D+00
     ILin= 2 X=8.490D-01 Y=-1.150869674028D+02 DE=-1.98D-04
     ILin= 3 X=1.201D+00 Y=-1.150869608047D+02 DE=-1.91D-04
     An  expanding polynomial of degree  3 produced  0.9800
 Iteration   6 EE= -115.086971013855     Delta-E=       -0.000201164795 Grad=9.958D-03
 QCNR:  CnvC1=3.91D-09 CnvC2=3.91D-08
 LinEq1:  Iter=  0 NonCon=     1 RMS=1.90D-04 Max=1.59D-03
 AX will form     1 AO Fock derivatives at one time.
 LinEq1:  Iter=  1 NonCon=     1 RMS=1.11D-04 Max=1.15D-03
 LinEq1:  Iter=  2 NonCon=     1 RMS=4.31D-06 Max=3.05D-05
 LinEq1:  Iter=  3 NonCon=     1 RMS=1.41D-06 Max=9.31D-06
 LinEq1:  Iter=  4 NonCon=     1 RMS=1.93D-07 Max=1.51D-06
 LinEq1:  Iter=  5 NonCon=     1 RMS=1.68D-08 Max=1.40D-07
 LinEq1:  Iter=  6 NonCon=     0 RMS=1.52D-09 Max=1.11D-08
 Linear equations converged to 3.912D-09 3.912D-08 after     6 iterations.
 Angle between quadratic step and gradient=  46.58 degrees.
     ILin= 1 X=0.000D+00 Y=-1.150869710139D+02 DE= 0.00D+00
     ILin= 2 X=1.000D+00 Y=-1.150870467333D+02 DE=-7.57D-05
     ILin= 3 X=1.414D+00 Y=-1.150870339578D+02 DE=-6.29D-05
     An  expanding polynomial of degree  3 produced  1.0024
 Iteration   7 EE= -115.087046733667     Delta-E=       -0.000075719812 Grad=2.236D-05
 QCNR:  CnvC1=2.24D-10 CnvC2=2.24D-09
 LinEq1:  Iter=  0 NonCon=     1 RMS=3.80D-07 Max=3.30D-06
 LinEq1:  Iter=  1 NonCon=     1 RMS=7.57D-08 Max=6.05D-07
 LinEq1:  Iter=  2 NonCon=     1 RMS=2.50D-08 Max=2.35D-07
 LinEq1:  Iter=  3 NonCon=     1 RMS=4.49D-09 Max=3.33D-08
 LinEq1:  Iter=  4 NonCon=     1 RMS=8.88D-10 Max=4.87D-09
 LinEq1:  Iter=  5 NonCon=     0 RMS=2.18D-10 Max=1.92D-09
 Linear equations converged to 2.236D-10 2.236D-09 after     5 iterations.
 Angle between quadratic step and gradient=  42.95 degrees.
     ILin= 1 X=0.000D+00 Y=-1.150870467337D+02 DE= 0.00D+00
     ILin= 2 X=1.000D+00 Y=-1.150870467340D+02 DE=-3.32D-10
 Iteration   8 EE= -115.087046733999     Delta-E=       -0.000000000332 Grad=3.526D-08
 Error on total polarization charges =  0.00637
 Rotation gradient small -- convergence achieved.
 SCF Done:  E(RHF) =  -115.087046734     a.u. after    8 cycles
            Convg  =    0.3526D-07                    35 Fock formations.
              S**2 =  0.0000                  -V/T =  2.0016
 Leave Link  508 at Sun Dec 29 12:30:22 2019, MaxMem=   91750400 cpu:      11.0
 (Enter /opt/g09gh/gaussian/g09/l801.exe)
 ExpMin= 3.60D-02 ExpMax= 8.59D+03 ExpMxC= 1.30D+03 IAcc=3 IRadAn=         5 AccDes= 0.00D+00
 HarFok:  IExCor=  205 AccDes= 0.00D+00 IRadAn=         5 IDoV=-2
 ScaDFX=  1.000000  1.000000  1.000000  1.000000
 Largest valence mixing into a core orbital is  1.37D-04
 Largest core mixing into a valence orbital is  3.63D-05
 Range of M.O.s used for correlation:     3    94
 NBasis=    94 NAE=     9 NBE=     9 NFC=     2 NFV=     0
 NROrb=     92 NOA=     7 NOB=     7 NVA=    85 NVB=    85

 **** Warning!!: The largest alpha MO coefficient is  0.15661579D+02

 Leave Link  801 at Sun Dec 29 12:30:22 2019, MaxMem=   91750400 cpu:       0.4
 (Enter /opt/g09gh/gaussian/g09/l906.exe)
 FulOut=F Deriv=F AODrv=F NAtomX=     6
   MMem=        1402  MDisk=           7 MDiskD=           7
  W3Min=       58310 MinDsk=      182258 NBas6D=          98
 NBas2D=        4983    NTT=        4851    LW2=     2000000
    MDV=    91690351 MDiskM=       12711 NBas2p=        4983
 Fully in-core method, ICMem=    31042459.
 IMap=   1   2   3   4   5   6   7
 JobTyp=1 Pass  1 fully in-core, NPsUse=  1.
 Compute canonical integrals, IntTyp=   4.
 Symmetry not used in FoFDir.
 MinBra= 0 MaxBra= 2 Meth= 1.
 IRaf=       0 NMat=   1 IRICut=       1 DoRegI=T DoRafI=F ISym2E= 0 JSym2E=0.
 Spin components of T(2) and E(2):
     alpha-alpha T2 =       0.1322374403D-01 E2=     -0.4653191216D-01
     alpha-beta  T2 =       0.8256600424D-01 E2=     -0.2992646711D+00
     beta-beta   T2 =       0.1322374403D-01 E2=     -0.4653191216D-01
 The integrals were generated   1 times.
 ANorm=    0.1053097095D+01
 E2 =    -0.3923284954D+00 EUMP2 =    -0.11547937522944D+03
 Leave Link  906 at Sun Dec 29 12:30:24 2019, MaxMem=   91750400 cpu:       1.5
 (Enter /opt/g09gh/gaussian/g09/l601.exe)
 Copying SCF densities to generalized density rwf, IOpCl= 0 IROHF=0.

 **********************************************************************

            Population analysis using the SCF density.

 **********************************************************************

 Orbital symmetries:
       Occupied  (A) (A) (A) (A) (A) (A) (A) (A) (A)
       Virtual   (A) (A) (A) (A) (A) (A) (A) (A) (A) (A) (A) (A)
                 (A) (A) (A) (A) (A) (A) (A) (A) (A) (A) (A) (A)
                 (A) (A) (A) (A) (A) (A) (A) (A) (A) (A) (A) (A)
                 (A) (A) (A) (A) (A) (A) (A) (A) (A) (A) (A) (A)
                 (A) (A) (A) (A) (A) (A) (A) (A) (A) (A) (A) (A)
                 (A) (A) (A) (A) (A) (A) (A) (A) (A) (A) (A) (A)
                 (A) (A) (A) (A) (A) (A) (A) (A) (A) (A) (A) (A)
                 (A)
 The electronic state is 1-A.
 Alpha  occ. eigenvalues --  -20.56135 -11.27057  -1.35441  -0.92085  -0.68811
 Alpha  occ. eigenvalues --   -0.62200  -0.59206  -0.50491  -0.45401
 Alpha virt. eigenvalues --    0.04438   0.06846   0.07691   0.08024   0.12696
 Alpha virt. eigenvalues --    0.15452   0.15622   0.18627   0.24880   0.27249
 Alpha virt. eigenvalues --    0.28668   0.30367   0.30895   0.33370   0.34645
 Alpha virt. eigenvalues --    0.38946   0.46447   0.56400   0.56841   0.66755
 Alpha virt. eigenvalues --    0.70919   0.72304   0.74949   0.76730   0.78046
 Alpha virt. eigenvalues --    0.78860   0.89972   0.98246   1.05008   1.11344
 Alpha virt. eigenvalues --    1.14596   1.21486   1.21929   1.24448   1.29697
 Alpha virt. eigenvalues --    1.30773   1.33906   1.39392   1.49741   1.53397
 Alpha virt. eigenvalues --    1.54301   1.65591   1.66692   1.68151   1.76604
 Alpha virt. eigenvalues --    1.82589   2.11686   2.25149   2.29456   2.52525
 Alpha virt. eigenvalues --    2.54857   2.88546   2.90853   3.08946   3.19514
 Alpha virt. eigenvalues --    3.49630   3.50697   3.65390   3.66971   3.80360
 Alpha virt. eigenvalues --    3.94145   3.97660   4.01096   4.12474   4.15383
 Alpha virt. eigenvalues --    4.19664   4.31806   4.40740   4.45052   4.45418
 Alpha virt. eigenvalues --    4.47786   4.58922   4.76957   5.43809   5.45117
 Alpha virt. eigenvalues --    5.59749   5.97155   6.46026   7.46262   7.56352
 Alpha virt. eigenvalues --    7.64342   7.71099   8.00528  25.11743  51.63859
          Condensed to atoms (all electrons):
              1          2          3          4          5          6
     1  O    8.281901   0.155698  -0.056577  -0.057095  -0.029234   0.274180
     2  C    0.155698   4.411299   0.439858   0.437253   0.433912  -0.022310
     3  H   -0.056577   0.439858   0.639274  -0.046128  -0.029865   0.005861
     4  H   -0.057095   0.437253  -0.046128   0.646113  -0.030604   0.003989
     5  H   -0.029234   0.433912  -0.029865  -0.030604   0.629960  -0.017055
     6  H    0.274180  -0.022310   0.005861   0.003989  -0.017055   0.467689
 Mulliken atomic charges:
              1
     1  O   -0.568873
     2  C    0.144289
     3  H    0.047578
     4  H    0.046474
     5  H    0.042885
     6  H    0.287647
 Sum of Mulliken atomic charges =   0.00000
 Mulliken charges with hydrogens summed into heavy atoms:
              1
     1  O   -0.281226
     2  C    0.281226
 Sum of Mulliken charges with hydrogens summed into heavy atoms =   0.00000
 Electronic spatial extent (au):  <R**2>=             84.5956
 Charge=              0.0000 electrons
 Dipole moment (field-independent basis, Debye):
    X=              1.2552    Y=              1.9828    Z=             -0.0516  Tot=              2.3473
 Quadrupole moment (field-independent basis, Debye-Ang):
   XX=            -13.1723   YY=            -11.9580   ZZ=            -13.6542
   XY=             -2.4150   XZ=             -0.0086   YZ=             -0.0069
 Traceless Quadrupole moment (field-independent basis, Debye-Ang):
   XX=             -0.2441   YY=              0.9702   ZZ=             -0.7261
   XY=             -2.4150   XZ=             -0.0086   YZ=             -0.0069
 Octapole moment (field-independent basis, Debye-Ang**2):
  XXX=             -3.3930  YYY=              2.5337  ZZZ=              0.3758  XYY=             -1.7604
  XXY=              2.9212  XXZ=             -0.1249  XZZ=              0.2428  YZZ=             -0.1658
  YYZ=             -0.4599  XYZ=              0.1060
 Hexadecapole moment (field-independent basis, Debye-Ang**3):
 XXXX=            -62.5010 YYYY=            -19.3649 ZZZZ=            -19.5220 XXXY=             -4.2490
 XXXZ=             -0.0693 YYYX=             -1.9808 YYYZ=             -0.1194 ZZZX=              0.4104
 ZZZY=              0.0698 XXYY=            -12.6456 XXZZ=            -14.2157 YYZZ=             -6.7964
 XXYZ=              0.0972 YYXZ=             -0.4656 ZZXY=             -1.0628
 N-N= 4.007115638413D+01 E-N=-3.513464441958D+02  KE= 1.149041799143D+02
 Leave Link  601 at Sun Dec 29 12:30:24 2019, MaxMem=   91750400 cpu:       0.1
 (Enter /opt/g09gh/gaussian/g09/l9999.exe)
 1\1\GINC-NODE36\SP\RMP2-FC\6-311++G(2d,2p)\C1H4O1\BDW2292\29-Dec-2019\
 0\\#P MP2/6-311++G(2d,2p) SP SCF=(qc,maxcycle=800) Guess=Indo MaxDisk=
 100GB SCRF=(PCM)\\methanol Rotatable Bond SP Calculation on node36.bme
 .utexas.edu\\0,1\O,0,0.740178,0.036333,0.255684\C,0,-0.680568,-0.01821
 8,0.057994\H,0,-1.043726,0.998832,-0.116598\H,0,-1.135048,-0.469786,0.
 944759\H,0,-0.883439,-0.639983,-0.819892\H,0,1.127515,-0.645187,-0.322
 262\\Version=EM64L-G09RevA.02\State=1-A\HF=-115.0870467\MP2=-115.47937
 52\RMSD=0.000e+00\PG=C01 [X(C1H4O1)]\\@


 DEMOCRATS BUY MOST OF THE BOOKS THAT HAVE BEEN
 BANNED; REPUBLICANS FORM CENSORSHIP COMMITTEES AND
 READ THEM AS A GROUP.
 Job cpu time:  0 days  0 hours  0 minutes 13.6 seconds.
 File lengths (MBytes):  RWF=     12 Int=      0 D2E=      0 Chk=      2 Scr=      1
 Normal termination of Gaussian 09 at Sun Dec 29 12:30:24 2019.
