 Entering Gaussian System, Link 0=g09
 Input=methanol-sp-6-1-2-3-117.com
 Output=methanol-sp-6-1-2-3-117.log
 Initial command:
 /opt/g09gh/gaussian/g09/l1.exe /scratch/bdw2292/Gau-methanol/Gau-41222.inp -scrdir=/scratch/bdw2292/Gau-methanol/
 Entering Link 1 = /opt/g09gh/gaussian/g09/l1.exe PID=     41223.
  
 Copyright (c) 1988,1990,1992,1993,1995,1998,2003,2009, Gaussian, Inc.
                  All Rights Reserved.
  
 This is part of the Gaussian(R) 09 program.  It is based on
 the Gaussian(R) 03 system (copyright 2003, Gaussian, Inc.),
 the Gaussian(R) 98 system (copyright 1998, Gaussian, Inc.),
 the Gaussian(R) 94 system (copyright 1995, Gaussian, Inc.),
 the Gaussian 92(TM) system (copyright 1992, Gaussian, Inc.),
 the Gaussian 90(TM) system (copyright 1990, Gaussian, Inc.),
 the Gaussian 88(TM) system (copyright 1988, Gaussian, Inc.),
 the Gaussian 86(TM) system (copyright 1986, Carnegie Mellon
 University), and the Gaussian 82(TM) system (copyright 1983,
 Carnegie Mellon University). Gaussian is a federally registered
 trademark of Gaussian, Inc.
  
 This software contains proprietary and confidential information,
 including trade secrets, belonging to Gaussian, Inc.
  
 This software is provided under written license and may be
 used, copied, transmitted, or stored only in accord with that
 written license.
  
 The following legend is applicable only to US Government
 contracts under FAR:
  
                    RESTRICTED RIGHTS LEGEND
  
 Use, reproduction and disclosure by the US Government is
 subject to restrictions as set forth in subparagraphs (a)
 and (c) of the Commercial Computer Software - Restricted
 Rights clause in FAR 52.227-19.
  
 Gaussian, Inc.
 340 Quinnipiac St., Bldg. 40, Wallingford CT 06492
  
  
 ---------------------------------------------------------------
 Warning -- This program may not be used in any manner that
 competes with the business of Gaussian, Inc. or will provide
 assistance to any competitor of Gaussian, Inc.  The licensee
 of this program is prohibited from giving any competitor of
 Gaussian, Inc. access to this program.  By using this program,
 the user acknowledges that Gaussian, Inc. is engaged in the
 business of creating and licensing software in the field of
 computational chemistry and represents and warrants to the
 licensee that it is not a competitor of Gaussian, Inc. and that
 it will not use this program in any manner prohibited above.
 ---------------------------------------------------------------
  

 Cite this work as:
 Gaussian 09, Revision A.02,
 M. J. Frisch, G. W. Trucks, H. B. Schlegel, G. E. Scuseria, 
 M. A. Robb, J. R. Cheeseman, G. Scalmani, V. Barone, B. Mennucci, 
 G. A. Petersson, H. Nakatsuji, M. Caricato, X. Li, H. P. Hratchian, 
 A. F. Izmaylov, J. Bloino, G. Zheng, J. L. Sonnenberg, M. Hada, 
 M. Ehara, K. Toyota, R. Fukuda, J. Hasegawa, M. Ishida, T. Nakajima, 
 Y. Honda, O. Kitao, H. Nakai, T. Vreven, J. A. Montgomery, Jr., 
 J. E. Peralta, F. Ogliaro, M. Bearpark, J. J. Heyd, E. Brothers, 
 K. N. Kudin, V. N. Staroverov, R. Kobayashi, J. Normand, 
 K. Raghavachari, A. Rendell, J. C. Burant, S. S. Iyengar, J. Tomasi, 
 M. Cossi, N. Rega, J. M. Millam, M. Klene, J. E. Knox, J. B. Cross, 
 V. Bakken, C. Adamo, J. Jaramillo, R. Gomperts, R. E. Stratmann, 
 O. Yazyev, A. J. Austin, R. Cammi, C. Pomelli, J. W. Ochterski, 
 R. L. Martin, K. Morokuma, V. G. Zakrzewski, G. A. Voth, 
 P. Salvador, J. J. Dannenberg, S. Dapprich, A. D. Daniels, 
 O. Farkas, J. B. Foresman, J. V. Ortiz, J. Cioslowski, 
 and D. J. Fox, Gaussian, Inc., Wallingford CT, 2009.
 
 ******************************************
 Gaussian 09:  EM64L-G09RevA.02 11-Jun-2009
                29-Dec-2019 
 ******************************************
 %RWF=/scratch/bdw2292/Gau-methanol/,100GB
 %Nosave
 %Chk=methanol-sp-6-1-2-3-117.chk
 %Mem=700MB
 %Nproc=1
 Will use up to    1 processors via shared memory.
 ----------------------------------------------------------------------
 #P MP2/6-311++G(2d,2p) SP SCF=(qc,maxcycle=800) Guess=Indo MaxDisk=100
 GB SCRF=(PCM)
 ----------------------------------------------------------------------
 1/38=1/1;
 2/12=2,17=6,18=5,40=1/2;
 3/5=4,6=6,7=1212,11=9,16=1,25=1,30=1,70=2201,72=1/1,2,3;
 4/5=4,11=3/1;
 5/5=2,7=800,8=3,38=5/8;
 8/10=2/1;
 9/16=-3/6;
 6/7=2,8=2,9=2,10=2/1;
 99/5=1,9=1/99;
 Leave Link    1 at Sun Dec 29 12:27:50 2019, MaxMem=   91750400 cpu:       0.0
 (Enter /opt/g09gh/gaussian/g09/l101.exe)
 ---------------------------------------------------------------
 methanol Rotatable Bond SP Calculation on node36.bme.utexas.edu
 ---------------------------------------------------------------
 Symbolic Z-matrix:
 Charge =  0 Multiplicity = 1
 O                     0.73578   0.0029    0.28547 
 C                    -0.68129  -0.03622   0.06009 
 H                    -1.16266  -0.43331   0.95862 
 H                    -0.88615  -0.65701  -0.81733 
 H                    -1.01781   0.9888   -0.12443 
 H                     1.13684  -0.60346  -0.36257 
 
 NAtoms=      6 NQM=      6 NQMF=      0 NMic=      0 NMicF=      0 NTot=      6.
                    Isotopes and Nuclear Properties:
 (Nuclear quadrupole moments (NQMom) in fm**2, nuclear magnetic moments (NMagM)
  in nuclear magnetons)

  Atom         1           2           3           4           5           6
 IAtWgt=          16          12           1           1           1           1
 AtmWgt=  15.9949146  12.0000000   1.0078250   1.0078250   1.0078250   1.0078250
 NucSpn=           0           0           1           1           1           1
 AtZEff=   0.0000000   0.0000000   0.0000000   0.0000000   0.0000000   0.0000000
 NQMom=    0.0000000   0.0000000   0.0000000   0.0000000   0.0000000   0.0000000
 NMagM=    0.0000000   0.0000000   2.7928460   2.7928460   2.7928460   2.7928460
 Leave Link  101 at Sun Dec 29 12:27:50 2019, MaxMem=   91750400 cpu:       0.0
 (Enter /opt/g09gh/gaussian/g09/l202.exe)
                          Input orientation:                          
 ---------------------------------------------------------------------
 Center     Atomic      Atomic             Coordinates (Angstroms)
 Number     Number       Type             X           Y           Z
 ---------------------------------------------------------------------
      1          8           0        0.735784    0.002897    0.285474
      2          6           0       -0.681288   -0.036221    0.060087
      3          1           0       -1.162663   -0.433309    0.958620
      4          1           0       -0.886150   -0.657008   -0.817329
      5          1           0       -1.017805    0.988801   -0.124427
      6          1           0        1.136841   -0.603462   -0.362574
 ---------------------------------------------------------------------
                    Distance matrix (angstroms):
                    1          2          3          4          5
     1  O    0.000000
     2  C    1.435417   0.000000
     3  H    2.060947   1.093966   0.000000
     4  H    2.069376   1.094168   1.811214   0.000000
     5  H    2.053071   1.094513   1.793425   1.790568   0.000000
     6  H    0.973902   1.950897   2.657485   2.074165   2.689705
                    6
     6  H    0.000000
 Stoichiometry    CH4O
 Framework group  C1[X(CH4O)]
 Deg. of freedom    12
 Full point group                 C1      NOp   1
 Largest Abelian subgroup         C1      NOp   1
 Largest concise Abelian subgroup C1      NOp   1
                         Standard orientation:                         
 ---------------------------------------------------------------------
 Center     Atomic      Atomic             Coordinates (Angstroms)
 Number     Number       Type             X           Y           Z
 ---------------------------------------------------------------------
      1          8           0       -0.750285   -0.130015   -0.003758
      2          6           0        0.677201    0.020507    0.003244
      3          1           0        1.068091   -0.439358    0.915654
      4          1           0        0.924138    1.085022   -0.051838
      5          1           0        1.071229   -0.497345   -0.876830
      6          1           0       -1.124384    0.768754    0.023610
 ---------------------------------------------------------------------
 Rotational constants (GHZ):    124.4871176     24.6576298     23.7169229
 Leave Link  202 at Sun Dec 29 12:27:50 2019, MaxMem=   91750400 cpu:       0.0
 (Enter /opt/g09gh/gaussian/g09/l301.exe)
 Standard basis: 6-311++G(2d,2p) (5D, 7F)
 Ernie: Thresh=  0.10000D-02 Tol=  0.10000D-05 Strict=F.
 There are    94 symmetry adapted basis functions of A   symmetry.
 Integral buffers will be    131072 words long.
 Raffenetti 1 integral format.
 Two-electron integral symmetry is turned on.
    94 basis functions,   132 primitive gaussians,    98 cartesian basis functions
     9 alpha electrons        9 beta electrons
       nuclear repulsion energy        40.0705634815 Hartrees.
 IExCor=    0 DFT=F Ex=HF Corr=None ExCW=0 ScaHFX=  1.000000
 ScaDFX=  1.000000  1.000000  1.000000  1.000000 ScalE2=  1.000000  1.000000
 IRadAn=      0 IRanWt=     -1 IRanGd=            0 ICorTp=0
 NAtoms=    6 NActive=    6 NUniq=    6 SFac= 7.50D-01 NAtFMM=   80 NAOKFM=F Big=F
 ------------------------------------------------------------------------------
 Polarizable Continuum Model (PCM)
 =================================
 Model                : PCM.
 Atomic radii         : UFF (Universal Force Field).
 Polarization charges : Total charges.
 Charge compensation  : None.
 Solution method      : Matrix inversion.
 Cavity type          : Scaled VdW (van der Waals Surface) (Alpha=1.100).
 Cavity algorithm     : GePol (No added spheres)
                        Default sphere list used, NSphG=    6.
                        Lebedev-Laikov grids with approx.  5.0 points / Ang**2.
                        Smoothing algorithm: Karplus/York (Gamma=1.0000).
                        Polarization charges: spherical gaussians, with
                                              point-specific exponents (IZeta= 3).
                        Self-potential: point-specific (ISelfS= 7).
                        Self-field    : sphere-specific E.n sum rule (ISelfD= 2).
 Solvent              : Water, Eps=  78.355300 Eps(inf)=   1.777849
 ------------------------------------------------------------------------------
 Spheres list:
 ISph  on   Nord    Re0     Alpha      Xe            Ye            Ze
    1   O      1    1.750   1.100     -0.750285     -0.130015     -0.003758
    2   C      2    1.926   1.100      0.677201      0.020507      0.003244
    3   H      3    1.443   1.100      1.068091     -0.439358      0.915654
    4   H      4    1.443   1.100      0.924138      1.085022     -0.051838
    5   H      5    1.443   1.100      1.071229     -0.497345     -0.876830
    6   H      6    1.443   1.100     -1.124384      0.768754      0.023610
 ------------------------------------------------------------------------------
 GePol: Number of generator spheres                  =       6
 GePol: Total number of spheres                      =       6
 GePol: Number of exposed spheres                    =       6 (100.00%)
 GePol: Number of points                             =     609
 GePol: Average weight of points                     =       0.14
 GePol: Minimum weight of points                     =   0.18D-06
 GePol: Maximum weight of points                     =    0.20322
 GePol: Number of points with low weight             =      25
 GePol: Fraction of low-weight points (<1% of avg)   =       4.11%
 GePol: Cavity surface area                          =     83.805 Ang**2
 GePol: Cavity volume                                =     65.213 Ang**3
 Leave Link  301 at Sun Dec 29 12:27:50 2019, MaxMem=   91750400 cpu:       0.1
 (Enter /opt/g09gh/gaussian/g09/l302.exe)
 NPDir=0 NMtPBC=     1 NCelOv=     1 NCel=       1 NClECP=     1 NCelD=      1
         NCelK=      1 NCelE2=     1 NClLst=     1 CellRange=     0.0.
 One-electron integrals computed using PRISM.
 NBasis=    94 RedAO= T  NBF=    94
 NBsUse=    94 1.00D-06 NBFU=    94
 Leave Link  302 at Sun Dec 29 12:27:50 2019, MaxMem=   91750400 cpu:       0.1
 (Enter /opt/g09gh/gaussian/g09/l303.exe)
 DipDrv:  MaxL=1.
 Leave Link  303 at Sun Dec 29 12:27:50 2019, MaxMem=   91750400 cpu:       0.0
 (Enter /opt/g09gh/gaussian/g09/l401.exe)
 Projected INDO guess.
 Initial guess orbital symmetries:
       Occupied  (A) (A) (A) (A) (A) (A) (A) (A) (A)
       Virtual   (A) (A) (A) (A) (A) (A) (A) (A) (A) (A) (A) (A)
                 (A) (A) (A) (A) (A) (A) (A) (A) (A) (A) (A) (A)
                 (A) (A) (A) (A) (A) (A) (A) (A) (A) (A) (A) (A)
                 (A) (A) (A) (A) (A) (A) (A) (A) (A) (A) (A) (A)
                 (A) (A) (A) (A) (A) (A) (A) (A) (A) (A) (A) (A)
                 (A) (A) (A) (A) (A) (A) (A) (A) (A) (A) (A) (A)
                 (A) (A) (A) (A) (A) (A) (A) (A) (A) (A) (A) (A)
                 (A)
 The electronic state of the initial guess is 1-A.
 Leave Link  401 at Sun Dec 29 12:27:51 2019, MaxMem=   91750400 cpu:       0.1
 (Enter /opt/g09gh/gaussian/g09/l508.exe)
 Direct SCF.
 Tight linear equation convergence will be used.
 RHF wavefunction.
 Quadratic Convergence SCF Method.
 Line search only if initial step raises energy.
 Integral symmetry usage will be decided dynamically.
 ReadGW:  IGet=1 IStart=           2 Next=           2 LGW=           0.
 Keep R1 ints in memory in canonical form, NReq=15228644.
 Symmetry not used in FoFDir.
 MinBra= 0 MaxBra= 2 Meth= 1.
 IRaf=       0 NMat=   1 IRICut=       1 DoRegI=T DoRafI=F ISym2E= 0 JSym2E=0.
 Iteration   1 EE= -114.497274084212                                    Grad=2.171D+00
 Gradient too large for Newton-Raphson -- use scaled steepest descent instead.
     ILin= 1 X=0.000D+00 Y=-1.144972740842D+02 DE= 0.00D+00
     ILin= 2 X=3.000D-01 Y=-1.147748250980D+02 DE=-2.78D-01
     ILin= 3 X=4.243D-01 Y=-1.148633304089D+02 DE=-3.66D-01
     ILin= 4 X=6.000D-01 Y=-1.149616423742D+02 DE=-4.64D-01
     ILin= 5 X=8.485D-01 Y=-1.150463580635D+02 DE=-5.49D-01
     ILin= 6 X=1.200D+00 Y=-1.150561591928D+02 DE=-5.59D-01
     ILin= 7 X=1.697D+00 Y=-1.148477567892D+02 DE=-3.50D-01
     An  expanding polynomial of degree  7 produced  1.0510
 Iteration   2 EE= -115.067832644998     Delta-E=       -0.570558560786 Grad=1.809D-01
 Gradient too large for Newton-Raphson -- use scaled steepest descent instead.
     ILin= 1 X=0.000D+00 Y=-1.150678326450D+02 DE= 0.00D+00
     ILin= 2 X=1.051D+00 Y=-1.150818647902D+02 DE=-1.40D-02
     ILin= 3 X=1.486D+00 Y=-1.150735442850D+02 DE=-5.71D-03
     An  expanding polynomial of degree  3 produced  0.8311
 Iteration   3 EE= -115.082945829532     Delta-E=       -0.015113184534 Grad=6.954D-02
 Gradient too large for Newton-Raphson -- use scaled steepest descent instead.
     ILin= 1 X=0.000D+00 Y=-1.150829458295D+02 DE= 0.00D+00
     ILin= 2 X=8.311D-01 Y=-1.150859064527D+02 DE=-2.96D-03
     ILin= 3 X=1.175D+00 Y=-1.150858770330D+02 DE=-2.93D-03
     An  expanding polynomial of degree  3 produced  0.9895
 Iteration   4 EE= -115.085985018569     Delta-E=       -0.003039189037 Grad=3.710D-02
 Gradient too large for Newton-Raphson -- use scaled steepest descent instead.
     ILin= 1 X=0.000D+00 Y=-1.150859850186D+02 DE= 0.00D+00
     ILin= 2 X=9.895D-01 Y=-1.150867175311D+02 DE=-7.33D-04
     ILin= 3 X=1.399D+00 Y=-1.150864217380D+02 DE=-4.37D-04
     An  expanding polynomial of degree  3 produced  0.8490
 Iteration   5 EE= -115.086738278047     Delta-E=       -0.000753259478 Grad=1.751D-02
 Gradient too large for Newton-Raphson -- use scaled steepest descent instead.
     ILin= 1 X=0.000D+00 Y=-1.150867382780D+02 DE= 0.00D+00
     ILin= 2 X=8.490D-01 Y=-1.150869357583D+02 DE=-1.97D-04
     ILin= 3 X=1.201D+00 Y=-1.150869291035D+02 DE=-1.91D-04
     An  expanding polynomial of degree  3 produced  0.9797
 Iteration   6 EE= -115.086939349990     Delta-E=       -0.000201071943 Grad=9.954D-03
 QCNR:  CnvC1=3.91D-09 CnvC2=3.91D-08
 LinEq1:  Iter=  0 NonCon=     1 RMS=1.90D-04 Max=1.62D-03
 AX will form     1 AO Fock derivatives at one time.
 LinEq1:  Iter=  1 NonCon=     1 RMS=1.11D-04 Max=1.22D-03
 LinEq1:  Iter=  2 NonCon=     1 RMS=4.35D-06 Max=3.10D-05
 LinEq1:  Iter=  3 NonCon=     1 RMS=1.41D-06 Max=9.39D-06
 LinEq1:  Iter=  4 NonCon=     1 RMS=1.93D-07 Max=1.52D-06
 LinEq1:  Iter=  5 NonCon=     1 RMS=1.68D-08 Max=1.42D-07
 LinEq1:  Iter=  6 NonCon=     0 RMS=1.50D-09 Max=1.20D-08
 Linear equations converged to 3.912D-09 3.912D-08 after     6 iterations.
 Angle between quadratic step and gradient=  46.57 degrees.
     ILin= 1 X=0.000D+00 Y=-1.150869393500D+02 DE= 0.00D+00
     ILin= 2 X=1.000D+00 Y=-1.150870150290D+02 DE=-7.57D-05
     ILin= 3 X=1.414D+00 Y=-1.150870022600D+02 DE=-6.29D-05
     An  expanding polynomial of degree  3 produced  1.0024
 Iteration   7 EE= -115.087015029300     Delta-E=       -0.000075679310 Grad=2.234D-05
 QCNR:  CnvC1=2.23D-10 CnvC2=2.23D-09
 LinEq1:  Iter=  0 NonCon=     1 RMS=3.79D-07 Max=3.51D-06
 LinEq1:  Iter=  1 NonCon=     1 RMS=7.56D-08 Max=6.01D-07
 LinEq1:  Iter=  2 NonCon=     1 RMS=2.49D-08 Max=2.33D-07
 LinEq1:  Iter=  3 NonCon=     1 RMS=4.48D-09 Max=3.42D-08
 LinEq1:  Iter=  4 NonCon=     1 RMS=8.89D-10 Max=5.01D-09
 LinEq1:  Iter=  5 NonCon=     0 RMS=2.13D-10 Max=1.94D-09
 Linear equations converged to 2.234D-10 2.234D-09 after     5 iterations.
 Angle between quadratic step and gradient=  42.95 degrees.
     ILin= 1 X=0.000D+00 Y=-1.150870150293D+02 DE= 0.00D+00
     ILin= 2 X=1.000D+00 Y=-1.150870150296D+02 DE=-3.31D-10
 Iteration   8 EE= -115.087015029631     Delta-E=       -0.000000000331 Grad=3.481D-08
 Error on total polarization charges =  0.00639
 Rotation gradient small -- convergence achieved.
 SCF Done:  E(RHF) =  -115.087015030     a.u. after    8 cycles
            Convg  =    0.3481D-07                    35 Fock formations.
              S**2 =  0.0000                  -V/T =  2.0016
 Leave Link  508 at Sun Dec 29 12:28:01 2019, MaxMem=   91750400 cpu:      10.7
 (Enter /opt/g09gh/gaussian/g09/l801.exe)
 ExpMin= 3.60D-02 ExpMax= 8.59D+03 ExpMxC= 1.30D+03 IAcc=3 IRadAn=         5 AccDes= 0.00D+00
 HarFok:  IExCor=  205 AccDes= 0.00D+00 IRadAn=         5 IDoV=-2
 ScaDFX=  1.000000  1.000000  1.000000  1.000000
 Largest valence mixing into a core orbital is  1.37D-04
 Largest core mixing into a valence orbital is  3.63D-05
 Range of M.O.s used for correlation:     3    94
 NBasis=    94 NAE=     9 NBE=     9 NFC=     2 NFV=     0
 NROrb=     92 NOA=     7 NOB=     7 NVA=    85 NVB=    85

 **** Warning!!: The largest alpha MO coefficient is  0.15680552D+02

 Leave Link  801 at Sun Dec 29 12:28:02 2019, MaxMem=   91750400 cpu:       0.4
 (Enter /opt/g09gh/gaussian/g09/l906.exe)
 FulOut=F Deriv=F AODrv=F NAtomX=     6
   MMem=        1402  MDisk=           7 MDiskD=           7
  W3Min=       58310 MinDsk=      182258 NBas6D=          98
 NBas2D=        4983    NTT=        4851    LW2=     2000000
    MDV=    91690323 MDiskM=       12711 NBas2p=        4983
 Fully in-core method, ICMem=    31042459.
 IMap=   1   2   3   4   5   6   7
 JobTyp=1 Pass  1 fully in-core, NPsUse=  1.
 Compute canonical integrals, IntTyp=   4.
 Symmetry not used in FoFDir.
 MinBra= 0 MaxBra= 2 Meth= 1.
 IRaf=       0 NMat=   1 IRICut=       1 DoRegI=T DoRafI=F ISym2E= 0 JSym2E=0.
 Spin components of T(2) and E(2):
     alpha-alpha T2 =       0.1322541298D-01 E2=     -0.4653494900D-01
     alpha-beta  T2 =       0.8257164277D-01 E2=     -0.2992735865D+00
     beta-beta   T2 =       0.1322541298D-01 E2=     -0.4653494900D-01
 The integrals were generated   1 times.
 ANorm=    0.1053101357D+01
 E2 =    -0.3923434845D+00 EUMP2 =    -0.11547935851409D+03
 Leave Link  906 at Sun Dec 29 12:28:04 2019, MaxMem=   91750400 cpu:       1.9
 (Enter /opt/g09gh/gaussian/g09/l601.exe)
 Copying SCF densities to generalized density rwf, IOpCl= 0 IROHF=0.

 **********************************************************************

            Population analysis using the SCF density.

 **********************************************************************

 Orbital symmetries:
       Occupied  (A) (A) (A) (A) (A) (A) (A) (A) (A)
       Virtual   (A) (A) (A) (A) (A) (A) (A) (A) (A) (A) (A) (A)
                 (A) (A) (A) (A) (A) (A) (A) (A) (A) (A) (A) (A)
                 (A) (A) (A) (A) (A) (A) (A) (A) (A) (A) (A) (A)
                 (A) (A) (A) (A) (A) (A) (A) (A) (A) (A) (A) (A)
                 (A) (A) (A) (A) (A) (A) (A) (A) (A) (A) (A) (A)
                 (A) (A) (A) (A) (A) (A) (A) (A) (A) (A) (A) (A)
                 (A) (A) (A) (A) (A) (A) (A) (A) (A) (A) (A) (A)
                 (A)
 The electronic state is 1-A.
 Alpha  occ. eigenvalues --  -20.56140 -11.27050  -1.35445  -0.92096  -0.68849
 Alpha  occ. eigenvalues --   -0.61989  -0.59290  -0.50698  -0.45266
 Alpha virt. eigenvalues --    0.04442   0.06835   0.07732   0.07990   0.12717
 Alpha virt. eigenvalues --    0.15382   0.15683   0.18633   0.24708   0.27289
 Alpha virt. eigenvalues --    0.28661   0.30382   0.30878   0.33392   0.34803
 Alpha virt. eigenvalues --    0.39011   0.46465   0.56347   0.56969   0.66661
 Alpha virt. eigenvalues --    0.70517   0.71940   0.75045   0.76720   0.78185
 Alpha virt. eigenvalues --    0.78849   0.90530   0.98135   1.05115   1.11861
 Alpha virt. eigenvalues --    1.14810   1.21695   1.22129   1.23082   1.29432
 Alpha virt. eigenvalues --    1.30486   1.34634   1.39206   1.49848   1.53237
 Alpha virt. eigenvalues --    1.54371   1.65716   1.66488   1.68186   1.76563
 Alpha virt. eigenvalues --    1.82391   2.11448   2.24295   2.30842   2.52562
 Alpha virt. eigenvalues --    2.55021   2.88906   2.90033   3.08691   3.19258
 Alpha virt. eigenvalues --    3.49588   3.50798   3.65261   3.66747   3.81216
 Alpha virt. eigenvalues --    3.94628   3.97155   4.01272   4.11869   4.15423
 Alpha virt. eigenvalues --    4.19437   4.31947   4.41246   4.44663   4.45049
 Alpha virt. eigenvalues --    4.47682   4.59407   4.76946   5.43542   5.45586
 Alpha virt. eigenvalues --    5.59681   5.97021   6.46263   7.45921   7.56578
 Alpha virt. eigenvalues --    7.64606   7.70933   8.00533  25.11769  51.63862
          Condensed to atoms (all electrons):
              1          2          3          4          5          6
     1  O    8.282535   0.155544  -0.057217  -0.027549  -0.059254   0.274156
     2  C    0.155544   4.410691   0.438547   0.433500   0.439480  -0.021847
     3  H   -0.057217   0.438547   0.645162  -0.028058  -0.049483   0.004888
     4  H   -0.027549   0.433500  -0.028058   0.624127  -0.029692  -0.017264
     5  H   -0.059254   0.439480  -0.049483  -0.029692   0.647576   0.005539
     6  H    0.274156  -0.021847   0.004888  -0.017264   0.005539   0.467329
 Mulliken atomic charges:
              1
     1  O   -0.568216
     2  C    0.144085
     3  H    0.046162
     4  H    0.044936
     5  H    0.045835
     6  H    0.287198
 Sum of Mulliken atomic charges =   0.00000
 Mulliken charges with hydrogens summed into heavy atoms:
              1
     1  O   -0.281018
     2  C    0.281018
 Sum of Mulliken charges with hydrogens summed into heavy atoms =   0.00000
 Electronic spatial extent (au):  <R**2>=             84.6041
 Charge=              0.0000 electrons
 Dipole moment (field-independent basis, Debye):
    X=              1.2451    Y=              1.9828    Z=              0.0511  Tot=              2.3418
 Quadrupole moment (field-independent basis, Debye-Ang):
   XX=            -13.1570   YY=            -11.9065   ZZ=            -13.7121
   XY=             -2.4040   XZ=             -0.0830   YZ=              0.0149
 Traceless Quadrupole moment (field-independent basis, Debye-Ang):
   XX=             -0.2318   YY=              1.0187   ZZ=             -0.7869
   XY=             -2.4040   XZ=             -0.0830   YZ=              0.0149
 Octapole moment (field-independent basis, Debye-Ang**2):
  XXX=             -3.4370  YYY=              2.6799  ZZZ=              0.0912  XYY=             -1.7070
  XXY=              2.9326  XXZ=              0.0725  XZZ=              0.1843  YZZ=             -0.3160
  YYZ=             -0.0529  XYZ=             -0.0893
 Hexadecapole moment (field-independent basis, Debye-Ang**3):
 XXXX=            -62.4827 YYYY=            -19.3428 ZZZZ=            -19.5414 XXXY=             -4.2211
 XXXZ=             -0.1386 YYYX=             -1.7822 YYYZ=             -0.0166 ZZZX=              0.0236
 ZZZY=              0.0025 XXYY=            -12.6129 XXZZ=            -14.2522 YYZZ=             -6.7971
 XXYZ=              0.0389 YYXZ=             -0.1448 ZZXY=             -1.2206
 N-N= 4.007056348153D+01 E-N=-3.513461324695D+02  KE= 1.149048739880D+02
 Leave Link  601 at Sun Dec 29 12:28:04 2019, MaxMem=   91750400 cpu:       0.1
 (Enter /opt/g09gh/gaussian/g09/l9999.exe)
 1\1\GINC-NODE36\SP\RMP2-FC\6-311++G(2d,2p)\C1H4O1\BDW2292\29-Dec-2019\
 0\\#P MP2/6-311++G(2d,2p) SP SCF=(qc,maxcycle=800) Guess=Indo MaxDisk=
 100GB SCRF=(PCM)\\methanol Rotatable Bond SP Calculation on node36.bme
 .utexas.edu\\0,1\O,0,0.735784,0.002897,0.285474\C,0,-0.681288,-0.03622
 1,0.060087\H,0,-1.162663,-0.433309,0.95862\H,0,-0.88615,-0.657008,-0.8
 17329\H,0,-1.017805,0.988801,-0.124427\H,0,1.136841,-0.603462,-0.36257
 4\\Version=EM64L-G09RevA.02\State=1-A\HF=-115.087015\MP2=-115.4793585\
 RMSD=0.000e+00\PG=C01 [X(C1H4O1)]\\@


 I HAVE NOT FAILED, I HAVE ONLY DISCOVERED 10,000
 WAYS THAT DIDN'T WORK.  -- THOMAS A. EDISON
 Job cpu time:  0 days  0 hours  0 minutes 13.5 seconds.
 File lengths (MBytes):  RWF=     12 Int=      0 D2E=      0 Chk=      2 Scr=      1
 Normal termination of Gaussian 09 at Sun Dec 29 12:28:04 2019.
