 Entering Gaussian System, Link 0=g09
 Input=methanol-opt-6-1-2-3-061.com
 Output=methanol-opt-6-1-2-3-061.log
 Initial command:
 /opt/g09gh/gaussian/g09/l1.exe /scratch/bdw2292/Gau-methanol/Gau-40274.inp -scrdir=/scratch/bdw2292/Gau-methanol/
 Entering Link 1 = /opt/g09gh/gaussian/g09/l1.exe PID=     40275.
  
 Copyright (c) 1988,1990,1992,1993,1995,1998,2003,2009, Gaussian, Inc.
                  All Rights Reserved.
  
 This is part of the Gaussian(R) 09 program.  It is based on
 the Gaussian(R) 03 system (copyright 2003, Gaussian, Inc.),
 the Gaussian(R) 98 system (copyright 1998, Gaussian, Inc.),
 the Gaussian(R) 94 system (copyright 1995, Gaussian, Inc.),
 the Gaussian 92(TM) system (copyright 1992, Gaussian, Inc.),
 the Gaussian 90(TM) system (copyright 1990, Gaussian, Inc.),
 the Gaussian 88(TM) system (copyright 1988, Gaussian, Inc.),
 the Gaussian 86(TM) system (copyright 1986, Carnegie Mellon
 University), and the Gaussian 82(TM) system (copyright 1983,
 Carnegie Mellon University). Gaussian is a federally registered
 trademark of Gaussian, Inc.
  
 This software contains proprietary and confidential information,
 including trade secrets, belonging to Gaussian, Inc.
  
 This software is provided under written license and may be
 used, copied, transmitted, or stored only in accord with that
 written license.
  
 The following legend is applicable only to US Government
 contracts under FAR:
  
                    RESTRICTED RIGHTS LEGEND
  
 Use, reproduction and disclosure by the US Government is
 subject to restrictions as set forth in subparagraphs (a)
 and (c) of the Commercial Computer Software - Restricted
 Rights clause in FAR 52.227-19.
  
 Gaussian, Inc.
 340 Quinnipiac St., Bldg. 40, Wallingford CT 06492
  
  
 ---------------------------------------------------------------
 Warning -- This program may not be used in any manner that
 competes with the business of Gaussian, Inc. or will provide
 assistance to any competitor of Gaussian, Inc.  The licensee
 of this program is prohibited from giving any competitor of
 Gaussian, Inc. access to this program.  By using this program,
 the user acknowledges that Gaussian, Inc. is engaged in the
 business of creating and licensing software in the field of
 computational chemistry and represents and warrants to the
 licensee that it is not a competitor of Gaussian, Inc. and that
 it will not use this program in any manner prohibited above.
 ---------------------------------------------------------------
  

 Cite this work as:
 Gaussian 09, Revision A.02,
 M. J. Frisch, G. W. Trucks, H. B. Schlegel, G. E. Scuseria, 
 M. A. Robb, J. R. Cheeseman, G. Scalmani, V. Barone, B. Mennucci, 
 G. A. Petersson, H. Nakatsuji, M. Caricato, X. Li, H. P. Hratchian, 
 A. F. Izmaylov, J. Bloino, G. Zheng, J. L. Sonnenberg, M. Hada, 
 M. Ehara, K. Toyota, R. Fukuda, J. Hasegawa, M. Ishida, T. Nakajima, 
 Y. Honda, O. Kitao, H. Nakai, T. Vreven, J. A. Montgomery, Jr., 
 J. E. Peralta, F. Ogliaro, M. Bearpark, J. J. Heyd, E. Brothers, 
 K. N. Kudin, V. N. Staroverov, R. Kobayashi, J. Normand, 
 K. Raghavachari, A. Rendell, J. C. Burant, S. S. Iyengar, J. Tomasi, 
 M. Cossi, N. Rega, J. M. Millam, M. Klene, J. E. Knox, J. B. Cross, 
 V. Bakken, C. Adamo, J. Jaramillo, R. Gomperts, R. E. Stratmann, 
 O. Yazyev, A. J. Austin, R. Cammi, C. Pomelli, J. W. Ochterski, 
 R. L. Martin, K. Morokuma, V. G. Zakrzewski, G. A. Voth, 
 P. Salvador, J. J. Dannenberg, S. Dapprich, A. D. Daniels, 
 O. Farkas, J. B. Foresman, J. V. Ortiz, J. Cioslowski, 
 and D. J. Fox, Gaussian, Inc., Wallingford CT, 2009.
 
 ******************************************
 Gaussian 09:  EM64L-G09RevA.02 11-Jun-2009
                29-Dec-2019 
 ******************************************
 %RWF=/scratch/bdw2292/Gau-methanol/,100GB
 %Nosave
 %Chk=methanol-opt-6-1-2-3-061.chk
 %Mem=700MB
 %Nproc=1
 Will use up to    1 processors via shared memory.
 -----------------------------------------------
 #P opt=(,maxcycle=400) HF/6-311G* MaxDisk=100GB
 -----------------------------------------------
 1/6=400,18=20,19=15,38=1/1,3;
 2/9=110,12=2,17=6,18=5,40=1/2;
 3/5=4,6=6,7=1,11=9,16=1,25=1,30=1,71=1/1,2,3;
 4//1;
 5/5=2,38=5/2;
 6/7=2,8=2,9=2,10=2,28=1/1;
 7//1,2,3,16;
 1/6=400,18=20,19=15/3(2);
 2/9=110/2;
 99//99;
 2/9=110/2;
 3/5=4,6=6,7=1,11=9,16=1,25=1,30=1,71=1/1,2,3;
 4/5=5,16=3/1;
 5/5=2,38=5/2;
 7//1,2,3,16;
 1/6=400,18=20,19=15/3(-5);
 2/9=110/2;
 6/7=2,8=2,9=2,10=2,19=2,28=1/1;
 99/9=1/99;
 Leave Link    1 at Sun Dec 29 12:24:18 2019, MaxMem=   91750400 cpu:       0.0
 (Enter /opt/g09gh/gaussian/g09/l101.exe)
 -------------------------------------------------------------
 methanol Rotatable Bond Optimization on node36.bme.utexas.edu
 -------------------------------------------------------------
 Symbolic Z-matrix:
 Charge =  0 Multiplicity = 1
 O                     0.74406   0.11642   0.00154 
 C                    -0.68483  -0.0095    0.00042 
 H                    -0.98747  -0.54615   0.9046 
 H                    -0.98671  -0.5386   -0.90845 
 H                    -1.10897   0.99942   0.00444 
 H                     1.09681  -0.79157  -0.0021 
 
 NAtoms=      6 NQM=      6 NQMF=      0 NMic=      0 NMicF=      0 NTot=      6.
                    Isotopes and Nuclear Properties:
 (Nuclear quadrupole moments (NQMom) in fm**2, nuclear magnetic moments (NMagM)
  in nuclear magnetons)

  Atom         1           2           3           4           5           6
 IAtWgt=          16          12           1           1           1           1
 AtmWgt=  15.9949146  12.0000000   1.0078250   1.0078250   1.0078250   1.0078250
 NucSpn=           0           0           1           1           1           1
 AtZEff=   0.0000000   0.0000000   0.0000000   0.0000000   0.0000000   0.0000000
 NQMom=    0.0000000   0.0000000   0.0000000   0.0000000   0.0000000   0.0000000
 NMagM=    0.0000000   0.0000000   2.7928460   2.7928460   2.7928460   2.7928460
 Leave Link  101 at Sun Dec 29 12:24:19 2019, MaxMem=   91750400 cpu:       0.1
 (Enter /opt/g09gh/gaussian/g09/l103.exe)

 GradGradGradGradGradGradGradGradGradGradGradGradGradGradGradGradGradGrad
 Berny optimization.
 Initialization pass.
                           ----------------------------
                           !    Initial Parameters    !
                           ! (Angstroms and Degrees)  !
 --------------------------                            --------------------------
 ! Name  Definition              Value          Derivative Info.                !
 --------------------------------------------------------------------------------
 ! R1    R(1,2)                  1.4344         estimate D2E/DX2                !
 ! R2    R(1,6)                  0.9741         estimate D2E/DX2                !
 ! R3    R(2,3)                  1.0941         estimate D2E/DX2                !
 ! R4    R(2,4)                  1.0941         estimate D2E/DX2                !
 ! R5    R(2,5)                  1.0945         estimate D2E/DX2                !
 ! A1    A(2,1,6)              106.1946         estimate D2E/DX2                !
 ! A2    A(1,2,3)              108.5387         estimate D2E/DX2                !
 ! A3    A(1,2,4)              108.5382         estimate D2E/DX2                !
 ! A4    A(1,2,5)              107.7652         estimate D2E/DX2                !
 ! A5    A(3,2,4)              111.8983         estimate D2E/DX2                !
 ! A6    A(3,2,5)              109.9937         estimate D2E/DX2                !
 ! A7    A(4,2,5)              109.9938         estimate D2E/DX2                !
 ! D1    D(6,1,2,3)             60.9133         estimate D2E/DX2                !
 ! D2    D(6,1,2,4)            -60.9136         estimate D2E/DX2                !
 ! D3    D(6,1,2,5)            179.9999         estimate D2E/DX2                !
 --------------------------------------------------------------------------------
 Trust Radius=3.00D-01 FncErr=1.00D-07 GrdErr=1.00D-07
 Number of steps in this run= 100 maximum allowed number of steps= 100.
 GradGradGradGradGradGradGradGradGradGradGradGradGradGradGradGradGradGrad

 Leave Link  103 at Sun Dec 29 12:24:19 2019, MaxMem=   91750400 cpu:       0.0
 (Enter /opt/g09gh/gaussian/g09/l202.exe)
                          Input orientation:                          
 ---------------------------------------------------------------------
 Center     Atomic      Atomic             Coordinates (Angstroms)
 Number     Number       Type             X           Y           Z
 ---------------------------------------------------------------------
      1          8           0        0.744058    0.116419    0.001535
      2          6           0       -0.684830   -0.009499    0.000421
      3          1           0       -0.987465   -0.546148    0.904602
      4          1           0       -0.986709   -0.538604   -0.908449
      5          1           0       -1.108973    0.999419    0.004444
      6          1           0        1.096810   -0.791573   -0.002096
 ---------------------------------------------------------------------
                    Distance matrix (angstroms):
                    1          2          3          4          5
     1  O    0.000000
     2  C    1.434426   0.000000
     3  H    2.062207   1.094131   0.000000
     4  H    2.062203   1.094133   1.813067   0.000000
     5  H    2.052662   1.094454   1.792715   1.792718   0.000000
     6  H    0.974113   1.945736   2.286162   2.286158   2.841333
                    6
     6  H    0.000000
 Stoichiometry    CH4O
 Framework group  C1[X(CH4O)]
 Deg. of freedom    12
 Full point group                 C1      NOp   1
 Largest Abelian subgroup         C1      NOp   1
 Largest concise Abelian subgroup C1      NOp   1
                         Standard orientation:                         
 ---------------------------------------------------------------------
 Center     Atomic      Atomic             Coordinates (Angstroms)
 Number     Number       Type             X           Y           Z
 ---------------------------------------------------------------------
      1          8           0       -0.749686    0.130586    0.000000
      2          6           0        0.676601   -0.021998    0.000000
      3          1           0        0.968857   -0.560430   -0.906532
      4          1           0        0.968850   -0.560434    0.906534
      5          1           0        1.119512    0.978831    0.000002
      6          1           0       -1.119334   -0.770667   -0.000003
 ---------------------------------------------------------------------
 Rotational constants (GHZ):    124.2764588     24.6735707     23.7979492
 Leave Link  202 at Sun Dec 29 12:24:19 2019, MaxMem=   91750400 cpu:       0.0
 (Enter /opt/g09gh/gaussian/g09/l301.exe)
 Standard basis: 6-311G(d) (5D, 7F)
 Ernie: Thresh=  0.10000D-02 Tol=  0.10000D-05 Strict=F.
 There are    48 symmetry adapted basis functions of A   symmetry.
 Integral buffers will be    131072 words long.
 Raffenetti 1 integral format.
 Two-electron integral symmetry is turned on.
    48 basis functions,    84 primitive gaussians,    50 cartesian basis functions
     9 alpha electrons        9 beta electrons
       nuclear repulsion energy        40.0898992058 Hartrees.
 IExCor=    0 DFT=F Ex=HF Corr=None ExCW=0 ScaHFX=  1.000000
 ScaDFX=  1.000000  1.000000  1.000000  1.000000 ScalE2=  1.000000  1.000000
 IRadAn=      0 IRanWt=     -1 IRanGd=            0 ICorTp=0
 NAtoms=    6 NActive=    6 NUniq=    6 SFac= 7.50D-01 NAtFMM=   80 NAOKFM=F Big=F
 Leave Link  301 at Sun Dec 29 12:24:19 2019, MaxMem=   91750400 cpu:       0.0
 (Enter /opt/g09gh/gaussian/g09/l302.exe)
 NPDir=0 NMtPBC=     1 NCelOv=     1 NCel=       1 NClECP=     1 NCelD=      1
         NCelK=      1 NCelE2=     1 NClLst=     1 CellRange=     0.0.
 One-electron integrals computed using PRISM.
 NBasis=    48 RedAO= T  NBF=    48
 NBsUse=    48 1.00D-06 NBFU=    48
 Leave Link  302 at Sun Dec 29 12:24:19 2019, MaxMem=   91750400 cpu:       0.2
 (Enter /opt/g09gh/gaussian/g09/l303.exe)
 DipDrv:  MaxL=1.
 Leave Link  303 at Sun Dec 29 12:24:19 2019, MaxMem=   91750400 cpu:       0.0
 (Enter /opt/g09gh/gaussian/g09/l401.exe)
 Harris functional with IExCor=  205 diagonalized for initial guess.
 ExpMin= 1.03D-01 ExpMax= 8.59D+03 ExpMxC= 1.30D+03 IAcc=1 IRadAn=         1 AccDes= 0.00D+00
 HarFok:  IExCor=  205 AccDes= 0.00D+00 IRadAn=         1 IDoV= 1
 ScaDFX=  1.000000  1.000000  1.000000  1.000000
 FoFCou: FMM=F IPFlag=           0 FMFlag=      100000 FMFlg1=           0
         NFxFlg=           0 DoJE=T BraDBF=F KetDBF=T FulRan=T
         Omega=  0.000000  0.000000  1.000000  0.000000  0.000000 ICntrl=     500 IOpCl=  0
         NMat0=    1 NMatS0=    1 NMatT0=    0 NMatD0=    1 NMtDS0=    0 NMtDT0=    0
         I1Cent=           4 NGrid=           0.
 Petite list used in FoFCou.
 Harris En= -115.243336037154    
 Initial guess orbital symmetries:
       Occupied  (A) (A) (A) (A) (A) (A) (A) (A) (A)
       Virtual   (A) (A) (A) (A) (A) (A) (A) (A) (A) (A) (A) (A)
                 (A) (A) (A) (A) (A) (A) (A) (A) (A) (A) (A) (A)
                 (A) (A) (A) (A) (A) (A) (A) (A) (A) (A) (A) (A)
                 (A) (A) (A)
 The electronic state of the initial guess is 1-A.
 Leave Link  401 at Sun Dec 29 12:24:19 2019, MaxMem=   91750400 cpu:       0.3
 (Enter /opt/g09gh/gaussian/g09/l502.exe)
 Closed shell SCF:
 Requested convergence on RMS density matrix=1.00D-08 within 128 cycles.
 Requested convergence on MAX density matrix=1.00D-06.
 Requested convergence on             energy=1.00D-06.
 No special actions if energy rises.
 Using DIIS extrapolation, IDIIS=  1040.
 Integral symmetry usage will be decided dynamically.
 Keep R1 ints in memory in canonical form, NReq=1659792.
 IEnd=       26328 IEndB=       26328 NGot=    91750400 MDV=    90929785
 LenX=    90929785 LenY=    90926844
 Symmetry not used in FoFDir.
 MinBra= 0 MaxBra= 2 Meth= 1.
 IRaf=       0 NMat=   1 IRICut=       1 DoRegI=T DoRafI=F ISym2E= 0 JSym2E=0.

 Cycle   1  Pass 1  IDiag  1:
 E= -114.939504336197    
 DIIS: error= 5.87D-02 at cycle   1 NSaved=   1.
 NSaved= 1 IEnMin= 1 EnMin= -114.939504336197     IErMin= 1 ErrMin= 5.87D-02
 ErrMax= 5.87D-02 EMaxC= 1.00D-01 BMatC= 2.52D-01 BMatP= 2.52D-01
 IDIUse=3 WtCom= 4.13D-01 WtEn= 5.87D-01
 Coeff-Com:  0.100D+01
 Coeff-En:   0.100D+01
 Coeff:      0.100D+01
 Gap=     0.576 Goal=   None    Shift=    0.000
 GapD=    0.576 DampG=2.000 DampE=0.500 DampFc=1.0000 IDamp=-1.
 RMSDP=5.97D-03 MaxDP=8.21D-02              OVMax= 1.03D-01

 Cycle   2  Pass 1  IDiag  1:
 E= -115.036216018855     Delta-E=       -0.096711682658 Rises=F Damp=F
 DIIS: error= 2.69D-02 at cycle   2 NSaved=   2.
 NSaved= 2 IEnMin= 2 EnMin= -115.036216018855     IErMin= 2 ErrMin= 2.69D-02
 ErrMax= 2.69D-02 EMaxC= 1.00D-01 BMatC= 3.50D-02 BMatP= 2.52D-01
 IDIUse=3 WtCom= 7.31D-01 WtEn= 2.69D-01
 Coeff-Com:  0.217D+00 0.783D+00
 Coeff-En:   0.000D+00 0.100D+01
 Coeff:      0.159D+00 0.841D+00
 Gap=     0.633 Goal=   None    Shift=    0.000
 RMSDP=2.88D-03 MaxDP=4.57D-02 DE=-9.67D-02 OVMax= 4.12D-02

 Cycle   3  Pass 1  IDiag  1:
 E= -115.057889091236     Delta-E=       -0.021673072380 Rises=F Damp=F
 DIIS: error= 8.33D-03 at cycle   3 NSaved=   3.
 NSaved= 3 IEnMin= 3 EnMin= -115.057889091236     IErMin= 3 ErrMin= 8.33D-03
 ErrMax= 8.33D-03 EMaxC= 1.00D-01 BMatC= 3.78D-03 BMatP= 3.50D-02
 IDIUse=3 WtCom= 9.17D-01 WtEn= 8.33D-02
 Coeff-Com: -0.140D-01 0.223D+00 0.791D+00
 Coeff-En:   0.000D+00 0.000D+00 0.100D+01
 Coeff:     -0.128D-01 0.205D+00 0.808D+00
 Gap=     0.597 Goal=   None    Shift=    0.000
 RMSDP=6.60D-04 MaxDP=1.05D-02 DE=-2.17D-02 OVMax= 1.28D-02

 Cycle   4  Pass 1  IDiag  1:
 E= -115.060291710154     Delta-E=       -0.002402618918 Rises=F Damp=F
 DIIS: error= 1.43D-03 at cycle   4 NSaved=   4.
 NSaved= 4 IEnMin= 4 EnMin= -115.060291710154     IErMin= 4 ErrMin= 1.43D-03
 ErrMax= 1.43D-03 EMaxC= 1.00D-01 BMatC= 9.84D-05 BMatP= 3.78D-03
 IDIUse=3 WtCom= 9.86D-01 WtEn= 1.43D-02
 Coeff-Com: -0.676D-02 0.290D-01 0.200D+00 0.778D+00
 Coeff-En:   0.000D+00 0.000D+00 0.000D+00 0.100D+01
 Coeff:     -0.666D-02 0.286D-01 0.197D+00 0.781D+00
 Gap=     0.597 Goal=   None    Shift=    0.000
 RMSDP=1.33D-04 MaxDP=2.06D-03 DE=-2.40D-03 OVMax= 2.61D-03

 Cycle   5  Pass 1  IDiag  1:
 E= -115.060371522765     Delta-E=       -0.000079812611 Rises=F Damp=F
 DIIS: error= 3.35D-04 at cycle   5 NSaved=   5.
 NSaved= 5 IEnMin= 5 EnMin= -115.060371522765     IErMin= 5 ErrMin= 3.35D-04
 ErrMax= 3.35D-04 EMaxC= 1.00D-01 BMatC= 4.36D-06 BMatP= 9.84D-05
 IDIUse=3 WtCom= 9.97D-01 WtEn= 3.35D-03
 Coeff-Com:  0.124D-02-0.207D-01-0.737D-01-0.160D-01 0.111D+01
 Coeff-En:   0.000D+00 0.000D+00 0.000D+00 0.000D+00 0.100D+01
 Coeff:      0.123D-02-0.206D-01-0.735D-01-0.159D-01 0.111D+01
 Gap=     0.597 Goal=   None    Shift=    0.000
 RMSDP=5.68D-05 MaxDP=7.78D-04 DE=-7.98D-05 OVMax= 8.87D-04

 Cycle   6  Pass 1  IDiag  1:
 E= -115.060378451877     Delta-E=       -0.000006929112 Rises=F Damp=F
 DIIS: error= 5.18D-05 at cycle   6 NSaved=   6.
 NSaved= 6 IEnMin= 6 EnMin= -115.060378451877     IErMin= 6 ErrMin= 5.18D-05
 ErrMax= 5.18D-05 EMaxC= 1.00D-01 BMatC= 1.36D-07 BMatP= 4.36D-06
 IDIUse=1 WtCom= 1.00D+00 WtEn= 0.00D+00
 Coeff-Com:  0.242D-03-0.621D-03-0.381D-02-0.334D-01-0.953D-01 0.113D+01
 Coeff:      0.242D-03-0.621D-03-0.381D-02-0.334D-01-0.953D-01 0.113D+01
 Gap=     0.598 Goal=   None    Shift=    0.000
 RMSDP=1.32D-05 MaxDP=1.21D-04 DE=-6.93D-06 OVMax= 2.51D-04

 Cycle   7  Pass 1  IDiag  1:
 E= -115.060378766053     Delta-E=       -0.000000314176 Rises=F Damp=F
 DIIS: error= 1.11D-05 at cycle   7 NSaved=   7.
 NSaved= 7 IEnMin= 7 EnMin= -115.060378766053     IErMin= 7 ErrMin= 1.11D-05
 ErrMax= 1.11D-05 EMaxC= 1.00D-01 BMatC= 6.01D-09 BMatP= 1.36D-07
 IDIUse=1 WtCom= 1.00D+00 WtEn= 0.00D+00
 Coeff-Com: -0.109D-03 0.957D-03 0.410D-02 0.815D-02-0.165D-01-0.303D+00
 Coeff-Com:  0.131D+01
 Coeff:     -0.109D-03 0.957D-03 0.410D-02 0.815D-02-0.165D-01-0.303D+00
 Coeff:      0.131D+01
 Gap=     0.598 Goal=   None    Shift=    0.000
 RMSDP=3.07D-06 MaxDP=3.79D-05 DE=-3.14D-07 OVMax= 7.87D-05

 Cycle   8  Pass 1  IDiag  1:
 E= -115.060378782202     Delta-E=       -0.000000016149 Rises=F Damp=F
 DIIS: error= 1.84D-06 at cycle   8 NSaved=   8.
 NSaved= 8 IEnMin= 8 EnMin= -115.060378782202     IErMin= 8 ErrMin= 1.84D-06
 ErrMax= 1.84D-06 EMaxC= 1.00D-01 BMatC= 2.21D-10 BMatP= 6.01D-09
 IDIUse=1 WtCom= 1.00D+00 WtEn= 0.00D+00
 Coeff-Com:  0.177D-04-0.210D-03-0.944D-03-0.131D-02 0.639D-02 0.589D-01
 Coeff-Com: -0.410D+00 0.135D+01
 Coeff:      0.177D-04-0.210D-03-0.944D-03-0.131D-02 0.639D-02 0.589D-01
 Coeff:     -0.410D+00 0.135D+01
 Gap=     0.598 Goal=   None    Shift=    0.000
 RMSDP=7.01D-07 MaxDP=6.25D-06 DE=-1.61D-08 OVMax= 1.72D-05

 Cycle   9  Pass 1  IDiag  1:
 E= -115.060378782846     Delta-E=       -0.000000000645 Rises=F Damp=F
 DIIS: error= 5.79D-07 at cycle   9 NSaved=   9.
 NSaved= 9 IEnMin= 9 EnMin= -115.060378782846     IErMin= 9 ErrMin= 5.79D-07
 ErrMax= 5.79D-07 EMaxC= 1.00D-01 BMatC= 6.96D-12 BMatP= 2.21D-10
 IDIUse=1 WtCom= 1.00D+00 WtEn= 0.00D+00
 Coeff-Com: -0.202D-05 0.359D-04 0.177D-03 0.782D-04-0.194D-02-0.496D-02
 Coeff-Com:  0.746D-01-0.387D+00 0.132D+01
 Coeff:     -0.202D-05 0.359D-04 0.177D-03 0.782D-04-0.194D-02-0.496D-02
 Coeff:      0.746D-01-0.387D+00 0.132D+01
 Gap=     0.598 Goal=   None    Shift=    0.000
 RMSDP=1.02D-07 MaxDP=6.58D-07 DE=-6.45D-10 OVMax= 2.34D-06

 Cycle  10  Pass 1  IDiag  1:
 E= -115.060378782864     Delta-E=       -0.000000000018 Rises=F Damp=F
 DIIS: error= 1.05D-07 at cycle  10 NSaved=  10.
 NSaved=10 IEnMin=10 EnMin= -115.060378782864     IErMin=10 ErrMin= 1.05D-07
 ErrMax= 1.05D-07 EMaxC= 1.00D-01 BMatC= 2.57D-13 BMatP= 6.96D-12
 IDIUse=1 WtCom= 1.00D+00 WtEn= 0.00D+00
 Coeff-Com: -0.124D-07-0.289D-05-0.192D-04 0.258D-04 0.292D-03-0.276D-03
 Coeff-Com: -0.770D-02 0.600D-01-0.350D+00 0.130D+01
 Coeff:     -0.124D-07-0.289D-05-0.192D-04 0.258D-04 0.292D-03-0.276D-03
 Coeff:     -0.770D-02 0.600D-01-0.350D+00 0.130D+01
 Gap=     0.598 Goal=   None    Shift=    0.000
 RMSDP=1.81D-08 MaxDP=1.79D-07 DE=-1.80D-11 OVMax= 4.14D-07

 Cycle  11  Pass 1  IDiag  1:
 E= -115.060378782865     Delta-E=       -0.000000000001 Rises=F Damp=F
 DIIS: error= 1.84D-08 at cycle  11 NSaved=  11.
 NSaved=11 IEnMin=11 EnMin= -115.060378782865     IErMin=11 ErrMin= 1.84D-08
 ErrMax= 1.84D-08 EMaxC= 1.00D-01 BMatC= 9.75D-15 BMatP= 2.57D-13
 IDIUse=1 WtCom= 1.00D+00 WtEn= 0.00D+00
 Coeff-Com:  0.926D-07-0.157D-05-0.688D-05-0.620D-05 0.662D-04 0.273D-03
 Coeff-Com: -0.307D-02 0.151D-01-0.344D-01-0.146D+00 0.117D+01
 Coeff:      0.926D-07-0.157D-05-0.688D-05-0.620D-05 0.662D-04 0.273D-03
 Coeff:     -0.307D-02 0.151D-01-0.344D-01-0.146D+00 0.117D+01
 Gap=     0.598 Goal=   None    Shift=    0.000
 RMSDP=4.33D-09 MaxDP=3.10D-08 DE=-7.39D-13 OVMax= 6.82D-08

 SCF Done:  E(RHF) =  -115.060378783     A.U. after   11 cycles
             Convg  =    0.4331D-08             -V/T =  2.0005
 KE= 1.149981290160D+02 PE=-3.514751074541D+02 EE= 8.132670044943D+01
 Leave Link  502 at Sun Dec 29 12:24:19 2019, MaxMem=   91750400 cpu:       0.1
 (Enter /opt/g09gh/gaussian/g09/l601.exe)
 Copying SCF densities to generalized density rwf, IOpCl= 0 IROHF=0.

 **********************************************************************

            Population analysis using the SCF density.

 **********************************************************************

 Orbital symmetries:
       Occupied  (A) (A) (A) (A) (A) (A) (A) (A) (A)
       Virtual   (A) (A) (A) (A) (A) (A) (A) (A) (A) (A) (A) (A)
                 (A) (A) (A) (A) (A) (A) (A) (A) (A) (A) (A) (A)
                 (A) (A) (A) (A) (A) (A) (A) (A) (A) (A) (A) (A)
                 (A) (A) (A)
 The electronic state is 1-A.
 Alpha  occ. eigenvalues --  -20.54370 -11.27170  -1.34492  -0.92011  -0.67835
 Alpha  occ. eigenvalues --   -0.62154  -0.58614  -0.49889  -0.44644
 Alpha virt. eigenvalues --    0.15116   0.18746   0.22335   0.23218   0.33301
 Alpha virt. eigenvalues --    0.45974   0.47862   0.57549   0.67641   0.72522
 Alpha virt. eigenvalues --    0.78927   0.79707   0.94762   1.07128   1.07608
 Alpha virt. eigenvalues --    1.17852   1.54842   1.58816   1.69780   1.76971
 Alpha virt. eigenvalues --    1.77142   1.96675   2.37905   2.63243   2.69372
 Alpha virt. eigenvalues --    2.70912   3.16983   3.18652   3.35236   3.36574
 Alpha virt. eigenvalues --    3.52265   3.58193   3.73731   4.25545   5.37840
 Alpha virt. eigenvalues --    5.51942   5.86344  24.53582  51.51973
          Condensed to atoms (all electrons):
              1          2          3          4          5          6
     1  O    8.279505   0.205241  -0.034888  -0.034889  -0.024840   0.266374
     2  C    0.205241   5.002367   0.391806   0.391806   0.387542  -0.050670
     3  H   -0.034888   0.391806   0.525824  -0.034109  -0.030452  -0.004473
     4  H   -0.034889   0.391806  -0.034109   0.525824  -0.030451  -0.004472
     5  H   -0.024840   0.387542  -0.030452  -0.030451   0.479918   0.007054
     6  H    0.266374  -0.050670  -0.004473  -0.004472   0.007054   0.385402
 Mulliken atomic charges:
              1
     1  O   -0.656503
     2  C   -0.328092
     3  H    0.186291
     4  H    0.186291
     5  H    0.211229
     6  H    0.400784
 Sum of Mulliken atomic charges =   0.00000
 Mulliken charges with hydrogens summed into heavy atoms:
              1
     1  O   -0.255719
     2  C    0.255719
 Sum of Mulliken charges with hydrogens summed into heavy atoms =   0.00000
 Electronic spatial extent (au):  <R**2>=             84.3382
 Charge=              0.0000 electrons
 Dipole moment (field-independent basis, Debye):
    X=              1.0894    Y=             -1.7557    Z=              0.0000  Tot=              2.0663
 Quadrupole moment (field-independent basis, Debye-Ang):
   XX=            -12.9823   YY=            -11.9994   ZZ=            -13.5756
   XY=              2.4993   XZ=              0.0000   YZ=              0.0000
 Traceless Quadrupole moment (field-independent basis, Debye-Ang):
   XX=             -0.1299   YY=              0.8530   ZZ=             -0.7232
   XY=              2.4993   XZ=              0.0000   YZ=              0.0000
 Octapole moment (field-independent basis, Debye-Ang**2):
  XXX=             -4.0293  YYY=             -0.6795  ZZZ=              0.0000  XYY=             -1.7447
  XXY=             -2.3355  XXZ=              0.0000  XZZ=             -0.3697  YZZ=             -0.7759
  YYZ=              0.0000  XYZ=              0.0000
 Hexadecapole moment (field-independent basis, Debye-Ang**3):
 XXXX=            -60.8205 YYYY=            -19.4442 ZZZZ=            -19.0672 XXXY=              4.1473
 XXXZ=              0.0000 YYYX=              3.1186 YYYZ=              0.0000 ZZZX=              0.0000
 ZZZY=              0.0000 XXYY=            -12.1109 XXZZ=            -13.8891 YYZZ=             -6.5196
 XXYZ=              0.0000 YYXZ=              0.0000 ZZXY=             -0.1411
 N-N= 4.008989920580D+01 E-N=-3.514751075001D+02  KE= 1.149981290160D+02
 No NMR shielding tensors so no spin-rotation constants.
 Leave Link  601 at Sun Dec 29 12:24:19 2019, MaxMem=   91750400 cpu:       0.1
 (Enter /opt/g09gh/gaussian/g09/l701.exe)
 Compute integral first derivatives.
 ... and contract with generalized density number  0.
 Leave Link  701 at Sun Dec 29 12:24:20 2019, MaxMem=   91750400 cpu:       0.1
 (Enter /opt/g09gh/gaussian/g09/l702.exe)
 L702 exits ... SP integral derivatives will be done elsewhere.
 Leave Link  702 at Sun Dec 29 12:24:20 2019, MaxMem=   91750400 cpu:       0.0
 (Enter /opt/g09gh/gaussian/g09/l703.exe)
 Compute integral first derivatives, UseDBF=F ICtDFT=           0.
 Integral derivatives from FoFDir, PRISM(SPDF).
 Calling FoFJK, ICntrl=      2127 FMM=F ISym2X=0 I1Cent= 0 IOpClX= 0 NMat=1 NMatS=1 NMatT=0.
 FoFCou: FMM=F IPFlag=           0 FMFlag=      100000 FMFlg1=         800
         NFxFlg=           0 DoJE=F BraDBF=F KetDBF=F FulRan=T
         Omega=  0.000000  0.000000  1.000000  0.000000  0.000000 ICntrl=    2127 IOpCl=  0
         NMat0=    1 NMatS0=    1 NMatT0=    0 NMatD0=    1 NMtDS0=    0 NMtDT0=    0
         I1Cent=           0 NGrid=           0.
 Symmetry not used in FoFCou.
 Leave Link  703 at Sun Dec 29 12:24:20 2019, MaxMem=   91750400 cpu:       0.3
 (Enter /opt/g09gh/gaussian/g09/l716.exe)
 Dipole        = 4.28606313D-01-6.90764870D-01-3.28151360D-06
 ***** Axes restored to original set *****
 -------------------------------------------------------------------
 Center     Atomic                   Forces (Hartrees/Bohr)
 Number     Number              X              Y              Z
 -------------------------------------------------------------------
      1        8          -0.008764997   -0.034784052   -0.000147781
      2        6           0.023726381    0.003642409    0.000023601
      3        1          -0.005321832    0.002979083   -0.008173047
      4        1          -0.005329198    0.002911673    0.008194163
      5        1           0.004400479   -0.010118537   -0.000040459
      6        1          -0.008710833    0.035369425    0.000143522
 -------------------------------------------------------------------
 Cartesian Forces:  Max     0.035369425 RMS     0.013983423
 Leave Link  716 at Sun Dec 29 12:24:20 2019, MaxMem=   91750400 cpu:       0.0
 (Enter /opt/g09gh/gaussian/g09/l103.exe)

 GradGradGradGradGradGradGradGradGradGradGradGradGradGradGradGradGradGrad
 Berny optimization.
 Internal  Forces:  Max     0.036123562 RMS     0.012118852
 Search for a local minimum.
 Step number   1 out of a maximum of  100
 All quantities printed in internal units (Hartrees-Bohrs-Radians)
 RMS Force = .12119D-01 SwitMx=.10000D-02 MixMth= 1
 Mixed Optimization -- RFO/linear search
 Second derivative matrix not updated -- first step.
 The second derivative matrix:
                          R1        R2        R3        R4        R5
           R1           0.40360
           R2           0.00000   0.52545
           R3           0.00000   0.00000   0.34340
           R4           0.00000   0.00000   0.00000   0.34339
           R5           0.00000   0.00000   0.00000   0.00000   0.34303
           A1           0.00000   0.00000   0.00000   0.00000   0.00000
           A2           0.00000   0.00000   0.00000   0.00000   0.00000
           A3           0.00000   0.00000   0.00000   0.00000   0.00000
           A4           0.00000   0.00000   0.00000   0.00000   0.00000
           A5           0.00000   0.00000   0.00000   0.00000   0.00000
           A6           0.00000   0.00000   0.00000   0.00000   0.00000
           A7           0.00000   0.00000   0.00000   0.00000   0.00000
           D1           0.00000   0.00000   0.00000   0.00000   0.00000
           D2           0.00000   0.00000   0.00000   0.00000   0.00000
           D3           0.00000   0.00000   0.00000   0.00000   0.00000
                          A1        A2        A3        A4        A5
           A1           0.16000
           A2           0.00000   0.16000
           A3           0.00000   0.00000   0.16000
           A4           0.00000   0.00000   0.00000   0.16000
           A5           0.00000   0.00000   0.00000   0.00000   0.16000
           A6           0.00000   0.00000   0.00000   0.00000   0.00000
           A7           0.00000   0.00000   0.00000   0.00000   0.00000
           D1           0.00000   0.00000   0.00000   0.00000   0.00000
           D2           0.00000   0.00000   0.00000   0.00000   0.00000
           D3           0.00000   0.00000   0.00000   0.00000   0.00000
                          A6        A7        D1        D2        D3
           A6           0.16000
           A7           0.00000   0.16000
           D1           0.00000   0.00000   0.01236
           D2           0.00000   0.00000   0.00000   0.01236
           D3           0.00000   0.00000   0.00000   0.00000   0.01236
     Eigenvalues ---    0.01236   0.10451   0.10611   0.16000   0.16000
     Eigenvalues ---    0.16000   0.16000   0.34303   0.34339   0.34340
     Eigenvalues ---    0.40360   0.525451000.000001000.000001000.00000
 RFO step:  Lambda=-6.13639620D-03 EMin= 1.23639239D-02
 Linear search not attempted -- first point.
 Iteration  1 RMS(Cart)=  0.05028651 RMS(Int)=  0.00211396
 Iteration  2 RMS(Cart)=  0.00206363 RMS(Int)=  0.00082026
 Iteration  3 RMS(Cart)=  0.00000296 RMS(Int)=  0.00082026
 Iteration  4 RMS(Cart)=  0.00000000 RMS(Int)=  0.00082026
 Variable       Old X    -DE/DX   Delta X   Delta X   Delta X     New X
                                 (Linear)    (Quad)   (Total)
    R1        2.71067  -0.01736   0.00000  -0.04236  -0.04236   2.66831
    R2        1.84081  -0.03612   0.00000  -0.06795  -0.06795   1.77285
    R3        2.06761  -0.00674   0.00000  -0.01929  -0.01929   2.04832
    R4        2.06761  -0.00674   0.00000  -0.01930  -0.01930   2.04832
    R5        2.06822  -0.01103   0.00000  -0.03160  -0.03160   2.03662
    A1        1.85345   0.00863   0.00000   0.05195   0.05195   1.90540
    A2        1.89436   0.01000   0.00000   0.06143   0.06039   1.95475
    A3        1.89435   0.01000   0.00000   0.06144   0.06040   1.95475
    A4        1.88086  -0.00391   0.00000  -0.02602  -0.02595   1.85491
    A5        1.95299  -0.00785   0.00000  -0.04226  -0.04414   1.90886
    A6        1.91975  -0.00385   0.00000  -0.02579  -0.02572   1.89403
    A7        1.91975  -0.00385   0.00000  -0.02579  -0.02572   1.89403
    D1        1.06314   0.00126   0.00000   0.01136   0.01285   1.07599
    D2       -1.06314  -0.00126   0.00000  -0.01136  -0.01285  -1.07599
    D3        3.14159   0.00000   0.00000   0.00000   0.00000   3.14159
         Item               Value     Threshold  Converged?
 Maximum Force            0.036124     0.000450     NO 
 RMS     Force            0.012119     0.000300     NO 
 Maximum Displacement     0.083749     0.001800     NO 
 RMS     Displacement     0.049539     0.001200     NO 
 Predicted change in Energy=-3.141688D-03
 GradGradGradGradGradGradGradGradGradGradGradGradGradGradGradGradGradGrad

 Leave Link  103 at Sun Dec 29 12:24:20 2019, MaxMem=   91750400 cpu:       0.0
 (Enter /opt/g09gh/gaussian/g09/l202.exe)
                          Input orientation:                          
 ---------------------------------------------------------------------
 Center     Atomic      Atomic             Coordinates (Angstroms)
 Number     Number       Type             X           Y           Z
 ---------------------------------------------------------------------
      1          8           0        0.737530    0.104617    0.001485
      2          6           0       -0.668464   -0.025567    0.000359
      3          1           0       -1.029126   -0.541884    0.882531
      4          1           0       -1.028394   -0.534522   -0.886378
      5          1           0       -1.064655    0.976692    0.004367
      6          1           0        1.126001   -0.749321   -0.001907
 ---------------------------------------------------------------------
                    Distance matrix (angstroms):
                    1          2          3          4          5
     1  O    0.000000
     2  C    1.412009   0.000000
     3  H    2.077326   1.083922   0.000000
     4  H    2.077327   1.083922   1.768925   0.000000
     5  H    2.002098   1.077732   1.754568   1.754568   0.000000
     6  H    0.938154   1.934924   2.338768   2.338771   2.788931
                    6
     6  H    0.000000
 Stoichiometry    CH4O
 Framework group  C1[X(CH4O)]
 Deg. of freedom    12
 Full point group                 C1      NOp   1
 Largest Abelian subgroup         C1      NOp   1
 Largest concise Abelian subgroup C1      NOp   1
                         Standard orientation:                         
 ---------------------------------------------------------------------
 Center     Atomic      Atomic             Coordinates (Angstroms)
 Number     Number       Type             X           Y           Z
 ---------------------------------------------------------------------
      1          8           0       -0.742748    0.118365    0.000000
      2          6           0        0.662423   -0.020432    0.000000
      3          1           0        1.019571   -0.535271   -0.884462
      4          1           0        1.019574   -0.535268    0.884463
      5          1           0        1.064745    0.979390   -0.000002
      6          1           0       -1.136442   -0.733185    0.000000
 ---------------------------------------------------------------------
 Rotational constants (GHZ):    131.6643415     25.1182061     24.2914196
 Leave Link  202 at Sun Dec 29 12:24:20 2019, MaxMem=   91750400 cpu:       0.0
 (Enter /opt/g09gh/gaussian/g09/l301.exe)
 Standard basis: 6-311G(d) (5D, 7F)
 Ernie: Thresh=  0.10000D-02 Tol=  0.10000D-05 Strict=F.
 There are    48 symmetry adapted basis functions of A   symmetry.
 Integral buffers will be    131072 words long.
 Raffenetti 1 integral format.
 Two-electron integral symmetry is turned on.
    48 basis functions,    84 primitive gaussians,    50 cartesian basis functions
     9 alpha electrons        9 beta electrons
       nuclear repulsion energy        40.6818056805 Hartrees.
 IExCor=    0 DFT=F Ex=HF Corr=None ExCW=0 ScaHFX=  1.000000
 ScaDFX=  1.000000  1.000000  1.000000  1.000000 ScalE2=  1.000000  1.000000
 IRadAn=      0 IRanWt=     -1 IRanGd=            0 ICorTp=0
 NAtoms=    6 NActive=    6 NUniq=    6 SFac= 7.50D-01 NAtFMM=   80 NAOKFM=F Big=F
 Leave Link  301 at Sun Dec 29 12:24:20 2019, MaxMem=   91750400 cpu:       0.1
 (Enter /opt/g09gh/gaussian/g09/l302.exe)
 NPDir=0 NMtPBC=     1 NCelOv=     1 NCel=       1 NClECP=     1 NCelD=      1
         NCelK=      1 NCelE2=     1 NClLst=     1 CellRange=     0.0.
 One-electron integrals computed using PRISM.
 NBasis=    48 RedAO= T  NBF=    48
 NBsUse=    48 1.00D-06 NBFU=    48
 Leave Link  302 at Sun Dec 29 12:24:20 2019, MaxMem=   91750400 cpu:       0.1
 (Enter /opt/g09gh/gaussian/g09/l303.exe)
 DipDrv:  MaxL=1.
 Leave Link  303 at Sun Dec 29 12:24:20 2019, MaxMem=   91750400 cpu:       0.0
 (Enter /opt/g09gh/gaussian/g09/l401.exe)
 Initial guess read from the read-write file.
 B after Tr=     0.000000    0.000000    0.000000
         Rot=    1.000000    0.000000    0.000000    0.000000 Ang=   0.00 deg.
 Guess basis will be translated and rotated to current coordinates.
 Initial guess orbital symmetries:
       Occupied  (A) (A) (A) (A) (A) (A) (A) (A) (A)
       Virtual   (A) (A) (A) (A) (A) (A) (A) (A) (A) (A) (A) (A)
                 (A) (A) (A) (A) (A) (A) (A) (A) (A) (A) (A) (A)
                 (A) (A) (A) (A) (A) (A) (A) (A) (A) (A) (A) (A)
                 (A) (A) (A)
 The electronic state of the initial guess is 1-A.
 Generating alternative initial guess.
 Harris functional with IExCor=  205 diagonalized for initial guess.
 ExpMin= 1.03D-01 ExpMax= 8.59D+03 ExpMxC= 1.30D+03 IAcc=1 IRadAn=         1 AccDes= 0.00D+00
 HarFok:  IExCor=  205 AccDes= 0.00D+00 IRadAn=         1 IDoV= 1
 ScaDFX=  1.000000  1.000000  1.000000  1.000000
 FoFCou: FMM=F IPFlag=           0 FMFlag=      100000 FMFlg1=           0
         NFxFlg=           0 DoJE=T BraDBF=F KetDBF=T FulRan=T
         Omega=  0.000000  0.000000  1.000000  0.000000  0.000000 ICntrl=     500 IOpCl=  0
         NMat0=    1 NMatS0=    1 NMatT0=    0 NMatD0=    1 NMtDS0=    0 NMtDT0=    0
         I1Cent=           4 NGrid=           0.
 Petite list used in FoFCou.
 Harris En= -115.248297311985    
 Leave Link  401 at Sun Dec 29 12:24:21 2019, MaxMem=   91750400 cpu:       0.3
 (Enter /opt/g09gh/gaussian/g09/l502.exe)
 Closed shell SCF:
 Requested convergence on RMS density matrix=1.00D-08 within 128 cycles.
 Requested convergence on MAX density matrix=1.00D-06.
 Requested convergence on             energy=1.00D-06.
 No special actions if energy rises.
 Using DIIS extrapolation, IDIIS=  1040.
 Integral symmetry usage will be decided dynamically.
 Keep R1 ints in memory in canonical form, NReq=1659792.
 IEnd=       26328 IEndB=       26328 NGot=    91750400 MDV=    90929785
 LenX=    90929785 LenY=    90926844
 Symmetry not used in FoFDir.
 MinBra= 0 MaxBra= 2 Meth= 1.
 IRaf=       0 NMat=   1 IRICut=       1 DoRegI=T DoRafI=F ISym2E= 0 JSym2E=0.

 Cycle   1  Pass 1  IDiag  1:
 E= -115.061780335552    
 DIIS: error= 5.34D-03 at cycle   1 NSaved=   1.
 NSaved= 1 IEnMin= 1 EnMin= -115.061780335552     IErMin= 1 ErrMin= 5.34D-03
 ErrMax= 5.34D-03 EMaxC= 1.00D-01 BMatC= 1.45D-03 BMatP= 1.45D-03
 IDIUse=3 WtCom= 9.47D-01 WtEn= 5.34D-02
 Coeff-Com:  0.100D+01
 Coeff-En:   0.100D+01
 Coeff:      0.100D+01
 Gap=     0.609 Goal=   None    Shift=    0.000
 GapD=    0.609 DampG=2.000 DampE=1.000 DampFc=2.0000 IDamp=-1.
 RMSDP=5.59D-04 MaxDP=6.71D-03              OVMax= 1.15D-02

 Cycle   2  Pass 1  IDiag  1:
 E= -115.063350845700     Delta-E=       -0.001570510147 Rises=F Damp=F
 DIIS: error= 1.74D-03 at cycle   2 NSaved=   2.
 NSaved= 2 IEnMin= 2 EnMin= -115.063350845700     IErMin= 2 ErrMin= 1.74D-03
 ErrMax= 1.74D-03 EMaxC= 1.00D-01 BMatC= 1.36D-04 BMatP= 1.45D-03
 IDIUse=3 WtCom= 9.83D-01 WtEn= 1.74D-02
 Coeff-Com: -0.466D-03 0.100D+01
 Coeff-En:   0.000D+00 0.100D+01
 Coeff:     -0.458D-03 0.100D+01
 Gap=     0.600 Goal=   None    Shift=    0.000
 RMSDP=2.08D-04 MaxDP=3.37D-03 DE=-1.57D-03 OVMax= 3.79D-03

 Cycle   3  Pass 1  IDiag  1:
 E= -115.063505295735     Delta-E=       -0.000154450036 Rises=F Damp=F
 DIIS: error= 1.03D-03 at cycle   3 NSaved=   3.
 NSaved= 3 IEnMin= 3 EnMin= -115.063505295735     IErMin= 3 ErrMin= 1.03D-03
 ErrMax= 1.03D-03 EMaxC= 1.00D-01 BMatC= 2.80D-05 BMatP= 1.36D-04
 IDIUse=3 WtCom= 9.90D-01 WtEn= 1.03D-02
 Coeff-Com: -0.865D-01 0.237D+00 0.850D+00
 Coeff-En:   0.000D+00 0.000D+00 0.100D+01
 Coeff:     -0.856D-01 0.234D+00 0.851D+00
 Gap=     0.602 Goal=   None    Shift=    0.000
 RMSDP=8.49D-05 MaxDP=1.16D-03 DE=-1.54D-04 OVMax= 1.85D-03

 Cycle   4  Pass 1  IDiag  1:
 E= -115.063535988221     Delta-E=       -0.000030692486 Rises=F Damp=F
 DIIS: error= 2.20D-04 at cycle   4 NSaved=   4.
 NSaved= 4 IEnMin= 4 EnMin= -115.063535988221     IErMin= 4 ErrMin= 2.20D-04
 ErrMax= 2.20D-04 EMaxC= 1.00D-01 BMatC= 1.59D-06 BMatP= 2.80D-05
 IDIUse=3 WtCom= 9.98D-01 WtEn= 2.20D-03
 Coeff-Com: -0.169D-02-0.827D-01 0.126D-01 0.107D+01
 Coeff-En:   0.000D+00 0.000D+00 0.000D+00 0.100D+01
 Coeff:     -0.169D-02-0.826D-01 0.125D-01 0.107D+01
 Gap=     0.602 Goal=   None    Shift=    0.000
 RMSDP=3.39D-05 MaxDP=3.29D-04 DE=-3.07D-05 OVMax= 7.59D-04

 Cycle   5  Pass 1  IDiag  1:
 E= -115.063538861830     Delta-E=       -0.000002873608 Rises=F Damp=F
 DIIS: error= 4.33D-05 at cycle   5 NSaved=   5.
 NSaved= 5 IEnMin= 5 EnMin= -115.063538861830     IErMin= 5 ErrMin= 4.33D-05
 ErrMax= 4.33D-05 EMaxC= 1.00D-01 BMatC= 9.70D-08 BMatP= 1.59D-06
 IDIUse=1 WtCom= 1.00D+00 WtEn= 0.00D+00
 Coeff-Com:  0.410D-02-0.179D-01-0.480D-01 0.614D-01 0.100D+01
 Coeff:      0.410D-02-0.179D-01-0.480D-01 0.614D-01 0.100D+01
 Gap=     0.602 Goal=   None    Shift=    0.000
 RMSDP=9.13D-06 MaxDP=7.77D-05 DE=-2.87D-06 OVMax= 2.01D-04

 Cycle   6  Pass 1  IDiag  1:
 E= -115.063539042921     Delta-E=       -0.000000181092 Rises=F Damp=F
 DIIS: error= 1.43D-05 at cycle   6 NSaved=   6.
 NSaved= 6 IEnMin= 6 EnMin= -115.063539042921     IErMin= 6 ErrMin= 1.43D-05
 ErrMax= 1.43D-05 EMaxC= 1.00D-01 BMatC= 7.76D-09 BMatP= 9.70D-08
 IDIUse=1 WtCom= 1.00D+00 WtEn= 0.00D+00
 Coeff-Com:  0.276D-03 0.532D-02-0.289D-02-0.842D-01 0.666D-01 0.101D+01
 Coeff:      0.276D-03 0.532D-02-0.289D-02-0.842D-01 0.666D-01 0.101D+01
 Gap=     0.602 Goal=   None    Shift=    0.000
 RMSDP=2.88D-06 MaxDP=2.38D-05 DE=-1.81D-07 OVMax= 6.96D-05

 Cycle   7  Pass 1  IDiag  1:
 E= -115.063539058146     Delta-E=       -0.000000015224 Rises=F Damp=F
 DIIS: error= 2.49D-06 at cycle   7 NSaved=   7.
 NSaved= 7 IEnMin= 7 EnMin= -115.063539058146     IErMin= 7 ErrMin= 2.49D-06
 ErrMax= 2.49D-06 EMaxC= 1.00D-01 BMatC= 4.41D-10 BMatP= 7.76D-09
 IDIUse=1 WtCom= 1.00D+00 WtEn= 0.00D+00
 Coeff-Com: -0.366D-03 0.753D-03 0.422D-02 0.383D-02-0.787D-01-0.129D+00
 Coeff-Com:  0.120D+01
 Coeff:     -0.366D-03 0.753D-03 0.422D-02 0.383D-02-0.787D-01-0.129D+00
 Coeff:      0.120D+01
 Gap=     0.602 Goal=   None    Shift=    0.000
 RMSDP=8.08D-07 MaxDP=5.92D-06 DE=-1.52D-08 OVMax= 1.81D-05

 Cycle   8  Pass 1  IDiag  1:
 E= -115.063539059068     Delta-E=       -0.000000000923 Rises=F Damp=F
 DIIS: error= 5.13D-07 at cycle   8 NSaved=   8.
 NSaved= 8 IEnMin= 8 EnMin= -115.063539059068     IErMin= 8 ErrMin= 5.13D-07
 ErrMax= 5.13D-07 EMaxC= 1.00D-01 BMatC= 1.11D-11 BMatP= 4.41D-10
 IDIUse=1 WtCom= 1.00D+00 WtEn= 0.00D+00
 Coeff-Com:  0.443D-04-0.177D-03-0.633D-03 0.119D-02 0.123D-01 0.750D-02
 Coeff-Com: -0.254D+00 0.123D+01
 Coeff:      0.443D-04-0.177D-03-0.633D-03 0.119D-02 0.123D-01 0.750D-02
 Coeff:     -0.254D+00 0.123D+01
 Gap=     0.602 Goal=   None    Shift=    0.000
 RMSDP=1.27D-07 MaxDP=7.09D-07 DE=-9.23D-10 OVMax= 2.67D-06

 Cycle   9  Pass 1  IDiag  1:
 E= -115.063539059096     Delta-E=       -0.000000000028 Rises=F Damp=F
 DIIS: error= 1.74D-07 at cycle   9 NSaved=   9.
 NSaved= 9 IEnMin= 9 EnMin= -115.063539059096     IErMin= 9 ErrMin= 1.74D-07
 ErrMax= 1.74D-07 EMaxC= 1.00D-01 BMatC= 5.62D-13 BMatP= 1.11D-11
 IDIUse=1 WtCom= 1.00D+00 WtEn= 0.00D+00
 Coeff-Com: -0.205D-06 0.282D-04 0.260D-04-0.586D-03-0.637D-03 0.399D-02
 Coeff-Com:  0.239D-01-0.360D+00 0.133D+01
 Coeff:     -0.205D-06 0.282D-04 0.260D-04-0.586D-03-0.637D-03 0.399D-02
 Coeff:      0.239D-01-0.360D+00 0.133D+01
 Gap=     0.602 Goal=   None    Shift=    0.000
 RMSDP=3.12D-08 MaxDP=2.18D-07 DE=-2.76D-11 OVMax= 6.47D-07

 Cycle  10  Pass 1  IDiag  1:
 E= -115.063539059098     Delta-E=       -0.000000000002 Rises=F Damp=F
 DIIS: error= 2.22D-08 at cycle  10 NSaved=  10.
 NSaved=10 IEnMin=10 EnMin= -115.063539059098     IErMin=10 ErrMin= 2.22D-08
 ErrMax= 2.22D-08 EMaxC= 1.00D-01 BMatC= 1.51D-14 BMatP= 5.62D-13
 IDIUse=1 WtCom= 1.00D+00 WtEn= 0.00D+00
 Coeff-Com: -0.889D-06-0.456D-05 0.147D-04 0.122D-03-0.254D-03-0.147D-02
 Coeff-Com:  0.410D-02 0.363D-01-0.288D+00 0.125D+01
 Coeff:     -0.889D-06-0.456D-05 0.147D-04 0.122D-03-0.254D-03-0.147D-02
 Coeff:      0.410D-02 0.363D-01-0.288D+00 0.125D+01
 Gap=     0.602 Goal=   None    Shift=    0.000
 RMSDP=4.47D-09 MaxDP=2.94D-08 DE=-1.59D-12 OVMax= 9.39D-08

 SCF Done:  E(RHF) =  -115.063539059     A.U. after   10 cycles
             Convg  =    0.4472D-08             -V/T =  1.9992
 KE= 1.151510624121D+02 PE=-3.527372077776D+02 EE= 8.184080062594D+01
 Leave Link  502 at Sun Dec 29 12:24:21 2019, MaxMem=   91750400 cpu:       0.1
 (Enter /opt/g09gh/gaussian/g09/l701.exe)
 Compute integral first derivatives.
 ... and contract with generalized density number  0.
 Leave Link  701 at Sun Dec 29 12:24:21 2019, MaxMem=   91750400 cpu:       0.1
 (Enter /opt/g09gh/gaussian/g09/l702.exe)
 L702 exits ... SP integral derivatives will be done elsewhere.
 Leave Link  702 at Sun Dec 29 12:24:21 2019, MaxMem=   91750400 cpu:       0.0
 (Enter /opt/g09gh/gaussian/g09/l703.exe)
 Compute integral first derivatives, UseDBF=F ICtDFT=           0.
 Integral derivatives from FoFDir, PRISM(SPDF).
 Calling FoFJK, ICntrl=      2127 FMM=F ISym2X=0 I1Cent= 0 IOpClX= 0 NMat=1 NMatS=1 NMatT=0.
 FoFCou: FMM=F IPFlag=           0 FMFlag=      100000 FMFlg1=         800
         NFxFlg=           0 DoJE=F BraDBF=F KetDBF=F FulRan=T
         Omega=  0.000000  0.000000  1.000000  0.000000  0.000000 ICntrl=    2127 IOpCl=  0
         NMat0=    1 NMatS0=    1 NMatT0=    0 NMatD0=    1 NMtDS0=    0 NMtDT0=    0
         I1Cent=           0 NGrid=           0.
 Symmetry not used in FoFCou.
 Leave Link  703 at Sun Dec 29 12:24:21 2019, MaxMem=   91750400 cpu:       0.3
 (Enter /opt/g09gh/gaussian/g09/l716.exe)
 Dipole        = 3.78753056D-01-6.75011970D-01-2.48778885D-07
 ***** Axes restored to original set *****
 -------------------------------------------------------------------
 Center     Atomic                   Forces (Hartrees/Bohr)
 Number     Number              X              Y              Z
 -------------------------------------------------------------------
      1        8          -0.010417197   -0.002926328   -0.000016673
      2        6           0.010639410    0.005285223    0.000026708
      3        1          -0.000023674   -0.001484755    0.001162142
      4        1          -0.000022458   -0.001475032   -0.001174562
      5        1          -0.001945495    0.001183798    0.000004089
      6        1           0.001769415   -0.000582906   -0.000001705
 -------------------------------------------------------------------
 Cartesian Forces:  Max     0.010639410 RMS     0.003901434
 Leave Link  716 at Sun Dec 29 12:24:21 2019, MaxMem=   91750400 cpu:       0.0
 (Enter /opt/g09gh/gaussian/g09/l103.exe)

 GradGradGradGradGradGradGradGradGradGradGradGradGradGradGradGradGradGrad
 Berny optimization.
 Using GEDIIS/GDIIS optimizer.
 Internal  Forces:  Max     0.008934506 RMS     0.002703830
 Search for a local minimum.
 Step number   2 out of a maximum of  100
 All quantities printed in internal units (Hartrees-Bohrs-Radians)
 RMS Force = .27038D-02 SwitMx=.10000D-02 MixMth= 1
 Mixed Optimization -- RFO/linear search
 Update second derivatives using D2CorX and points    1    2
 DE= -3.16D-03 DEPred=-3.14D-03 R= 1.01D+00
 SS=  1.41D+00  RLast= 1.50D-01 DXNew= 5.0454D-01 4.4925D-01
 Trust test= 1.01D+00 RLast= 1.50D-01 DXMaxT set to 4.49D-01
 The second derivative matrix:
                          R1        R2        R3        R4        R5
           R1           0.36643
           R2          -0.05016   0.54264
           R3          -0.00727   0.01223   0.34770
           R4          -0.00727   0.01223   0.00430   0.34769
           R5          -0.01314   0.01445   0.00579   0.00579   0.35059
           A1           0.01514   0.01140   0.00061   0.00061   0.00193
           A2           0.01208  -0.01130  -0.00480  -0.00480  -0.00620
           A3           0.01208  -0.01130  -0.00480  -0.00480  -0.00620
           A4          -0.00251   0.01676   0.00474   0.00474   0.00675
           A5          -0.00976   0.00412   0.00258   0.00258   0.00311
           A6          -0.00637  -0.00065   0.00082   0.00082   0.00076
           A7          -0.00637  -0.00065   0.00082   0.00082   0.00076
           D1          -0.00285  -0.01371  -0.00312  -0.00312  -0.00475
           D2           0.00285   0.01370   0.00312   0.00312   0.00475
           D3           0.00000   0.00000   0.00000   0.00000   0.00000
                          A1        A2        A3        A4        A5
           A1           0.15479
           A2          -0.00198   0.16505
           A3          -0.00198   0.00505   0.16505
           A4          -0.00112  -0.00573  -0.00574   0.16461
           A5           0.00213  -0.00245  -0.00245   0.00345   0.16096
           A6           0.00175  -0.00052  -0.00052   0.00146  -0.00005
           A7           0.00175  -0.00052  -0.00052   0.00146  -0.00005
           D1           0.00221   0.00413   0.00413  -0.00253  -0.00276
           D2          -0.00221  -0.00413  -0.00413   0.00253   0.00276
           D3           0.00000   0.00000   0.00000   0.00000   0.00000
                          A6        A7        D1        D2        D3
           A6           0.15965
           A7          -0.00035   0.15965
           D1          -0.00141  -0.00141   0.01329
           D2           0.00141   0.00141  -0.00093   0.01329
           D3           0.00000   0.00000   0.00000   0.00000   0.01236
 Use linear search instead of GDIIS.
     Eigenvalues ---    0.01236   0.10038   0.10526   0.14977   0.16000
     Eigenvalues ---    0.16000   0.17359   0.34200   0.34339   0.34705
     Eigenvalues ---    0.36746   0.562231000.000001000.000001000.00000
 RFO step:  Lambda=-3.77494736D-04 EMin= 1.23639239D-02
 Quartic linear search produced a step of  0.00980.
 Iteration  1 RMS(Cart)=  0.00850473 RMS(Int)=  0.00007541
 Iteration  2 RMS(Cart)=  0.00008325 RMS(Int)=  0.00004036
 Iteration  3 RMS(Cart)=  0.00000000 RMS(Int)=  0.00004036
 Variable       Old X    -DE/DX   Delta X   Delta X   Delta X     New X
                                 (Linear)    (Quad)   (Total)
    R1        2.66831  -0.00893  -0.00042  -0.02457  -0.02499   2.64332
    R2        1.77285   0.00126  -0.00067  -0.00121  -0.00187   1.77098
    R3        2.04832   0.00166  -0.00019   0.00385   0.00366   2.05198
    R4        2.04832   0.00166  -0.00019   0.00385   0.00366   2.05198
    R5        2.03662   0.00182  -0.00031   0.00366   0.00335   2.03996
    A1        1.90540   0.00243   0.00051   0.01799   0.01850   1.92390
    A2        1.95475  -0.00120   0.00059  -0.00598  -0.00545   1.94930
    A3        1.95475  -0.00120   0.00059  -0.00598  -0.00545   1.94930
    A4        1.85491   0.00283  -0.00025   0.01935   0.01907   1.87398
    A5        1.90886  -0.00034  -0.00043  -0.00948  -0.01001   1.89885
    A6        1.89403   0.00003  -0.00025   0.00170   0.00142   1.89545
    A7        1.89403   0.00003  -0.00025   0.00170   0.00142   1.89545
    D1        1.07599  -0.00112   0.00013  -0.01070  -0.01052   1.06547
    D2       -1.07599   0.00112  -0.00013   0.01070   0.01052  -1.06547
    D3        3.14159   0.00000   0.00000   0.00000   0.00000   3.14159
         Item               Value     Threshold  Converged?
 Maximum Force            0.008935     0.000450     NO 
 RMS     Force            0.002704     0.000300     NO 
 Maximum Displacement     0.015070     0.001800     NO 
 RMS     Displacement     0.008487     0.001200     NO 
 Predicted change in Energy=-1.893237D-04
 GradGradGradGradGradGradGradGradGradGradGradGradGradGradGradGradGradGrad

 Leave Link  103 at Sun Dec 29 12:24:21 2019, MaxMem=   91750400 cpu:       0.0
 (Enter /opt/g09gh/gaussian/g09/l202.exe)
                          Input orientation:                          
 ---------------------------------------------------------------------
 Center     Atomic      Atomic             Coordinates (Angstroms)
 Number     Number       Type             X           Y           Z
 ---------------------------------------------------------------------
      1          8           0        0.729556    0.097962    0.001453
      2          6           0       -0.664335   -0.018974    0.000389
      3          1           0       -1.023722   -0.542928    0.880958
      4          1           0       -1.022990   -0.535579   -0.884809
      5          1           0       -1.071632    0.980736    0.004381
      6          1           0        1.126015   -0.751204   -0.001915
 ---------------------------------------------------------------------
                    Distance matrix (angstroms):
                    1          2          3          4          5
     1  O    0.000000
     2  C    1.398787   0.000000
     3  H    2.063553   1.085859   0.000000
     4  H    2.063553   1.085859   1.765783   0.000000
     5  H    2.005885   1.079503   1.758476   1.758475   0.000000
     6  H    0.937163   1.934300   2.333284   2.333284   2.798090
                    6
     6  H    0.000000
 Stoichiometry    CH4O
 Framework group  C1[X(CH4O)]
 Deg. of freedom    12
 Full point group                 C1      NOp   1
 Largest Abelian subgroup         C1      NOp   1
 Largest concise Abelian subgroup C1      NOp   1
                         Standard orientation:                         
 ---------------------------------------------------------------------
 Center     Atomic      Atomic             Coordinates (Angstroms)
 Number     Number       Type             X           Y           Z
 ---------------------------------------------------------------------
      1          8           0       -0.735625    0.119655    0.000000
      2          6           0        0.656225   -0.019485    0.000000
      3          1           0        1.006909   -0.545427   -0.882890
      4          1           0        1.006908   -0.545424    0.882892
      5          1           0        1.079403    0.973615   -0.000002
      6          1           0       -1.145567   -0.723092    0.000000
 ---------------------------------------------------------------------
 Rotational constants (GHZ):    131.8767883     25.4581137     24.6031738
 Leave Link  202 at Sun Dec 29 12:24:22 2019, MaxMem=   91750400 cpu:       0.0
 (Enter /opt/g09gh/gaussian/g09/l301.exe)
 Standard basis: 6-311G(d) (5D, 7F)
 Ernie: Thresh=  0.10000D-02 Tol=  0.10000D-05 Strict=F.
 There are    48 symmetry adapted basis functions of A   symmetry.
 Integral buffers will be    131072 words long.
 Raffenetti 1 integral format.
 Two-electron integral symmetry is turned on.
    48 basis functions,    84 primitive gaussians,    50 cartesian basis functions
     9 alpha electrons        9 beta electrons
       nuclear repulsion energy        40.8647098921 Hartrees.
 IExCor=    0 DFT=F Ex=HF Corr=None ExCW=0 ScaHFX=  1.000000
 ScaDFX=  1.000000  1.000000  1.000000  1.000000 ScalE2=  1.000000  1.000000
 IRadAn=      0 IRanWt=     -1 IRanGd=            0 ICorTp=0
 NAtoms=    6 NActive=    6 NUniq=    6 SFac= 7.50D-01 NAtFMM=   80 NAOKFM=F Big=F
 Leave Link  301 at Sun Dec 29 12:24:22 2019, MaxMem=   91750400 cpu:       0.0
 (Enter /opt/g09gh/gaussian/g09/l302.exe)
 NPDir=0 NMtPBC=     1 NCelOv=     1 NCel=       1 NClECP=     1 NCelD=      1
         NCelK=      1 NCelE2=     1 NClLst=     1 CellRange=     0.0.
 One-electron integrals computed using PRISM.
 NBasis=    48 RedAO= T  NBF=    48
 NBsUse=    48 1.00D-06 NBFU=    48
 Leave Link  302 at Sun Dec 29 12:24:22 2019, MaxMem=   91750400 cpu:       0.2
 (Enter /opt/g09gh/gaussian/g09/l303.exe)
 DipDrv:  MaxL=1.
 Leave Link  303 at Sun Dec 29 12:24:22 2019, MaxMem=   91750400 cpu:       0.0
 (Enter /opt/g09gh/gaussian/g09/l401.exe)
 Initial guess read from the read-write file.
 B after Tr=     0.000000    0.000000    0.000000
         Rot=    1.000000    0.000000    0.000000    0.000000 Ang=   0.00 deg.
 Guess basis will be translated and rotated to current coordinates.
 Initial guess orbital symmetries:
       Occupied  (A) (A) (A) (A) (A) (A) (A) (A) (A)
       Virtual   (A) (A) (A) (A) (A) (A) (A) (A) (A) (A) (A) (A)
                 (A) (A) (A) (A) (A) (A) (A) (A) (A) (A) (A) (A)
                 (A) (A) (A) (A) (A) (A) (A) (A) (A) (A) (A) (A)
                 (A) (A) (A)
 The electronic state of the initial guess is 1-A.
 Leave Link  401 at Sun Dec 29 12:24:22 2019, MaxMem=   91750400 cpu:       0.1
 (Enter /opt/g09gh/gaussian/g09/l502.exe)
 Closed shell SCF:
 Requested convergence on RMS density matrix=1.00D-08 within 128 cycles.
 Requested convergence on MAX density matrix=1.00D-06.
 Requested convergence on             energy=1.00D-06.
 No special actions if energy rises.
 Using DIIS extrapolation, IDIIS=  1040.
 Integral symmetry usage will be decided dynamically.
 Keep R1 ints in memory in canonical form, NReq=1659792.
 IEnd=       26328 IEndB=       26328 NGot=    91750400 MDV=    90929785
 LenX=    90929785 LenY=    90926844
 Symmetry not used in FoFDir.
 MinBra= 0 MaxBra= 2 Meth= 1.
 IRaf=       0 NMat=   1 IRICut=       1 DoRegI=T DoRafI=F ISym2E= 0 JSym2E=0.

 Cycle   1  Pass 1  IDiag  1:
 E= -115.063549374596    
 DIIS: error= 1.58D-03 at cycle   1 NSaved=   1.
 NSaved= 1 IEnMin= 1 EnMin= -115.063549374596     IErMin= 1 ErrMin= 1.58D-03
 ErrMax= 1.58D-03 EMaxC= 1.00D-01 BMatC= 1.35D-04 BMatP= 1.35D-04
 IDIUse=3 WtCom= 9.84D-01 WtEn= 1.58D-02
 Coeff-Com:  0.100D+01
 Coeff-En:   0.100D+01
 Coeff:      0.100D+01
 Gap=     0.600 Goal=   None    Shift=    0.000
 GapD=    0.600 DampG=2.000 DampE=1.000 DampFc=2.0000 IDamp=-1.
 RMSDP=1.80D-04 MaxDP=1.56D-03              OVMax= 3.06D-03

 Cycle   2  Pass 1  IDiag  1:
 E= -115.063699206878     Delta-E=       -0.000149832281 Rises=F Damp=F
 DIIS: error= 4.20D-04 at cycle   2 NSaved=   2.
 NSaved= 2 IEnMin= 2 EnMin= -115.063699206878     IErMin= 2 ErrMin= 4.20D-04
 ErrMax= 4.20D-04 EMaxC= 1.00D-01 BMatC= 7.75D-06 BMatP= 1.35D-04
 IDIUse=3 WtCom= 9.96D-01 WtEn= 4.20D-03
 Coeff-Com: -0.193D+00 0.119D+01
 Coeff-En:   0.000D+00 0.100D+01
 Coeff:     -0.192D+00 0.119D+01
 Gap=     0.599 Goal=   None    Shift=    0.000
 RMSDP=6.77D-05 MaxDP=6.54D-04 DE=-1.50D-04 OVMax= 1.19D-03

 Cycle   3  Pass 1  IDiag  1:
 E= -115.063711834127     Delta-E=       -0.000012627250 Rises=F Damp=F
 DIIS: error= 1.09D-04 at cycle   3 NSaved=   3.
 NSaved= 3 IEnMin= 3 EnMin= -115.063711834127     IErMin= 3 ErrMin= 1.09D-04
 ErrMax= 1.09D-04 EMaxC= 1.00D-01 BMatC= 6.94D-07 BMatP= 7.75D-06
 IDIUse=3 WtCom= 9.99D-01 WtEn= 1.09D-03
 Coeff-Com: -0.594D-01 0.196D+00 0.864D+00
 Coeff-En:   0.000D+00 0.000D+00 0.100D+01
 Coeff:     -0.594D-01 0.195D+00 0.864D+00
 Gap=     0.600 Goal=   None    Shift=    0.000
 RMSDP=1.83D-05 MaxDP=2.69D-04 DE=-1.26D-05 OVMax= 4.11D-04

 Cycle   4  Pass 1  IDiag  1:
 E= -115.063712689674     Delta-E=       -0.000000855547 Rises=F Damp=F
 DIIS: error= 5.04D-05 at cycle   4 NSaved=   4.
 NSaved= 4 IEnMin= 4 EnMin= -115.063712689674     IErMin= 4 ErrMin= 5.04D-05
 ErrMax= 5.04D-05 EMaxC= 1.00D-01 BMatC= 1.05D-07 BMatP= 6.94D-07
 IDIUse=1 WtCom= 1.00D+00 WtEn= 0.00D+00
 Coeff-Com:  0.167D-01-0.130D+00 0.147D+00 0.966D+00
 Coeff:      0.167D-01-0.130D+00 0.147D+00 0.966D+00
 Gap=     0.600 Goal=   None    Shift=    0.000
 RMSDP=8.53D-06 MaxDP=1.04D-04 DE=-8.56D-07 OVMax= 1.99D-04

 Cycle   5  Pass 1  IDiag  1:
 E= -115.063712845592     Delta-E=       -0.000000155918 Rises=F Damp=F
 DIIS: error= 1.04D-05 at cycle   5 NSaved=   5.
 NSaved= 5 IEnMin= 5 EnMin= -115.063712845592     IErMin= 5 ErrMin= 1.04D-05
 ErrMax= 1.04D-05 EMaxC= 1.00D-01 BMatC= 3.99D-09 BMatP= 1.05D-07
 IDIUse=1 WtCom= 1.00D+00 WtEn= 0.00D+00
 Coeff-Com:  0.954D-04 0.133D-01-0.736D-01-0.209D+00 0.127D+01
 Coeff:      0.954D-04 0.133D-01-0.736D-01-0.209D+00 0.127D+01
 Gap=     0.600 Goal=   None    Shift=    0.000
 RMSDP=3.09D-06 MaxDP=2.86D-05 DE=-1.56D-07 OVMax= 8.74D-05

 Cycle   6  Pass 1  IDiag  1:
 E= -115.063712858495     Delta-E=       -0.000000012903 Rises=F Damp=F
 DIIS: error= 2.27D-06 at cycle   6 NSaved=   6.
 NSaved= 6 IEnMin= 6 EnMin= -115.063712858495     IErMin= 6 ErrMin= 2.27D-06
 ErrMax= 2.27D-06 EMaxC= 1.00D-01 BMatC= 2.40D-10 BMatP= 3.99D-09
 IDIUse=1 WtCom= 1.00D+00 WtEn= 0.00D+00
 Coeff-Com: -0.100D-02 0.754D-02-0.610D-02-0.580D-01-0.471D-01 0.110D+01
 Coeff:     -0.100D-02 0.754D-02-0.610D-02-0.580D-01-0.471D-01 0.110D+01
 Gap=     0.600 Goal=   None    Shift=    0.000
 RMSDP=6.49D-07 MaxDP=5.48D-06 DE=-1.29D-08 OVMax= 1.84D-05

 Cycle   7  Pass 1  IDiag  1:
 E= -115.063712859119     Delta-E=       -0.000000000624 Rises=F Damp=F
 DIIS: error= 6.15D-07 at cycle   7 NSaved=   7.
 NSaved= 7 IEnMin= 7 EnMin= -115.063712859119     IErMin= 7 ErrMin= 6.15D-07
 ErrMax= 6.15D-07 EMaxC= 1.00D-01 BMatC= 1.67D-11 BMatP= 2.40D-10
 IDIUse=1 WtCom= 1.00D+00 WtEn= 0.00D+00
 Coeff-Com: -0.577D-04-0.343D-03 0.463D-02 0.987D-02-0.907D-01 0.103D+00
 Coeff-Com:  0.974D+00
 Coeff:     -0.577D-04-0.343D-03 0.463D-02 0.987D-02-0.907D-01 0.103D+00
 Coeff:      0.974D+00
 Gap=     0.600 Goal=   None    Shift=    0.000
 RMSDP=1.16D-07 MaxDP=9.03D-07 DE=-6.24D-10 OVMax= 2.48D-06

 Cycle   8  Pass 1  IDiag  1:
 E= -115.063712859145     Delta-E=       -0.000000000027 Rises=F Damp=F
 DIIS: error= 1.22D-07 at cycle   8 NSaved=   8.
 NSaved= 8 IEnMin= 8 EnMin= -115.063712859145     IErMin= 8 ErrMin= 1.22D-07
 ErrMax= 1.22D-07 EMaxC= 1.00D-01 BMatC= 7.02D-13 BMatP= 1.67D-11
 IDIUse=1 WtCom= 1.00D+00 WtEn= 0.00D+00
 Coeff-Com:  0.544D-04-0.439D-03 0.472D-03 0.359D-02 0.428D-03-0.593D-01
 Coeff-Com: -0.826D-02 0.106D+01
 Coeff:      0.544D-04-0.439D-03 0.472D-03 0.359D-02 0.428D-03-0.593D-01
 Coeff:     -0.826D-02 0.106D+01
 Gap=     0.600 Goal=   None    Shift=    0.000
 RMSDP=2.75D-08 MaxDP=1.67D-07 DE=-2.67D-11 OVMax= 4.53D-07

 Cycle   9  Pass 1  IDiag  1:
 E= -115.063712859147     Delta-E=       -0.000000000001 Rises=F Damp=F
 DIIS: error= 2.72D-08 at cycle   9 NSaved=   9.
 NSaved= 9 IEnMin= 9 EnMin= -115.063712859147     IErMin= 9 ErrMin= 2.72D-08
 ErrMax= 2.72D-08 EMaxC= 1.00D-01 BMatC= 3.09D-14 BMatP= 7.02D-13
 IDIUse=1 WtCom= 1.00D+00 WtEn= 0.00D+00
 Coeff-Com: -0.446D-05 0.724D-04-0.264D-03-0.953D-03 0.413D-02 0.527D-02
 Coeff-Com: -0.443D-01-0.154D+00 0.119D+01
 Coeff:     -0.446D-05 0.724D-04-0.264D-03-0.953D-03 0.413D-02 0.527D-02
 Coeff:     -0.443D-01-0.154D+00 0.119D+01
 Gap=     0.600 Goal=   None    Shift=    0.000
 RMSDP=7.33D-09 MaxDP=5.22D-08 DE=-1.31D-12 OVMax= 1.32D-07

 SCF Done:  E(RHF) =  -115.063712859     A.U. after    9 cycles
             Convg  =    0.7333D-08             -V/T =  1.9991
 KE= 1.151694982709D+02 PE=-3.531095145419D+02 EE= 8.201159351974D+01
 Leave Link  502 at Sun Dec 29 12:24:22 2019, MaxMem=   91750400 cpu:       0.1
 (Enter /opt/g09gh/gaussian/g09/l701.exe)
 Compute integral first derivatives.
 ... and contract with generalized density number  0.
 Leave Link  701 at Sun Dec 29 12:24:22 2019, MaxMem=   91750400 cpu:       0.1
 (Enter /opt/g09gh/gaussian/g09/l702.exe)
 L702 exits ... SP integral derivatives will be done elsewhere.
 Leave Link  702 at Sun Dec 29 12:24:22 2019, MaxMem=   91750400 cpu:       0.0
 (Enter /opt/g09gh/gaussian/g09/l703.exe)
 Compute integral first derivatives, UseDBF=F ICtDFT=           0.
 Integral derivatives from FoFDir, PRISM(SPDF).
 Calling FoFJK, ICntrl=      2127 FMM=F ISym2X=0 I1Cent= 0 IOpClX= 0 NMat=1 NMatS=1 NMatT=0.
 FoFCou: FMM=F IPFlag=           0 FMFlag=      100000 FMFlg1=         800
         NFxFlg=           0 DoJE=F BraDBF=F KetDBF=F FulRan=T
         Omega=  0.000000  0.000000  1.000000  0.000000  0.000000 ICntrl=    2127 IOpCl=  0
         NMat0=    1 NMatS0=    1 NMatT0=    0 NMatD0=    1 NMtDS0=    0 NMtDT0=    0
         I1Cent=           0 NGrid=           0.
 Symmetry not used in FoFCou.
 Leave Link  703 at Sun Dec 29 12:24:23 2019, MaxMem=   91750400 cpu:       0.3
 (Enter /opt/g09gh/gaussian/g09/l716.exe)
 Dipole        = 3.49381613D-01-6.71299734D-01 2.35225687D-07
 ***** Axes restored to original set *****
 -------------------------------------------------------------------
 Center     Atomic                   Forces (Hartrees/Bohr)
 Number     Number              X              Y              Z
 -------------------------------------------------------------------
      1        8          -0.000713065    0.002963350    0.000012078
      2        6           0.002234478   -0.001047170   -0.000003429
      3        1          -0.000935180   -0.000204407    0.000675465
      4        1          -0.000934686   -0.000198832   -0.000677970
      5        1          -0.000027956    0.000446273    0.000001859
      6        1           0.000376408   -0.001959215   -0.000008003
 -------------------------------------------------------------------
 Cartesian Forces:  Max     0.002963350 RMS     0.001113182
 Leave Link  716 at Sun Dec 29 12:24:23 2019, MaxMem=   91750400 cpu:       0.0
 (Enter /opt/g09gh/gaussian/g09/l103.exe)

 GradGradGradGradGradGradGradGradGradGradGradGradGradGradGradGradGradGrad
 Berny optimization.
 Using GEDIIS/GDIIS optimizer.
 Internal  Forces:  Max     0.001934517 RMS     0.000795202
 Search for a local minimum.
 Step number   3 out of a maximum of  100
 All quantities printed in internal units (Hartrees-Bohrs-Radians)
 RMS Force = .79520D-03 SwitMx=.10000D-02 MixMth= 2
 Mixed Optimization -- En-DIIS/RFO-DIIS
 Update second derivatives using D2CorX and points    1    2    3
 DE= -1.74D-04 DEPred=-1.89D-04 R= 9.18D-01
 SS=  1.41D+00  RLast= 4.19D-02 DXNew= 7.5554D-01 1.2573D-01
 Trust test= 9.18D-01 RLast= 4.19D-02 DXMaxT set to 4.49D-01
 The second derivative matrix:
                          R1        R2        R3        R4        R5
           R1           0.33669
           R2          -0.01040   0.56044
           R3           0.01668   0.01405   0.34448
           R4           0.01668   0.01405   0.00108   0.34447
           R5          -0.00121   0.01263   0.00297   0.00297   0.34857
           A1           0.00311  -0.00739  -0.00620  -0.00620  -0.00029
           A2           0.02418  -0.00259  -0.00290  -0.00290  -0.00592
           A3           0.02418  -0.00259  -0.00290  -0.00290  -0.00592
           A4          -0.00032   0.00196  -0.00255  -0.00255   0.00340
           A5          -0.04066   0.00189   0.00695   0.00695   0.00663
           A6          -0.00436  -0.00143   0.00013   0.00013   0.00031
           A7          -0.00437  -0.00143   0.00013   0.00013   0.00031
           D1           0.02807  -0.00317  -0.00354  -0.00354  -0.00662
           D2          -0.02806   0.00317   0.00354   0.00354   0.00662
           D3           0.00000   0.00000   0.00000   0.00000   0.00000
                          A1        A2        A3        A4        A5
           A1           0.16684
           A2          -0.00892   0.16817
           A3          -0.00892   0.00817   0.16817
           A4           0.00535  -0.01036  -0.01037   0.16617
           A5           0.01058  -0.00436  -0.00436   0.01252   0.15467
           A6           0.00158  -0.00058  -0.00058   0.00094   0.00077
           A7           0.00158  -0.00058  -0.00058   0.00094   0.00077
           D1          -0.01031   0.00894   0.00894  -0.01299  -0.00154
           D2           0.01031  -0.00894  -0.00894   0.01299   0.00154
           D3           0.00000   0.00000   0.00000   0.00000   0.00000
                          A6        A7        D1        D2        D3
           A6           0.15956
           A7          -0.00044   0.15956
           D1          -0.00201  -0.00201   0.01813
           D2           0.00201   0.00201  -0.00576   0.01812
           D3           0.00000   0.00000   0.00000   0.00000   0.01236
 Use linear search instead of GDIIS.
     Eigenvalues ---    0.01236   0.10415   0.10655   0.14168   0.16000
     Eigenvalues ---    0.16117   0.19338   0.32675   0.34339   0.34999
     Eigenvalues ---    0.37040   0.563691000.000001000.000001000.00000
 RFO step:  Lambda=-3.05193244D-05 EMin= 1.23639239D-02
 Quartic linear search produced a step of -0.08014.
 Iteration  1 RMS(Cart)=  0.00279873 RMS(Int)=  0.00001003
 Iteration  2 RMS(Cart)=  0.00000696 RMS(Int)=  0.00000691
 Iteration  3 RMS(Cart)=  0.00000000 RMS(Int)=  0.00000691
 Variable       Old X    -DE/DX   Delta X   Delta X   Delta X     New X
                                 (Linear)    (Quad)   (Total)
    R1        2.64332  -0.00025   0.00200  -0.00440  -0.00240   2.64092
    R2        1.77098   0.00193   0.00015   0.00312   0.00327   1.77425
    R3        2.05198   0.00096  -0.00029   0.00312   0.00283   2.05481
    R4        2.05198   0.00096  -0.00029   0.00312   0.00283   2.05481
    R5        2.03996   0.00042  -0.00027   0.00166   0.00139   2.04136
    A1        1.92390  -0.00086  -0.00148  -0.00207  -0.00356   1.92034
    A2        1.94930   0.00091   0.00044   0.00481   0.00524   1.95454
    A3        1.94930   0.00091   0.00044   0.00481   0.00524   1.95454
    A4        1.87398  -0.00070  -0.00153  -0.00195  -0.00347   1.87051
    A5        1.89885  -0.00039   0.00080  -0.00218  -0.00139   1.89746
    A6        1.89545  -0.00040  -0.00011  -0.00295  -0.00306   1.89240
    A7        1.89545  -0.00040  -0.00011  -0.00295  -0.00306   1.89240
    D1        1.06547   0.00040   0.00084   0.00204   0.00290   1.06837
    D2       -1.06547  -0.00040  -0.00084  -0.00204  -0.00290  -1.06837
    D3        3.14159   0.00000   0.00000   0.00000   0.00000   3.14159
         Item               Value     Threshold  Converged?
 Maximum Force            0.001935     0.000450     NO 
 RMS     Force            0.000795     0.000300     NO 
 Maximum Displacement     0.004872     0.001800     NO 
 RMS     Displacement     0.002796     0.001200     NO 
 Predicted change in Energy=-1.665948D-05
 GradGradGradGradGradGradGradGradGradGradGradGradGradGradGradGradGradGrad

 Leave Link  103 at Sun Dec 29 12:24:23 2019, MaxMem=   91750400 cpu:       0.0
 (Enter /opt/g09gh/gaussian/g09/l202.exe)
                          Input orientation:                          
 ---------------------------------------------------------------------
 Center     Atomic      Atomic             Coordinates (Angstroms)
 Number     Number       Type             X           Y           Z
 ---------------------------------------------------------------------
      1          8           0        0.729923    0.100286    0.001463
      2          6           0       -0.662356   -0.020586    0.000383
      3          1           0       -1.026301   -0.543186    0.881732
      4          1           0       -1.025568   -0.535831   -0.885587
      5          1           0       -1.069365    0.980038    0.004379
      6          1           0        1.126557   -0.750707   -0.001913
 ---------------------------------------------------------------------
                    Distance matrix (angstroms):
                    1          2          3          4          5
     1  O    0.000000
     2  C    1.397517   0.000000
     3  H    2.067185   1.087356   0.000000
     4  H    2.067184   1.087356   1.767335   0.000000
     5  H    2.002850   1.080241   1.758356   1.758356   0.000000
     6  H    0.938892   1.932173   2.336384   2.336385   2.795996
                    6
     6  H    0.000000
 Stoichiometry    CH4O
 Framework group  C1[X(CH4O)]
 Deg. of freedom    12
 Full point group                 C1      NOp   1
 Largest Abelian subgroup         C1      NOp   1
 Largest concise Abelian subgroup C1      NOp   1
                         Standard orientation:                         
 ---------------------------------------------------------------------
 Center     Atomic      Atomic             Coordinates (Angstroms)
 Number     Number       Type             X           Y           Z
 ---------------------------------------------------------------------
      1          8           0       -0.735617    0.119403    0.000000
      2          6           0        0.654965   -0.019650    0.000000
      3          1           0        1.011733   -0.543283   -0.883667
      4          1           0        1.011733   -0.543282    0.883668
      5          1           0        1.075010    0.975581   -0.000001
      6          1           0       -1.143334   -0.726343    0.000000
 ---------------------------------------------------------------------
 Rotational constants (GHZ):    131.6709134     25.4751345     24.6185144
 Leave Link  202 at Sun Dec 29 12:24:23 2019, MaxMem=   91750400 cpu:       0.0
 (Enter /opt/g09gh/gaussian/g09/l301.exe)
 Standard basis: 6-311G(d) (5D, 7F)
 Ernie: Thresh=  0.10000D-02 Tol=  0.10000D-05 Strict=F.
 There are    48 symmetry adapted basis functions of A   symmetry.
 Integral buffers will be    131072 words long.
 Raffenetti 1 integral format.
 Two-electron integral symmetry is turned on.
    48 basis functions,    84 primitive gaussians,    50 cartesian basis functions
     9 alpha electrons        9 beta electrons
       nuclear repulsion energy        40.8599520330 Hartrees.
 IExCor=    0 DFT=F Ex=HF Corr=None ExCW=0 ScaHFX=  1.000000
 ScaDFX=  1.000000  1.000000  1.000000  1.000000 ScalE2=  1.000000  1.000000
 IRadAn=      0 IRanWt=     -1 IRanGd=            0 ICorTp=0
 NAtoms=    6 NActive=    6 NUniq=    6 SFac= 7.50D-01 NAtFMM=   80 NAOKFM=F Big=F
 Leave Link  301 at Sun Dec 29 12:24:23 2019, MaxMem=   91750400 cpu:       0.1
 (Enter /opt/g09gh/gaussian/g09/l302.exe)
 NPDir=0 NMtPBC=     1 NCelOv=     1 NCel=       1 NClECP=     1 NCelD=      1
         NCelK=      1 NCelE2=     1 NClLst=     1 CellRange=     0.0.
 One-electron integrals computed using PRISM.
 NBasis=    48 RedAO= T  NBF=    48
 NBsUse=    48 1.00D-06 NBFU=    48
 Leave Link  302 at Sun Dec 29 12:24:23 2019, MaxMem=   91750400 cpu:       0.1
 (Enter /opt/g09gh/gaussian/g09/l303.exe)
 DipDrv:  MaxL=1.
 Leave Link  303 at Sun Dec 29 12:24:23 2019, MaxMem=   91750400 cpu:       0.1
 (Enter /opt/g09gh/gaussian/g09/l401.exe)
 Initial guess read from the read-write file.
 B after Tr=     0.000000    0.000000    0.000000
         Rot=    1.000000    0.000000    0.000000    0.000000 Ang=   0.00 deg.
 Guess basis will be translated and rotated to current coordinates.
 Initial guess orbital symmetries:
       Occupied  (A) (A) (A) (A) (A) (A) (A) (A) (A)
       Virtual   (A) (A) (A) (A) (A) (A) (A) (A) (A) (A) (A) (A)
                 (A) (A) (A) (A) (A) (A) (A) (A) (A) (A) (A) (A)
                 (A) (A) (A) (A) (A) (A) (A) (A) (A) (A) (A) (A)
                 (A) (A) (A)
 The electronic state of the initial guess is 1-A.
 Leave Link  401 at Sun Dec 29 12:24:23 2019, MaxMem=   91750400 cpu:       0.1
 (Enter /opt/g09gh/gaussian/g09/l502.exe)
 Closed shell SCF:
 Requested convergence on RMS density matrix=1.00D-08 within 128 cycles.
 Requested convergence on MAX density matrix=1.00D-06.
 Requested convergence on             energy=1.00D-06.
 No special actions if energy rises.
 Using DIIS extrapolation, IDIIS=  1040.
 Integral symmetry usage will be decided dynamically.
 Keep R1 ints in memory in canonical form, NReq=1659792.
 IEnd=       26328 IEndB=       26328 NGot=    91750400 MDV=    90929785
 LenX=    90929785 LenY=    90926844
 Symmetry not used in FoFDir.
 MinBra= 0 MaxBra= 2 Meth= 1.
 IRaf=       0 NMat=   1 IRICut=       1 DoRegI=T DoRafI=F ISym2E= 0 JSym2E=0.

 Cycle   1  Pass 1  IDiag  1:
 E= -115.063718414109    
 DIIS: error= 3.33D-04 at cycle   1 NSaved=   1.
 NSaved= 1 IEnMin= 1 EnMin= -115.063718414109     IErMin= 1 ErrMin= 3.33D-04
 ErrMax= 3.33D-04 EMaxC= 1.00D-01 BMatC= 7.77D-06 BMatP= 7.77D-06
 IDIUse=3 WtCom= 9.97D-01 WtEn= 3.33D-03
 Coeff-Com:  0.100D+01
 Coeff-En:   0.100D+01
 Coeff:      0.100D+01
 Gap=     0.599 Goal=   None    Shift=    0.000
 RMSDP=4.26D-05 MaxDP=2.87D-04              OVMax= 8.34D-04

 Cycle   2  Pass 1  IDiag  1:
 E= -115.063727263679     Delta-E=       -0.000008849570 Rises=F Damp=F
 DIIS: error= 9.41D-05 at cycle   2 NSaved=   2.
 NSaved= 2 IEnMin= 2 EnMin= -115.063727263679     IErMin= 2 ErrMin= 9.41D-05
 ErrMax= 9.41D-05 EMaxC= 1.00D-01 BMatC= 4.67D-07 BMatP= 7.77D-06
 IDIUse=1 WtCom= 1.00D+00 WtEn= 0.00D+00
 Coeff-Com: -0.123D+00 0.112D+01
 Coeff:     -0.123D+00 0.112D+01
 Gap=     0.600 Goal=   None    Shift=    0.000
 RMSDP=1.45D-05 MaxDP=1.48D-04 DE=-8.85D-06 OVMax= 3.03D-04

 Cycle   3  Pass 1  IDiag  1:
 E= -115.063727975752     Delta-E=       -0.000000712073 Rises=F Damp=F
 DIIS: error= 4.07D-05 at cycle   3 NSaved=   3.
 NSaved= 3 IEnMin= 3 EnMin= -115.063727975752     IErMin= 3 ErrMin= 4.07D-05
 ErrMax= 4.07D-05 EMaxC= 1.00D-01 BMatC= 4.02D-08 BMatP= 4.67D-07
 IDIUse=1 WtCom= 1.00D+00 WtEn= 0.00D+00
 Coeff-Com: -0.469D-01 0.995D-01 0.947D+00
 Coeff:     -0.469D-01 0.995D-01 0.947D+00
 Gap=     0.599 Goal=   None    Shift=    0.000
 RMSDP=4.65D-06 MaxDP=4.34D-05 DE=-7.12D-07 OVMax= 1.18D-04

 Cycle   4  Pass 1  IDiag  1:
 E= -115.063728041939     Delta-E=       -0.000000066187 Rises=F Damp=F
 DIIS: error= 9.53D-06 at cycle   4 NSaved=   4.
 NSaved= 4 IEnMin= 4 EnMin= -115.063728041939     IErMin= 4 ErrMin= 9.53D-06
 ErrMax= 9.53D-06 EMaxC= 1.00D-01 BMatC= 5.27D-09 BMatP= 4.02D-08
 IDIUse=1 WtCom= 1.00D+00 WtEn= 0.00D+00
 Coeff-Com:  0.806D-03-0.737D-01 0.122D+00 0.951D+00
 Coeff:      0.806D-03-0.737D-01 0.122D+00 0.951D+00
 Gap=     0.600 Goal=   None    Shift=    0.000
 RMSDP=1.81D-06 MaxDP=1.97D-05 DE=-6.62D-08 OVMax= 4.65D-05

 Cycle   5  Pass 1  IDiag  1:
 E= -115.063728050437     Delta-E=       -0.000000008497 Rises=F Damp=F
 DIIS: error= 3.34D-06 at cycle   5 NSaved=   5.
 NSaved= 5 IEnMin= 5 EnMin= -115.063728050437     IErMin= 5 ErrMin= 3.34D-06
 ErrMax= 3.34D-06 EMaxC= 1.00D-01 BMatC= 3.80D-10 BMatP= 5.27D-09
 IDIUse=1 WtCom= 1.00D+00 WtEn= 0.00D+00
 Coeff-Com:  0.369D-02-0.130D-01-0.694D-01 0.353D-01 0.104D+01
 Coeff:      0.369D-02-0.130D-01-0.694D-01 0.353D-01 0.104D+01
 Gap=     0.599 Goal=   None    Shift=    0.000
 RMSDP=7.19D-07 MaxDP=7.86D-06 DE=-8.50D-09 OVMax= 2.09D-05

 Cycle   6  Pass 1  IDiag  1:
 E= -115.063728051321     Delta-E=       -0.000000000884 Rises=F Damp=F
 DIIS: error= 1.01D-06 at cycle   6 NSaved=   6.
 NSaved= 6 IEnMin= 6 EnMin= -115.063728051321     IErMin= 6 ErrMin= 1.01D-06
 ErrMax= 1.01D-06 EMaxC= 1.00D-01 BMatC= 4.90D-11 BMatP= 3.80D-10
 IDIUse=1 WtCom= 1.00D+00 WtEn= 0.00D+00
 Coeff-Com:  0.494D-03 0.394D-02-0.192D-01-0.813D-01 0.187D+00 0.909D+00
 Coeff:      0.494D-03 0.394D-02-0.192D-01-0.813D-01 0.187D+00 0.909D+00
 Gap=     0.600 Goal=   None    Shift=    0.000
 RMSDP=1.97D-07 MaxDP=1.93D-06 DE=-8.84D-10 OVMax= 5.16D-06

 Cycle   7  Pass 1  IDiag  1:
 E= -115.063728051401     Delta-E=       -0.000000000080 Rises=F Damp=F
 DIIS: error= 2.87D-07 at cycle   7 NSaved=   7.
 NSaved= 7 IEnMin= 7 EnMin= -115.063728051401     IErMin= 7 ErrMin= 2.87D-07
 ErrMax= 2.87D-07 EMaxC= 1.00D-01 BMatC= 2.80D-12 BMatP= 4.90D-11
 IDIUse=1 WtCom= 1.00D+00 WtEn= 0.00D+00
 Coeff-Com: -0.394D-03 0.107D-02 0.810D-02-0.791D-03-0.113D+00-0.661D-01
 Coeff-Com:  0.117D+01
 Coeff:     -0.394D-03 0.107D-02 0.810D-02-0.791D-03-0.113D+00-0.661D-01
 Coeff:      0.117D+01
 Gap=     0.600 Goal=   None    Shift=    0.000
 RMSDP=7.68D-08 MaxDP=7.42D-07 DE=-8.04D-11 OVMax= 2.09D-06

 Cycle   8  Pass 1  IDiag  1:
 E= -115.063728051409     Delta-E=       -0.000000000008 Rises=F Damp=F
 DIIS: error= 4.68D-08 at cycle   8 NSaved=   8.
 NSaved= 8 IEnMin= 8 EnMin= -115.063728051409     IErMin= 8 ErrMin= 4.68D-08
 ErrMax= 4.68D-08 EMaxC= 1.00D-01 BMatC= 1.07D-13 BMatP= 2.80D-12
 IDIUse=1 WtCom= 1.00D+00 WtEn= 0.00D+00
 Coeff-Com:  0.558D-04-0.419D-03-0.664D-03 0.478D-02 0.102D-01-0.350D-01
 Coeff-Com: -0.190D+00 0.121D+01
 Coeff:      0.558D-04-0.419D-03-0.664D-03 0.478D-02 0.102D-01-0.350D-01
 Coeff:     -0.190D+00 0.121D+01
 Gap=     0.600 Goal=   None    Shift=    0.000
 RMSDP=1.24D-08 MaxDP=1.07D-07 DE=-7.62D-12 OVMax= 2.50D-07

 Cycle   9  Pass 1  IDiag  1:
[...]
 Coeff:     -0.986D-01 0.110D+01
 Gap=     0.600 Goal=   None    Shift=    0.000
 RMSDP=2.53D-06 MaxDP=1.87D-05 DE=-2.82D-07 OVMax= 5.52D-05

 Cycle   3  Pass 1  IDiag  1:
 E= -115.063728398525     Delta-E=       -0.000000024964 Rises=F Damp=F
 DIIS: error= 7.90D-06 at cycle   3 NSaved=   3.
 NSaved= 3 IEnMin= 3 EnMin= -115.063728398525     IErMin= 3 ErrMin= 7.90D-06
 ErrMax= 7.90D-06 EMaxC= 1.00D-01 BMatC= 2.31D-09 BMatP= 1.62D-08
 IDIUse=1 WtCom= 1.00D+00 WtEn= 0.00D+00
 Coeff-Com: -0.730D-01 0.184D+00 0.889D+00
 Coeff:     -0.730D-01 0.184D+00 0.889D+00
 Gap=     0.600 Goal=   None    Shift=    0.000
 RMSDP=8.33D-07 MaxDP=8.11D-06 DE=-2.50D-08 OVMax= 2.20D-05

 Cycle   4  Pass 1  IDiag  1:
 E= -115.063728401362     Delta-E=       -0.000000002837 Rises=F Damp=F
 DIIS: error= 2.64D-06 at cycle   4 NSaved=   4.
 NSaved= 4 IEnMin= 4 EnMin= -115.063728401362     IErMin= 4 ErrMin= 2.64D-06
 ErrMax= 2.64D-06 EMaxC= 1.00D-01 BMatC= 1.71D-10 BMatP= 2.31D-09
 IDIUse=1 WtCom= 1.00D+00 WtEn= 0.00D+00
 Coeff-Com:  0.465D-03-0.667D-01 0.965D-01 0.970D+00
 Coeff:      0.465D-03-0.667D-01 0.965D-01 0.970D+00
 Gap=     0.600 Goal=   None    Shift=    0.000
 RMSDP=3.18D-07 MaxDP=2.50D-06 DE=-2.84D-09 OVMax= 6.87D-06

 Cycle   5  Pass 1  IDiag  1:
 E= -115.063728401629     Delta-E=       -0.000000000267 Rises=F Damp=F
 DIIS: error= 7.36D-07 at cycle   5 NSaved=   5.
 NSaved= 5 IEnMin= 5 EnMin= -115.063728401629     IErMin= 5 ErrMin= 7.36D-07
 ErrMax= 7.36D-07 EMaxC= 1.00D-01 BMatC= 1.36D-11 BMatP= 1.71D-10
 IDIUse=1 WtCom= 1.00D+00 WtEn= 0.00D+00
 Coeff-Com:  0.507D-02-0.229D-01-0.503D-01 0.127D+00 0.941D+00
 Coeff:      0.507D-02-0.229D-01-0.503D-01 0.127D+00 0.941D+00
 Gap=     0.600 Goal=   None    Shift=    0.000
 RMSDP=9.90D-08 MaxDP=8.42D-07 DE=-2.67D-10 OVMax= 2.26D-06

 Cycle   6  Pass 1  IDiag  1:
 E= -115.063728401652     Delta-E=       -0.000000000023 Rises=F Damp=F
 DIIS: error= 1.26D-07 at cycle   6 NSaved=   6.
 NSaved= 6 IEnMin= 6 EnMin= -115.063728401652     IErMin= 6 ErrMin= 1.26D-07
 ErrMax= 1.26D-07 EMaxC= 1.00D-01 BMatC= 8.98D-13 BMatP= 1.36D-11
 IDIUse=1 WtCom= 1.00D+00 WtEn= 0.00D+00
 Coeff-Com:  0.944D-04 0.437D-02-0.110D-01-0.776D-01 0.519D-01 0.103D+01
 Coeff:      0.944D-04 0.437D-02-0.110D-01-0.776D-01 0.519D-01 0.103D+01
 Gap=     0.600 Goal=   None    Shift=    0.000
 RMSDP=3.38D-08 MaxDP=3.18D-07 DE=-2.25D-11 OVMax= 8.81D-07

 Cycle   7  Pass 1  IDiag  1:
 E= -115.063728401654     Delta-E=       -0.000000000002 Rises=F Damp=F
 DIIS: error= 3.22D-08 at cycle   7 NSaved=   7.
 NSaved= 7 IEnMin= 7 EnMin= -115.063728401654     IErMin= 7 ErrMin= 3.22D-08
 ErrMax= 3.22D-08 EMaxC= 1.00D-01 BMatC= 3.51D-14 BMatP= 8.98D-13
 IDIUse=1 WtCom= 1.00D+00 WtEn= 0.00D+00
 Coeff-Com: -0.244D-03 0.605D-03 0.399D-02 0.447D-02-0.627D-01-0.915D-01
 Coeff-Com:  0.115D+01
 Coeff:     -0.244D-03 0.605D-03 0.399D-02 0.447D-02-0.627D-01-0.915D-01
 Coeff:      0.115D+01
 Gap=     0.600 Goal=   None    Shift=    0.000
 RMSDP=7.41D-09 MaxDP=5.95D-08 DE=-1.93D-12 OVMax= 1.83D-07

 SCF Done:  E(RHF) =  -115.063728402     A.U. after    7 cycles
             Convg  =    0.7412D-08             -V/T =  1.9992
 KE= 1.151613916914D+02 PE=-3.530714412872D+02 EE= 8.199618162281D+01
 Leave Link  502 at Sun Dec 29 12:24:25 2019, MaxMem=   91750400 cpu:       0.1
 (Enter /opt/g09gh/gaussian/g09/l701.exe)
 Compute integral first derivatives.
 ... and contract with generalized density number  0.
 Leave Link  701 at Sun Dec 29 12:24:25 2019, MaxMem=   91750400 cpu:       0.1
 (Enter /opt/g09gh/gaussian/g09/l702.exe)
 L702 exits ... SP integral derivatives will be done elsewhere.
 Leave Link  702 at Sun Dec 29 12:24:25 2019, MaxMem=   91750400 cpu:       0.0
 (Enter /opt/g09gh/gaussian/g09/l703.exe)
 Compute integral first derivatives, UseDBF=F ICtDFT=           0.
 Integral derivatives from FoFDir, PRISM(SPDF).
 Calling FoFJK, ICntrl=      2127 FMM=F ISym2X=0 I1Cent= 0 IOpClX= 0 NMat=1 NMatS=1 NMatT=0.
 FoFCou: FMM=F IPFlag=           0 FMFlag=      100000 FMFlg1=         800
         NFxFlg=           0 DoJE=F BraDBF=F KetDBF=F FulRan=T
         Omega=  0.000000  0.000000  1.000000  0.000000  0.000000 ICntrl=    2127 IOpCl=  0
         NMat0=    1 NMatS0=    1 NMatT0=    0 NMatD0=    1 NMtDS0=    0 NMtDT0=    0
         I1Cent=           0 NGrid=           0.
 Symmetry not used in FoFCou.
 Leave Link  703 at Sun Dec 29 12:24:25 2019, MaxMem=   91750400 cpu:       0.3
 (Enter /opt/g09gh/gaussian/g09/l716.exe)
 Dipole        = 3.48209211D-01-6.71579183D-01-4.27625170D-08
 ***** Axes restored to original set *****
 -------------------------------------------------------------------
 Center     Atomic                   Forces (Hartrees/Bohr)
 Number     Number              X              Y              Z
 -------------------------------------------------------------------
      1        8          -0.000067471   -0.000008668   -0.000000063
      2        6           0.000008260   -0.000052353   -0.000000214
      3        1           0.000030080    0.000008281   -0.000002938
      4        1           0.000030085    0.000008257    0.000003036
      5        1           0.000054279    0.000002812    0.000000032
      6        1          -0.000055233    0.000041672    0.000000146
 -------------------------------------------------------------------
 Cartesian Forces:  Max     0.000067471 RMS     0.000030860
 Leave Link  716 at Sun Dec 29 12:24:25 2019, MaxMem=   91750400 cpu:       0.0
 (Enter /opt/g09gh/gaussian/g09/l103.exe)

 GradGradGradGradGradGradGradGradGradGradGradGradGradGradGradGradGradGrad
 Berny optimization.
 Using GEDIIS/GDIIS optimizer.
 Internal  Forces:  Max     0.000119411 RMS     0.000045724
 Search for a local minimum.
 Step number   5 out of a maximum of  100
 All quantities printed in internal units (Hartrees-Bohrs-Radians)
 RMS Force = .45724D-04 SwitMx=.10000D-02 MixMth= 2
 Mixed Optimization -- En-DIIS/RFO-DIIS
 Swaping is turned off.
 Update second derivatives using D2CorX and points    1    2    3    4    5
 DE= -3.50D-07 DEPred=-4.79D-07 R= 7.30D-01
 Trust test= 7.30D-01 RLast= 2.01D-03 DXMaxT set to 4.49D-01
 The second derivative matrix:
                          R1        R2        R3        R4        R5
           R1           0.41392
           R2           0.00202   0.56337
           R3           0.01437   0.01321   0.34402
           R4           0.01437   0.01321   0.00062   0.34402
           R5           0.00573   0.01274   0.00183   0.00183   0.34787
           A1           0.03359  -0.00041  -0.00551  -0.00551   0.00483
           A2           0.02465  -0.00379  -0.00371  -0.00371  -0.00591
           A3           0.02466  -0.00379  -0.00371  -0.00371  -0.00591
           A4           0.04117   0.00925  -0.00294  -0.00294   0.00572
           A5          -0.03957  -0.00401   0.00220   0.00220   0.00531
           A6          -0.02649  -0.00012   0.00400   0.00400   0.00008
           A7          -0.02649  -0.00012   0.00400   0.00400   0.00008
           D1           0.00486   0.00111   0.00290   0.00290  -0.00717
           D2          -0.00486  -0.00111  -0.00290  -0.00290   0.00716
           D3           0.00000   0.00000   0.00000   0.00000   0.00000
                          A1        A2        A3        A4        A5
           A1           0.17413
           A2          -0.00988   0.16442
           A3          -0.00987   0.00442   0.16442
           A4           0.02590  -0.00534  -0.00534   0.18483
           A5           0.01043  -0.01092  -0.01092   0.01170   0.16197
           A6          -0.00800   0.00437   0.00437  -0.01317   0.00409
           A7          -0.00800   0.00437   0.00437  -0.01317   0.00409
           D1          -0.01763   0.01841   0.01841  -0.02725  -0.00585
           D2           0.01763  -0.01840  -0.01841   0.02725   0.00584
           D3           0.00000   0.00000   0.00000   0.00000   0.00000
                          A6        A7        D1        D2        D3
           A6           0.15961
           A7          -0.00039   0.15961
           D1          -0.00234  -0.00234   0.02345
           D2           0.00234   0.00234  -0.01108   0.02345
           D3           0.00000   0.00000   0.00000   0.00000   0.01236
     Eigenvalues ---    0.01236   0.10412   0.10744   0.14431   0.15594
     Eigenvalues ---    0.16000   0.22935   0.34296   0.34339   0.34835
     Eigenvalues ---    0.44292   0.566151000.000001000.000001000.00000
 En-DIIS/RFO-DIIS IScMMF=        0 using points:     5    4    3
 RFO step:  Lambda=-5.09236568D-08.
 DIIS coeffs:      0.73955      0.23941      0.02104
 Iteration  1 RMS(Cart)=  0.00020914 RMS(Int)=  0.00000018
 Iteration  2 RMS(Cart)=  0.00000001 RMS(Int)=  0.00000017
 Variable       Old X    -DE/DX   Delta X   Delta X   Delta X     New X
                                  (DIIS)     (GDIIS)  (Total)
    R1        2.64194  -0.00012  -0.00021   0.00003  -0.00018   2.64176
    R2        1.77433  -0.00006  -0.00009  -0.00001  -0.00010   1.77423
    R3        2.05474  -0.00002  -0.00004  -0.00001  -0.00005   2.05469
    R4        2.05474  -0.00002  -0.00004  -0.00001  -0.00005   2.05469
    R5        2.04149  -0.00002  -0.00006   0.00002  -0.00004   2.04145
    A1        1.92044  -0.00006   0.00005  -0.00030  -0.00025   1.92019
    A2        1.95420  -0.00002  -0.00002  -0.00008  -0.00011   1.95410
    A3        1.95420  -0.00002  -0.00002  -0.00008  -0.00011   1.95410
    A4        1.87202  -0.00007  -0.00032   0.00004  -0.00028   1.87174
    A5        1.89735   0.00003   0.00006   0.00014   0.00019   1.89755
    A6        1.89203   0.00004   0.00016  -0.00001   0.00015   1.89219
    A7        1.89203   0.00004   0.00016  -0.00001   0.00015   1.89219
    D1        1.06806   0.00001   0.00002   0.00003   0.00005   1.06810
    D2       -1.06806  -0.00001  -0.00002  -0.00003  -0.00005  -1.06811
    D3        3.14159   0.00000   0.00000   0.00000   0.00000   3.14159
         Item               Value     Threshold  Converged?
 Maximum Force            0.000119     0.000450     YES
 RMS     Force            0.000046     0.000300     YES
 Maximum Displacement     0.000543     0.001800     YES
 RMS     Displacement     0.000209     0.001200     YES
 Predicted change in Energy=-4.347509D-08
 Optimization completed.
    -- Stationary point found.
                           ----------------------------
                           !   Optimized Parameters   !
                           ! (Angstroms and Degrees)  !
 --------------------------                            --------------------------
 ! Name  Definition              Value          Derivative Info.                !
 --------------------------------------------------------------------------------
 ! R1    R(1,2)                  1.3981         -DE/DX =   -0.0001              !
 ! R2    R(1,6)                  0.9389         -DE/DX =   -0.0001              !
 ! R3    R(2,3)                  1.0873         -DE/DX =    0.0                 !
 ! R4    R(2,4)                  1.0873         -DE/DX =    0.0                 !
 ! R5    R(2,5)                  1.0803         -DE/DX =    0.0                 !
 ! A1    A(2,1,6)              110.0329         -DE/DX =   -0.0001              !
 ! A2    A(1,2,3)              111.9676         -DE/DX =    0.0                 !
 ! A3    A(1,2,4)              111.9676         -DE/DX =    0.0                 !
 ! A4    A(1,2,5)              107.2588         -DE/DX =   -0.0001              !
 ! A5    A(3,2,4)              108.7103         -DE/DX =    0.0                 !
 ! A6    A(3,2,5)              108.4055         -DE/DX =    0.0                 !
 ! A7    A(4,2,5)              108.4055         -DE/DX =    0.0                 !
 ! D1    D(6,1,2,3)             61.1951         -DE/DX =    0.0                 !
 ! D2    D(6,1,2,4)            -61.1952         -DE/DX =    0.0                 !
 ! D3    D(6,1,2,5)            180.0            -DE/DX =    0.0                 !
 --------------------------------------------------------------------------------
 GradGradGradGradGradGradGradGradGradGradGradGradGradGradGradGradGradGrad

 Largest change from initial coordinates is atom    4       0.051 Angstoms.
 Leave Link  103 at Sun Dec 29 12:24:25 2019, MaxMem=   91750400 cpu:       0.0
 (Enter /opt/g09gh/gaussian/g09/l202.exe)
                          Input orientation:                          
 ---------------------------------------------------------------------
 Center     Atomic      Atomic             Coordinates (Angstroms)
 Number     Number       Type             X           Y           Z
 ---------------------------------------------------------------------
      1          8           0        0.730501    0.100013    0.001463
      2          6           0       -0.662371   -0.020251    0.000384
      3          1           0       -1.026180   -0.542976    0.881670
      4          1           0       -1.025447   -0.535621   -0.885524
      5          1           0       -1.070447    0.980013    0.004378
      6          1           0        1.126834   -0.751165   -0.001915
 ---------------------------------------------------------------------
                    Distance matrix (angstroms):
                    1          2          3          4          5
     1  O    0.000000
     2  C    1.398055   0.000000
     3  H    2.067397   1.087320   0.000000
     4  H    2.067397   1.087320   1.767210   0.000000
     5  H    2.004451   1.080310   1.758152   1.758152   0.000000
     6  H    0.938934   1.932743   2.336565   2.336566   2.797332
                    6
     6  H    0.000000
 Stoichiometry    CH4O
 Framework group  C1[X(CH4O)]
 Deg. of freedom    12
 Full point group                 C1      NOp   1
 Largest Abelian subgroup         C1      NOp   1
 Largest concise Abelian subgroup C1      NOp   1
                         Standard orientation:                         
 ---------------------------------------------------------------------
 Center     Atomic      Atomic             Coordinates (Angstroms)
 Number     Number       Type             X           Y           Z
 ---------------------------------------------------------------------
      1          8           0       -0.735918    0.119516    0.000000
      2          6           0        0.655195   -0.019632    0.000000
      3          1           0        1.011565   -0.543567   -0.883604
      4          1           0        1.011565   -0.543566    0.883605
      5          1           0        1.076801    0.975013   -0.000001
      6          1           0       -1.143759   -0.726216    0.000000
 ---------------------------------------------------------------------
 Rotational constants (GHZ):    131.6906337     25.4564304     24.6011991
 Leave Link  202 at Sun Dec 29 12:24:25 2019, MaxMem=   91750400 cpu:       0.0
 (Enter /opt/g09gh/gaussian/g09/l601.exe)
 Copying SCF densities to generalized density rwf, IOpCl= 0 IROHF=0.

 **********************************************************************

            Population analysis using the SCF density.

 **********************************************************************

 Orbital symmetries:
       Occupied  (A) (A) (A) (A) (A) (A) (A) (A) (A)
       Virtual   (A) (A) (A) (A) (A) (A) (A) (A) (A) (A) (A) (A)
                 (A) (A) (A) (A) (A) (A) (A) (A) (A) (A) (A) (A)
                 (A) (A) (A) (A) (A) (A) (A) (A) (A) (A) (A) (A)
                 (A) (A) (A)
 The electronic state is 1-A.
 Alpha  occ. eigenvalues --  -20.54167 -11.26482  -1.36441  -0.92836  -0.69698
 Alpha  occ. eigenvalues --   -0.62226  -0.59734  -0.49808  -0.44492
 Alpha virt. eigenvalues --    0.15461   0.18909   0.22733   0.23399   0.34623
 Alpha virt. eigenvalues --    0.46137   0.48400   0.59617   0.70027   0.73726
 Alpha virt. eigenvalues --    0.79098   0.80579   0.94603   1.06465   1.07995
 Alpha virt. eigenvalues --    1.17526   1.54682   1.60217   1.69557   1.76418
 Alpha virt. eigenvalues --    1.77082   2.00237   2.36807   2.61899   2.70594
 Alpha virt. eigenvalues --    2.72484   3.16487   3.25765   3.37857   3.42115
 Alpha virt. eigenvalues --    3.51602   3.57709   3.82991   4.27328   5.38591
 Alpha virt. eigenvalues --    5.54221   5.93226  24.56789  51.52757
          Condensed to atoms (all electrons):
              1          2          3          4          5          6
     1  O    8.263031   0.217597  -0.034328  -0.034328  -0.028336   0.269335
     2  C    0.217597   4.979098   0.394312   0.394312   0.391865  -0.049576
     3  H   -0.034328   0.394312   0.538275  -0.040957  -0.032940  -0.004266
     4  H   -0.034328   0.394312  -0.040957   0.538275  -0.032940  -0.004266
     5  H   -0.028336   0.391865  -0.032940  -0.032940   0.485593   0.007284
     6  H    0.269335  -0.049576  -0.004266  -0.004266   0.007284   0.370189
 Mulliken atomic charges:
              1
     1  O   -0.652970
     2  C   -0.327610
     3  H    0.179904
     4  H    0.179904
     5  H    0.209473
     6  H    0.411300
 Sum of Mulliken atomic charges =   0.00000
 Mulliken charges with hydrogens summed into heavy atoms:
              1
     1  O   -0.241671
     2  C    0.241671
 Sum of Mulliken charges with hydrogens summed into heavy atoms =   0.00000
 Electronic spatial extent (au):  <R**2>=             82.6866
 Charge=              0.0000 electrons
 Dipole moment (field-independent basis, Debye):
    X=              0.8851    Y=             -1.7070    Z=              0.0000  Tot=              1.9228
 Quadrupole moment (field-independent basis, Debye-Ang):
   XX=            -12.6374   YY=            -12.0951   ZZ=            -13.6213
   XY=              2.4357   XZ=              0.0000   YZ=              0.0000
 Traceless Quadrupole moment (field-independent basis, Debye-Ang):
   XX=              0.1472   YY=              0.6895   ZZ=             -0.8367
   XY=              2.4357   XZ=              0.0000   YZ=              0.0000
 Octapole moment (field-independent basis, Debye-Ang**2):
  XXX=             -4.4506  YYY=             -0.6271  ZZZ=              0.0000  XYY=             -1.7664
  XXY=             -2.5062  XXZ=              0.0000  XZZ=             -0.5124  YZZ=             -0.6731
  YYZ=              0.0000  XYZ=              0.0000
 Hexadecapole moment (field-independent basis, Debye-Ang**3):
 XXXX=            -58.4072 YYYY=            -19.0675 ZZZZ=            -18.9910 XXXY=              4.1001
 XXXZ=              0.0000 YYYX=              2.9852 YYYZ=              0.0000 ZZZX=              0.0000
 ZZZY=              0.0000 XXYY=            -11.8878 XXZZ=            -13.5224 YYZZ=             -6.4468
 XXYZ=              0.0000 YYXZ=              0.0000 ZZXY=             -0.0523
 N-N= 4.085013957132D+01 E-N=-3.530714413924D+02  KE= 1.151613916914D+02
 No NMR shielding tensors so no spin-rotation constants.
 Leave Link  601 at Sun Dec 29 12:24:25 2019, MaxMem=   91750400 cpu:       0.1
 (Enter /opt/g09gh/gaussian/g09/l9999.exe)
 1\1\GINC-NODE36\FOpt\RHF\6-311G(d)\C1H4O1\BDW2292\29-Dec-2019\0\\#P op
 t=(,maxcycle=400) HF/6-311G* MaxDisk=100GB\\methanol Rotatable Bond Op
 timization on node36.bme.utexas.edu\\0,1\O,0.7305013069,0.1000134267,0
 .0014626972\C,-0.6623705703,-0.0202506888,0.0003843187\H,-1.0261799428
 ,-0.5429757495,0.8816703626\H,-1.0254468548,-0.5356208667,-0.885523723
 5\H,-1.0704473663,0.9800132213,0.0043780426\H,1.1268344273,-0.75116534
 26,-0.0019147874\\Version=EM64L-G09RevA.02\State=1-A\HF=-115.0637284\R
 MSD=7.412e-09\RMSF=3.086e-05\Dipole=-0.3572856,-0.6667884,-0.0029229\Q
 uadrupole=0.060413,0.5616321,-0.6220451,-1.8047072,-0.0072266,0.004176
 8\PG=C01 [X(C1H4O1)]\\@


 DON'T WORRY CHARLIE BROWN...WE LEARN MORE FROM LOSING 
 THAN WE DO FROM WINNING.
 THEN THAT MAKES ME THE SMARTEST PERSON IN THE WORLD...
 CHARLES SCHULZ 'PEANUTS'
 Job cpu time:  0 days  0 hours  0 minutes  6.3 seconds.
 File lengths (MBytes):  RWF=      5 Int=      0 D2E=      0 Chk=      1 Scr=      1
 Normal termination of Gaussian 09 at Sun Dec 29 12:24:25 2019.
