 Entering Gaussian System, Link 0=g09
 Input=methanol-sp-6-1-2-3-173.com
 Output=methanol-sp-6-1-2-3-173.log
 Initial command:
 /opt/g09gh/gaussian/g09/l1.exe /scratch/bdw2292/Gau-methanol/Gau-41275.inp -scrdir=/scratch/bdw2292/Gau-methanol/
 Entering Link 1 = /opt/g09gh/gaussian/g09/l1.exe PID=     41276.
  
 Copyright (c) 1988,1990,1992,1993,1995,1998,2003,2009, Gaussian, Inc.
                  All Rights Reserved.
  
 This is part of the Gaussian(R) 09 program.  It is based on
 the Gaussian(R) 03 system (copyright 2003, Gaussian, Inc.),
 the Gaussian(R) 98 system (copyright 1998, Gaussian, Inc.),
 the Gaussian(R) 94 system (copyright 1995, Gaussian, Inc.),
 the Gaussian 92(TM) system (copyright 1992, Gaussian, Inc.),
 the Gaussian 90(TM) system (copyright 1990, Gaussian, Inc.),
 the Gaussian 88(TM) system (copyright 1988, Gaussian, Inc.),
 the Gaussian 86(TM) system (copyright 1986, Carnegie Mellon
 University), and the Gaussian 82(TM) system (copyright 1983,
 Carnegie Mellon University). Gaussian is a federally registered
 trademark of Gaussian, Inc.
  
 This software contains proprietary and confidential information,
 including trade secrets, belonging to Gaussian, Inc.
  
 This software is provided under written license and may be
 used, copied, transmitted, or stored only in accord with that
 written license.
  
 The following legend is applicable only to US Government
 contracts under FAR:
  
                    RESTRICTED RIGHTS LEGEND
  
 Use, reproduction and disclosure by the US Government is
 subject to restrictions as set forth in subparagraphs (a)
 and (c) of the Commercial Computer Software - Restricted
 Rights clause in FAR 52.227-19.
  
 Gaussian, Inc.
 340 Quinnipiac St., Bldg. 40, Wallingford CT 06492
  
  
 ---------------------------------------------------------------
 Warning -- This program may not be used in any manner that
 competes with the business of Gaussian, Inc. or will provide
 assistance to any competitor of Gaussian, Inc.  The licensee
 of this program is prohibited from giving any competitor of
 Gaussian, Inc. access to this program.  By using this program,
 the user acknowledges that Gaussian, Inc. is engaged in the
 business of creating and licensing software in the field of
 computational chemistry and represents and warrants to the
 licensee that it is not a competitor of Gaussian, Inc. and that
 it will not use this program in any manner prohibited above.
 ---------------------------------------------------------------
  

 Cite this work as:
 Gaussian 09, Revision A.02,
 M. J. Frisch, G. W. Trucks, H. B. Schlegel, G. E. Scuseria, 
 M. A. Robb, J. R. Cheeseman, G. Scalmani, V. Barone, B. Mennucci, 
 G. A. Petersson, H. Nakatsuji, M. Caricato, X. Li, H. P. Hratchian, 
 A. F. Izmaylov, J. Bloino, G. Zheng, J. L. Sonnenberg, M. Hada, 
 M. Ehara, K. Toyota, R. Fukuda, J. Hasegawa, M. Ishida, T. Nakajima, 
 Y. Honda, O. Kitao, H. Nakai, T. Vreven, J. A. Montgomery, Jr., 
 J. E. Peralta, F. Ogliaro, M. Bearpark, J. J. Heyd, E. Brothers, 
 K. N. Kudin, V. N. Staroverov, R. Kobayashi, J. Normand, 
 K. Raghavachari, A. Rendell, J. C. Burant, S. S. Iyengar, J. Tomasi, 
 M. Cossi, N. Rega, J. M. Millam, M. Klene, J. E. Knox, J. B. Cross, 
 V. Bakken, C. Adamo, J. Jaramillo, R. Gomperts, R. E. Stratmann, 
 O. Yazyev, A. J. Austin, R. Cammi, C. Pomelli, J. W. Ochterski, 
 R. L. Martin, K. Morokuma, V. G. Zakrzewski, G. A. Voth, 
 P. Salvador, J. J. Dannenberg, S. Dapprich, A. D. Daniels, 
 O. Farkas, J. B. Foresman, J. V. Ortiz, J. Cioslowski, 
 and D. J. Fox, Gaussian, Inc., Wallingford CT, 2009.
 
 ******************************************
 Gaussian 09:  EM64L-G09RevA.02 11-Jun-2009
                29-Dec-2019 
 ******************************************
 %RWF=/scratch/bdw2292/Gau-methanol/,100GB
 %Nosave
 %Chk=methanol-sp-6-1-2-3-173.chk
 %Mem=700MB
 %Nproc=1
 Will use up to    1 processors via shared memory.
 ----------------------------------------------------------------------
 #P MP2/6-311++G(2d,2p) SP SCF=(qc,maxcycle=800) Guess=Indo MaxDisk=100
 GB SCRF=(PCM)
 ----------------------------------------------------------------------
 1/38=1/1;
 2/12=2,17=6,18=5,40=1/2;
 3/5=4,6=6,7=1212,11=9,16=1,25=1,30=1,70=2201,72=1/1,2,3;
 4/5=4,11=3/1;
 5/5=2,7=800,8=3,38=5/8;
 8/10=2/1;
 9/16=-3/6;
 6/7=2,8=2,9=2,10=2/1;
 99/5=1,9=1/99;
 Leave Link    1 at Sun Dec 29 12:28:18 2019, MaxMem=   91750400 cpu:       0.0
 (Enter /opt/g09gh/gaussian/g09/l101.exe)
 ---------------------------------------------------------------
 methanol Rotatable Bond SP Calculation on node36.bme.utexas.edu
 ---------------------------------------------------------------
 Symbolic Z-matrix:
 Charge =  0 Multiplicity = 1
 O                    -0.75022   0.13248   0.04882 
 C                     0.6776    0.00129   0.00302 
 H                     1.11638   1.00328  -0.00829 
 H                     0.94719  -0.57276  -0.88861 
 H                     0.9942   -0.53617   0.90257 
 H                    -1.11002  -0.76648  -0.05755 
 
 NAtoms=      6 NQM=      6 NQMF=      0 NMic=      0 NMicF=      0 NTot=      6.
                    Isotopes and Nuclear Properties:
 (Nuclear quadrupole moments (NQMom) in fm**2, nuclear magnetic moments (NMagM)
  in nuclear magnetons)

  Atom         1           2           3           4           5           6
 IAtWgt=          16          12           1           1           1           1
 AtmWgt=  15.9949146  12.0000000   1.0078250   1.0078250   1.0078250   1.0078250
 NucSpn=           0           0           1           1           1           1
 AtZEff=   0.0000000   0.0000000   0.0000000   0.0000000   0.0000000   0.0000000
 NQMom=    0.0000000   0.0000000   0.0000000   0.0000000   0.0000000   0.0000000
 NMagM=    0.0000000   0.0000000   2.7928460   2.7928460   2.7928460   2.7928460
 Leave Link  101 at Sun Dec 29 12:28:18 2019, MaxMem=   91750400 cpu:       0.1
 (Enter /opt/g09gh/gaussian/g09/l202.exe)
                          Input orientation:                          
 ---------------------------------------------------------------------
 Center     Atomic      Atomic             Coordinates (Angstroms)
 Number     Number       Type             X           Y           Z
 ---------------------------------------------------------------------
      1          8           0       -0.750224    0.132482    0.048816
      2          6           0        0.677600    0.001294    0.003019
      3          1           0        1.116383    1.003280   -0.008291
      4          1           0        0.947190   -0.572757   -0.888614
      5          1           0        0.994196   -0.536165    0.902566
      6          1           0       -1.110024   -0.766481   -0.057554
 ---------------------------------------------------------------------
                    Distance matrix (angstroms):
                    1          2          3          4          5
     1  O    0.000000
     2  C    1.434569   0.000000
     3  H    2.060527   1.093908   0.000000
     4  H    2.063335   1.094177   1.813143   0.000000
     5  H    2.054015   1.094660   1.792897   1.792170   0.000000
     6  H    0.974118   1.946470   2.844533   2.227177   2.324353
                    6
     6  H    0.000000
 Stoichiometry    CH4O
 Framework group  C1[X(CH4O)]
 Deg. of freedom    12
 Full point group                 C1      NOp   1
 Largest Abelian subgroup         C1      NOp   1
 Largest concise Abelian subgroup C1      NOp   1
                         Standard orientation:                         
 ---------------------------------------------------------------------
 Center     Atomic      Atomic             Coordinates (Angstroms)
 Number     Number       Type             X           Y           Z
 ---------------------------------------------------------------------
      1          8           0       -0.749847    0.130972   -0.002935
      2          6           0        0.676997   -0.017713   -0.002771
      3          1           0        1.127052    0.967999   -0.152627
      4          1           0        0.955228   -0.718575   -0.795615
      5          1           0        0.972305   -0.420157    0.971453
      6          1           0       -1.117794   -0.770764    0.016895
 ---------------------------------------------------------------------
 Rotational constants (GHZ):    124.2732053     24.7226327     23.7460837
 Leave Link  202 at Sun Dec 29 12:28:18 2019, MaxMem=   91750400 cpu:       0.0
 (Enter /opt/g09gh/gaussian/g09/l301.exe)
 Standard basis: 6-311++G(2d,2p) (5D, 7F)
 Ernie: Thresh=  0.10000D-02 Tol=  0.10000D-05 Strict=F.
 There are    94 symmetry adapted basis functions of A   symmetry.
 Integral buffers will be    131072 words long.
 Raffenetti 1 integral format.
 Two-electron integral symmetry is turned on.
    94 basis functions,   132 primitive gaussians,    98 cartesian basis functions
     9 alpha electrons        9 beta electrons
       nuclear repulsion energy        40.0887780287 Hartrees.
 IExCor=    0 DFT=F Ex=HF Corr=None ExCW=0 ScaHFX=  1.000000
 ScaDFX=  1.000000  1.000000  1.000000  1.000000 ScalE2=  1.000000  1.000000
 IRadAn=      0 IRanWt=     -1 IRanGd=            0 ICorTp=0
 NAtoms=    6 NActive=    6 NUniq=    6 SFac= 7.50D-01 NAtFMM=   80 NAOKFM=F Big=F
 ------------------------------------------------------------------------------
 Polarizable Continuum Model (PCM)
 =================================
 Model                : PCM.
 Atomic radii         : UFF (Universal Force Field).
 Polarization charges : Total charges.
 Charge compensation  : None.
 Solution method      : Matrix inversion.
 Cavity type          : Scaled VdW (van der Waals Surface) (Alpha=1.100).
 Cavity algorithm     : GePol (No added spheres)
                        Default sphere list used, NSphG=    6.
                        Lebedev-Laikov grids with approx.  5.0 points / Ang**2.
                        Smoothing algorithm: Karplus/York (Gamma=1.0000).
                        Polarization charges: spherical gaussians, with
                                              point-specific exponents (IZeta= 3).
                        Self-potential: point-specific (ISelfS= 7).
                        Self-field    : sphere-specific E.n sum rule (ISelfD= 2).
 Solvent              : Water, Eps=  78.355300 Eps(inf)=   1.777849
 ------------------------------------------------------------------------------
 Spheres list:
 ISph  on   Nord    Re0     Alpha      Xe            Ye            Ze
    1   O      1    1.750   1.100     -0.749847      0.130972     -0.002935
    2   C      2    1.926   1.100      0.676997     -0.017713     -0.002771
    3   H      3    1.443   1.100      1.127052      0.967999     -0.152627
    4   H      4    1.443   1.100      0.955228     -0.718575     -0.795615
    5   H      5    1.443   1.100      0.972305     -0.420157      0.971453
    6   H      6    1.443   1.100     -1.117794     -0.770764      0.016895
 ------------------------------------------------------------------------------
 GePol: Number of generator spheres                  =       6
 GePol: Total number of spheres                      =       6
 GePol: Number of exposed spheres                    =       6 (100.00%)
 GePol: Number of points                             =     616
 GePol: Average weight of points                     =       0.14
 GePol: Minimum weight of points                     =   0.50D-06
 GePol: Maximum weight of points                     =    0.20577
 GePol: Number of points with low weight             =      27
 GePol: Fraction of low-weight points (<1% of avg)   =       4.38%
 GePol: Cavity surface area                          =     83.737 Ang**2
 GePol: Cavity volume                                =     65.104 Ang**3
 Leave Link  301 at Sun Dec 29 12:28:18 2019, MaxMem=   91750400 cpu:       0.1
 (Enter /opt/g09gh/gaussian/g09/l302.exe)
 NPDir=0 NMtPBC=     1 NCelOv=     1 NCel=       1 NClECP=     1 NCelD=      1
         NCelK=      1 NCelE2=     1 NClLst=     1 CellRange=     0.0.
 One-electron integrals computed using PRISM.
 NBasis=    94 RedAO= T  NBF=    94
 NBsUse=    94 1.00D-06 NBFU=    94
 Leave Link  302 at Sun Dec 29 12:28:18 2019, MaxMem=   91750400 cpu:       0.1
 (Enter /opt/g09gh/gaussian/g09/l303.exe)
 DipDrv:  MaxL=1.
 Leave Link  303 at Sun Dec 29 12:28:18 2019, MaxMem=   91750400 cpu:       0.0
 (Enter /opt/g09gh/gaussian/g09/l401.exe)
 Projected INDO guess.
 Initial guess orbital symmetries:
       Occupied  (A) (A) (A) (A) (A) (A) (A) (A) (A)
       Virtual   (A) (A) (A) (A) (A) (A) (A) (A) (A) (A) (A) (A)
                 (A) (A) (A) (A) (A) (A) (A) (A) (A) (A) (A) (A)
                 (A) (A) (A) (A) (A) (A) (A) (A) (A) (A) (A) (A)
                 (A) (A) (A) (A) (A) (A) (A) (A) (A) (A) (A) (A)
                 (A) (A) (A) (A) (A) (A) (A) (A) (A) (A) (A) (A)
                 (A) (A) (A) (A) (A) (A) (A) (A) (A) (A) (A) (A)
                 (A) (A) (A) (A) (A) (A) (A) (A) (A) (A) (A) (A)
                 (A)
 The electronic state of the initial guess is 1-A.
 Leave Link  401 at Sun Dec 29 12:28:18 2019, MaxMem=   91750400 cpu:       0.1
 (Enter /opt/g09gh/gaussian/g09/l508.exe)
 Direct SCF.
 Tight linear equation convergence will be used.
 RHF wavefunction.
 Quadratic Convergence SCF Method.
 Line search only if initial step raises energy.
 Integral symmetry usage will be decided dynamically.
 ReadGW:  IGet=1 IStart=           2 Next=           2 LGW=           0.
 Keep R1 ints in memory in canonical form, NReq=15238418.
 Symmetry not used in FoFDir.
 MinBra= 0 MaxBra= 2 Meth= 1.
 IRaf=       0 NMat=   1 IRICut=       1 DoRegI=T DoRafI=F ISym2E= 0 JSym2E=0.
 Iteration   1 EE= -114.500458336450                                    Grad=2.170D+00
 Gradient too large for Newton-Raphson -- use scaled steepest descent instead.
     ILin= 1 X=0.000D+00 Y=-1.145004583364D+02 DE= 0.00D+00
     ILin= 2 X=3.000D-01 Y=-1.147773249792D+02 DE=-2.77D-01
     ILin= 3 X=4.243D-01 Y=-1.148655852457D+02 DE=-3.65D-01
     ILin= 4 X=6.000D-01 Y=-1.149635939558D+02 DE=-4.63D-01
     ILin= 5 X=8.485D-01 Y=-1.150479750759D+02 DE=-5.48D-01
     ILin= 6 X=1.200D+00 Y=-1.150575091426D+02 DE=-5.57D-01
     ILin= 7 X=1.697D+00 Y=-1.148491695979D+02 DE=-3.49D-01
     An  expanding polynomial of degree  7 produced  1.0503
 Iteration   2 EE= -115.069265396451     Delta-E=       -0.568807060001 Grad=1.802D-01
 Gradient too large for Newton-Raphson -- use scaled steepest descent instead.
     ILin= 1 X=0.000D+00 Y=-1.150692653965D+02 DE= 0.00D+00
     ILin= 2 X=1.050D+00 Y=-1.150831251321D+02 DE=-1.39D-02
     ILin= 3 X=1.485D+00 Y=-1.150748384079D+02 DE=-5.57D-03
     An  expanding polynomial of degree  3 produced  0.8291
 Iteration   3 EE= -115.084212933917     Delta-E=       -0.014947537466 Grad=6.902D-02
 Gradient too large for Newton-Raphson -- use scaled steepest descent instead.
     ILin= 1 X=0.000D+00 Y=-1.150842129339D+02 DE= 0.00D+00
     ILin= 2 X=8.291D-01 Y=-1.150871373493D+02 DE=-2.92D-03
     ILin= 3 X=1.173D+00 Y=-1.150871205239D+02 DE=-2.91D-03
     An  expanding polynomial of degree  3 produced  0.9928
 Iteration   4 EE= -115.087219790036     Delta-E=       -0.003006856119 Grad=3.693D-02
 Gradient too large for Newton-Raphson -- use scaled steepest descent instead.
     ILin= 1 X=0.000D+00 Y=-1.150872197900D+02 DE= 0.00D+00
     ILin= 2 X=9.928D-01 Y=-1.150879426866D+02 DE=-7.23D-04
     ILin= 3 X=1.404D+00 Y=-1.150876426551D+02 DE=-4.23D-04
     An  expanding polynomial of degree  3 produced  0.8471
 Iteration   5 EE= -115.087964884404     Delta-E=       -0.000745094368 Grad=1.737D-02
 Gradient too large for Newton-Raphson -- use scaled steepest descent instead.
     ILin= 1 X=0.000D+00 Y=-1.150879648844D+02 DE= 0.00D+00
     ILin= 2 X=8.471D-01 Y=-1.150881595930D+02 DE=-1.95D-04
     ILin= 3 X=1.198D+00 Y=-1.150881538008D+02 DE=-1.89D-04
     An  expanding polynomial of degree  3 produced  0.9823
 Iteration   6 EE= -115.088163372461     Delta-E=       -0.000198488057 Grad=9.884D-03
 QCNR:  CnvC1=3.91D-09 CnvC2=3.91D-08
 LinEq1:  Iter=  0 NonCon=     1 RMS=1.89D-04 Max=1.51D-03
 AX will form     1 AO Fock derivatives at one time.
 LinEq1:  Iter=  1 NonCon=     1 RMS=1.10D-04 Max=8.12D-04
 LinEq1:  Iter=  2 NonCon=     1 RMS=4.10D-06 Max=3.47D-05
 LinEq1:  Iter=  3 NonCon=     1 RMS=1.38D-06 Max=9.87D-06
 LinEq1:  Iter=  4 NonCon=     1 RMS=1.84D-07 Max=1.31D-06
 LinEq1:  Iter=  5 NonCon=     1 RMS=1.63D-08 Max=1.17D-07
 LinEq1:  Iter=  6 NonCon=     0 RMS=1.41D-09 Max=8.23D-09
 Linear equations converged to 3.912D-09 3.912D-08 after     6 iterations.
 Angle between quadratic step and gradient=  46.50 degrees.
     ILin= 1 X=0.000D+00 Y=-1.150881633725D+02 DE= 0.00D+00
     ILin= 2 X=1.000D+00 Y=-1.150882376908D+02 DE=-7.43D-05
     ILin= 3 X=1.414D+00 Y=-1.150882251518D+02 DE=-6.18D-05
     An  expanding polynomial of degree  3 produced  1.0024
 Iteration   7 EE= -115.088237691162     Delta-E=       -0.000074318701 Grad=2.203D-05
 QCNR:  CnvC1=2.20D-10 CnvC2=2.20D-09
 LinEq1:  Iter=  0 NonCon=     1 RMS=3.74D-07 Max=3.25D-06
 LinEq1:  Iter=  1 NonCon=     1 RMS=7.79D-08 Max=6.23D-07
 LinEq1:  Iter=  2 NonCon=     1 RMS=2.54D-08 Max=2.44D-07
 LinEq1:  Iter=  3 NonCon=     1 RMS=4.54D-09 Max=2.26D-08
 LinEq1:  Iter=  4 NonCon=     1 RMS=1.03D-09 Max=7.10D-09
 LinEq1:  Iter=  5 NonCon=     1 RMS=2.95D-10 Max=2.48D-09
 LinEq1:  Iter=  6 NonCon=     0 RMS=6.14D-11 Max=4.55D-10
 Linear equations converged to 2.203D-10 2.203D-09 after     6 iterations.
 Angle between quadratic step and gradient=  43.15 degrees.
     ILin= 1 X=0.000D+00 Y=-1.150882376912D+02 DE= 0.00D+00
     ILin= 2 X=1.000D+00 Y=-1.150882376915D+02 DE=-3.22D-10
 Iteration   8 EE= -115.088237691484     Delta-E=       -0.000000000322 Grad=9.548D-09
 Error on total polarization charges =  0.00632
 Rotation gradient small -- convergence achieved.
 SCF Done:  E(RHF) =  -115.088237691     a.u. after    8 cycles
            Convg  =    0.9548D-08                    36 Fock formations.
              S**2 =  0.0000                  -V/T =  2.0016
 Leave Link  508 at Sun Dec 29 12:28:29 2019, MaxMem=   91750400 cpu:      11.1
 (Enter /opt/g09gh/gaussian/g09/l801.exe)
 ExpMin= 3.60D-02 ExpMax= 8.59D+03 ExpMxC= 1.30D+03 IAcc=3 IRadAn=         5 AccDes= 0.00D+00
 HarFok:  IExCor=  205 AccDes= 0.00D+00 IRadAn=         5 IDoV=-2
 ScaDFX=  1.000000  1.000000  1.000000  1.000000
 Largest valence mixing into a core orbital is  1.37D-04
 Largest core mixing into a valence orbital is  3.63D-05
 Range of M.O.s used for correlation:     3    94
 NBasis=    94 NAE=     9 NBE=     9 NFC=     2 NFV=     0
 NROrb=     92 NOA=     7 NOB=     7 NVA=    85 NVB=    85

 **** Warning!!: The largest alpha MO coefficient is  0.15668473D+02

 Leave Link  801 at Sun Dec 29 12:28:30 2019, MaxMem=   91750400 cpu:       0.4
 (Enter /opt/g09gh/gaussian/g09/l906.exe)
 FulOut=F Deriv=F AODrv=F NAtomX=     6
   MMem=        1402  MDisk=           7 MDiskD=           7
  W3Min=       58310 MinDsk=      182258 NBas6D=          98
 NBas2D=        4983    NTT=        4851    LW2=     2000000
    MDV=    91690351 MDiskM=       12711 NBas2p=        4983
 Fully in-core method, ICMem=    31042459.
 IMap=   1   2   3   4   5   6   7
 JobTyp=1 Pass  1 fully in-core, NPsUse=  1.
 Compute canonical integrals, IntTyp=   4.
 Symmetry not used in FoFDir.
 MinBra= 0 MaxBra= 2 Meth= 1.
 IRaf=       0 NMat=   1 IRICut=       1 DoRegI=T DoRafI=F ISym2E= 0 JSym2E=0.
 Spin components of T(2) and E(2):
     alpha-alpha T2 =       0.1321047534D-01 E2=     -0.4650286606D-01
     alpha-beta  T2 =       0.8252411158D-01 E2=     -0.2991739280D+00
     beta-beta   T2 =       0.1321047534D-01 E2=     -0.4650286606D-01
 The integrals were generated   1 times.
 ANorm=    0.1053064605D+01
 E2 =    -0.3921796601D+00 EUMP2 =    -0.11548041735156D+03
 Leave Link  906 at Sun Dec 29 12:28:32 2019, MaxMem=   91750400 cpu:       1.8
 (Enter /opt/g09gh/gaussian/g09/l601.exe)
 Copying SCF densities to generalized density rwf, IOpCl= 0 IROHF=0.

 **********************************************************************

            Population analysis using the SCF density.

 **********************************************************************

 Orbital symmetries:
       Occupied  (A) (A) (A) (A) (A) (A) (A) (A) (A)
       Virtual   (A) (A) (A) (A) (A) (A) (A) (A) (A) (A) (A) (A)
                 (A) (A) (A) (A) (A) (A) (A) (A) (A) (A) (A) (A)
                 (A) (A) (A) (A) (A) (A) (A) (A) (A) (A) (A) (A)
                 (A) (A) (A) (A) (A) (A) (A) (A) (A) (A) (A) (A)
                 (A) (A) (A) (A) (A) (A) (A) (A) (A) (A) (A) (A)
                 (A) (A) (A) (A) (A) (A) (A) (A) (A) (A) (A) (A)
                 (A) (A) (A) (A) (A) (A) (A) (A) (A) (A) (A) (A)
                 (A)
 The electronic state is 1-A.
 Alpha  occ. eigenvalues --  -20.56203 -11.27063  -1.35514  -0.92084  -0.68717
 Alpha  occ. eigenvalues --   -0.62071  -0.59389  -0.50862  -0.45218
 Alpha virt. eigenvalues --    0.04438   0.06754   0.07711   0.08058   0.12570
 Alpha virt. eigenvalues --    0.15457   0.15855   0.18646   0.26712   0.28018
 Alpha virt. eigenvalues --    0.28170   0.29585   0.30423   0.32020   0.34322
 Alpha virt. eigenvalues --    0.38730   0.46265   0.56218   0.57015   0.67900
 Alpha virt. eigenvalues --    0.72901   0.73857   0.75684   0.76922   0.79039
 Alpha virt. eigenvalues --    0.79509   0.87826   0.95024   1.04788   1.05464
 Alpha virt. eigenvalues --    1.14669   1.20955   1.21805   1.28932   1.29846
 Alpha virt. eigenvalues --    1.33150   1.35282   1.41151   1.50823   1.53074
 Alpha virt. eigenvalues --    1.56101   1.64055   1.66733   1.69373   1.77476
 Alpha virt. eigenvalues --    1.80695   2.10910   2.23225   2.25706   2.54122
 Alpha virt. eigenvalues --    2.54812   2.89550   2.93254   3.10501   3.26108
 Alpha virt. eigenvalues --    3.50017   3.53798   3.65521   3.66775   3.70211
 Alpha virt. eigenvalues --    3.94866   3.96997   4.00058   4.12988   4.16491
 Alpha virt. eigenvalues --    4.25398   4.30755   4.41161   4.44632   4.46240
 Alpha virt. eigenvalues --    4.49399   4.57323   4.77184   5.43067   5.44974
 Alpha virt. eigenvalues --    5.59317   5.97381   6.45667   7.46734   7.55857
 Alpha virt. eigenvalues --    7.61315   7.72848   8.01207  25.11092  51.63449
          Condensed to atoms (all electrons):
              1          2          3          4          5          6
     1  O    8.267307   0.151889  -0.051788  -0.038468  -0.046841   0.277372
     2  C    0.151889   4.422698   0.433592   0.438651   0.438823  -0.023505
     3  H   -0.051788   0.433592   0.626504  -0.030505  -0.035700   0.007365
     4  H   -0.038468   0.438651  -0.030505   0.632955  -0.037581  -0.008648
     5  H   -0.046841   0.438823  -0.035700  -0.037581   0.641728  -0.004766
     6  H    0.277372  -0.023505   0.007365  -0.008648  -0.004766   0.469032
 Mulliken atomic charges:
              1
     1  O   -0.559471
     2  C    0.137852
     3  H    0.050533
     4  H    0.043597
     5  H    0.044339
     6  H    0.283150
 Sum of Mulliken atomic charges =   0.00000
 Mulliken charges with hydrogens summed into heavy atoms:
              1
     1  O   -0.276321
     2  C    0.276321
 Sum of Mulliken charges with hydrogens summed into heavy atoms =   0.00000
 Electronic spatial extent (au):  <R**2>=             84.5100
 Charge=              0.0000 electrons
 Dipole moment (field-independent basis, Debye):
    X=              1.2669    Y=             -1.9245    Z=              0.0327  Tot=              2.3043
 Quadrupole moment (field-independent basis, Debye-Ang):
   XX=            -13.1472   YY=            -11.8892   ZZ=            -13.7545
   XY=              2.5476   XZ=             -0.0875   YZ=             -0.0119
 Traceless Quadrupole moment (field-independent basis, Debye-Ang):
   XX=             -0.2169   YY=              1.0411   ZZ=             -0.8242
   XY=              2.5476   XZ=             -0.0875   YZ=             -0.0119
 Octapole moment (field-independent basis, Debye-Ang**2):
  XXX=             -3.3055  YYY=             -1.3012  ZZZ=              0.3284  XYY=             -1.5229
  XXY=             -2.6774  XXZ=              0.0234  XZZ=              0.0130  YZZ=             -0.9364
  YYZ=             -0.3002  XYZ=              0.0356
 Hexadecapole moment (field-independent basis, Debye-Ang**3):
 XXXX=            -62.2402 YYYY=            -19.7133 ZZZZ=            -19.5976 XXXY=              4.6377
 XXXZ=             -0.1982 YYYX=              3.4476 YYYZ=              0.0639 ZZZX=              0.2589
 ZZZY=             -0.0228 XXYY=            -12.2366 XXZZ=            -14.5662 YYZZ=             -6.6600
 XXYZ=             -0.0861 YYXZ=             -0.4053 ZZXY=             -0.1087
 N-N= 4.008877802871D+01 E-N=-3.513781349727D+02  KE= 1.149046451171D+02
 Leave Link  601 at Sun Dec 29 12:28:32 2019, MaxMem=   91750400 cpu:       0.1
 (Enter /opt/g09gh/gaussian/g09/l9999.exe)
 1\1\GINC-NODE36\SP\RMP2-FC\6-311++G(2d,2p)\C1H4O1\BDW2292\29-Dec-2019\
 0\\#P MP2/6-311++G(2d,2p) SP SCF=(qc,maxcycle=800) Guess=Indo MaxDisk=
 100GB SCRF=(PCM)\\methanol Rotatable Bond SP Calculation on node36.bme
 .utexas.edu\\0,1\O,0,-0.750224,0.132482,0.048816\C,0,0.6776,0.001294,0
 .003019\H,0,1.116383,1.00328,-0.008291\H,0,0.94719,-0.572757,-0.888614
 \H,0,0.994196,-0.536165,0.902566\H,0,-1.110024,-0.766481,-0.057554\\Ve
 rsion=EM64L-G09RevA.02\State=1-A\HF=-115.0882377\MP2=-115.4804174\RMSD
 =0.000e+00\PG=C01 [X(C1H4O1)]\\@


      HUMANKIND PERIODICALLY GOES THROUGH A SPEEDUP OF ITS AFFAIRS, 
      THEREBY EXPERIENCING THE RACE BETWEEN THE RENEWABLE VITALITY
      OF THE LIVING, AND THE BECKONING VITIATION OF DECADENCE.
      IN THIS PERIODIC RACE, ANY PAUSE BECOMES A LUXURY.
      ONLY THEN CAN ONE REFLECT THAT ALL IS PERMITTED;
      ALL IS POSSIBLE.

                              -- THE APOCRYPHA OF MUAD'DIB
                                 CHILDREN OF DUNE, BY FRANK HERBERT
 Job cpu time:  0 days  0 hours  0 minutes 13.9 seconds.
 File lengths (MBytes):  RWF=     13 Int=      0 D2E=      0 Chk=      2 Scr=      1
 Normal termination of Gaussian 09 at Sun Dec 29 12:28:32 2019.
