6
methanol-opt-6-1-2-3-089.log	Energy:  -72203.5791151
O         -0.73584        0.11949        0.00000
C          0.65514       -0.01965        0.00000
H          1.01141       -0.54433       -0.88317
H          1.01152       -0.54251        0.88421
H          1.07615        0.97523       -0.00107
H         -1.14322       -0.72640        0.00000
