 Entering Gaussian System, Link 0=g09
 Input=methanol-opt-6-1-2-3-037.com
 Output=methanol-opt-6-1-2-3-037.log
 Initial command:
 /opt/g09gh/gaussian/g09/l1.exe /scratch/bdw2292/Gau-methanol/Gau-40297.inp -scrdir=/scratch/bdw2292/Gau-methanol/
 Entering Link 1 = /opt/g09gh/gaussian/g09/l1.exe PID=     40298.
  
 Copyright (c) 1988,1990,1992,1993,1995,1998,2003,2009, Gaussian, Inc.
                  All Rights Reserved.
  
 This is part of the Gaussian(R) 09 program.  It is based on
 the Gaussian(R) 03 system (copyright 2003, Gaussian, Inc.),
 the Gaussian(R) 98 system (copyright 1998, Gaussian, Inc.),
 the Gaussian(R) 94 system (copyright 1995, Gaussian, Inc.),
 the Gaussian 92(TM) system (copyright 1992, Gaussian, Inc.),
 the Gaussian 90(TM) system (copyright 1990, Gaussian, Inc.),
 the Gaussian 88(TM) system (copyright 1988, Gaussian, Inc.),
 the Gaussian 86(TM) system (copyright 1986, Carnegie Mellon
 University), and the Gaussian 82(TM) system (copyright 1983,
 Carnegie Mellon University). Gaussian is a federally registered
 trademark of Gaussian, Inc.
  
 This software contains proprietary and confidential information,
 including trade secrets, belonging to Gaussian, Inc.
  
 This software is provided under written license and may be
 used, copied, transmitted, or stored only in accord with that
 written license.
  
 The following legend is applicable only to US Government
 contracts under FAR:
  
                    RESTRICTED RIGHTS LEGEND
  
 Use, reproduction and disclosure by the US Government is
 subject to restrictions as set forth in subparagraphs (a)
 and (c) of the Commercial Computer Software - Restricted
 Rights clause in FAR 52.227-19.
  
 Gaussian, Inc.
 340 Quinnipiac St., Bldg. 40, Wallingford CT 06492
  
  
 ---------------------------------------------------------------
 Warning -- This program may not be used in any manner that
 competes with the business of Gaussian, Inc. or will provide
 assistance to any competitor of Gaussian, Inc.  The licensee
 of this program is prohibited from giving any competitor of
 Gaussian, Inc. access to this program.  By using this program,
 the user acknowledges that Gaussian, Inc. is engaged in the
 business of creating and licensing software in the field of
 computational chemistry and represents and warrants to the
 licensee that it is not a competitor of Gaussian, Inc. and that
 it will not use this program in any manner prohibited above.
 ---------------------------------------------------------------
  

 Cite this work as:
 Gaussian 09, Revision A.02,
 M. J. Frisch, G. W. Trucks, H. B. Schlegel, G. E. Scuseria, 
 M. A. Robb, J. R. Cheeseman, G. Scalmani, V. Barone, B. Mennucci, 
 G. A. Petersson, H. Nakatsuji, M. Caricato, X. Li, H. P. Hratchian, 
 A. F. Izmaylov, J. Bloino, G. Zheng, J. L. Sonnenberg, M. Hada, 
 M. Ehara, K. Toyota, R. Fukuda, J. Hasegawa, M. Ishida, T. Nakajima, 
 Y. Honda, O. Kitao, H. Nakai, T. Vreven, J. A. Montgomery, Jr., 
 J. E. Peralta, F. Ogliaro, M. Bearpark, J. J. Heyd, E. Brothers, 
 K. N. Kudin, V. N. Staroverov, R. Kobayashi, J. Normand, 
 K. Raghavachari, A. Rendell, J. C. Burant, S. S. Iyengar, J. Tomasi, 
 M. Cossi, N. Rega, J. M. Millam, M. Klene, J. E. Knox, J. B. Cross, 
 V. Bakken, C. Adamo, J. Jaramillo, R. Gomperts, R. E. Stratmann, 
 O. Yazyev, A. J. Austin, R. Cammi, C. Pomelli, J. W. Ochterski, 
 R. L. Martin, K. Morokuma, V. G. Zakrzewski, G. A. Voth, 
 P. Salvador, J. J. Dannenberg, S. Dapprich, A. D. Daniels, 
 O. Farkas, J. B. Foresman, J. V. Ortiz, J. Cioslowski, 
 and D. J. Fox, Gaussian, Inc., Wallingford CT, 2009.
 
 ******************************************
 Gaussian 09:  EM64L-G09RevA.02 11-Jun-2009
                29-Dec-2019 
 ******************************************
 %RWF=/scratch/bdw2292/Gau-methanol/,100GB
 %Nosave
 %Chk=methanol-opt-6-1-2-3-037.chk
 %Mem=700MB
 %Nproc=1
 Will use up to    1 processors via shared memory.
 -----------------------------------------------
 #P opt=(,maxcycle=400) HF/6-311G* MaxDisk=100GB
 -----------------------------------------------
 1/6=400,18=20,19=15,38=1/1,3;
 2/9=110,12=2,17=6,18=5,40=1/2;
 3/5=4,6=6,7=1,11=9,16=1,25=1,30=1,71=1/1,2,3;
 4//1;
 5/5=2,38=5/2;
 6/7=2,8=2,9=2,10=2,28=1/1;
 7//1,2,3,16;
 1/6=400,18=20,19=15/3(2);
 2/9=110/2;
 99//99;
 2/9=110/2;
 3/5=4,6=6,7=1,11=9,16=1,25=1,30=1,71=1/1,2,3;
 4/5=5,16=3/1;
 5/5=2,38=5/2;
 7//1,2,3,16;
 1/6=400,18=20,19=15/3(-5);
 2/9=110/2;
 6/7=2,8=2,9=2,10=2,19=2,28=1/1;
 99/9=1/99;
 Leave Link    1 at Sun Dec 29 12:25:30 2019, MaxMem=   91750400 cpu:       0.0
 (Enter /opt/g09gh/gaussian/g09/l101.exe)
 -------------------------------------------------------------
 methanol Rotatable Bond Optimization on node36.bme.utexas.edu
 -------------------------------------------------------------
 Symbolic Z-matrix:
 Charge =  0 Multiplicity = 1
 O                     0.74391   0.11732  -0.00556 
 C                    -0.68508  -0.01093   0.00567 
 H                    -0.9568   -0.86813   0.62909 
 H                    -1.02945  -0.13222  -1.02564 
 H                    -1.09916   0.90721   0.43393 
 H                     1.10009  -0.78925  -0.00949 
 
 NAtoms=      6 NQM=      6 NQMF=      0 NMic=      0 NMicF=      0 NTot=      6.
                    Isotopes and Nuclear Properties:
 (Nuclear quadrupole moments (NQMom) in fm**2, nuclear magnetic moments (NMagM)
  in nuclear magnetons)

  Atom         1           2           3           4           5           6
 IAtWgt=          16          12           1           1           1           1
 AtmWgt=  15.9949146  12.0000000   1.0078250   1.0078250   1.0078250   1.0078250
 NucSpn=           0           0           1           1           1           1
 AtZEff=   0.0000000   0.0000000   0.0000000   0.0000000   0.0000000   0.0000000
 NQMom=    0.0000000   0.0000000   0.0000000   0.0000000   0.0000000   0.0000000
 NMagM=    0.0000000   0.0000000   2.7928460   2.7928460   2.7928460   2.7928460
 Leave Link  101 at Sun Dec 29 12:25:30 2019, MaxMem=   91750400 cpu:       0.1
 (Enter /opt/g09gh/gaussian/g09/l103.exe)

 GradGradGradGradGradGradGradGradGradGradGradGradGradGradGradGradGradGrad
 Berny optimization.
 Initialization pass.
                           ----------------------------
                           !    Initial Parameters    !
                           ! (Angstroms and Degrees)  !
 --------------------------                            --------------------------
 ! Name  Definition              Value          Derivative Info.                !
 --------------------------------------------------------------------------------
 ! R1    R(1,2)                  1.4348         estimate D2E/DX2                !
 ! R2    R(1,6)                  0.974          estimate D2E/DX2                !
 ! R3    R(2,3)                  1.0942         estimate D2E/DX2                !
 ! R4    R(2,4)                  1.094          estimate D2E/DX2                !
 ! R5    R(2,5)                  1.0945         estimate D2E/DX2                !
 ! A1    A(2,1,6)              106.3216         estimate D2E/DX2                !
 ! A2    A(1,2,3)              108.7728         estimate D2E/DX2                !
 ! A3    A(1,2,4)              108.4233         estimate D2E/DX2                !
 ! A4    A(1,2,5)              107.7513         estimate D2E/DX2                !
 ! A5    A(3,2,4)              111.8437         estimate D2E/DX2                !
 ! A6    A(3,2,5)              109.8948         estimate D2E/DX2                !
 ! A7    A(4,2,5)              110.0459         estimate D2E/DX2                !
 ! D1    D(6,1,2,3)             36.9168         estimate D2E/DX2                !
 ! D2    D(6,1,2,4)            -84.9153         estimate D2E/DX2                !
 ! D3    D(6,1,2,5)            156.0075         estimate D2E/DX2                !
 --------------------------------------------------------------------------------
 Trust Radius=3.00D-01 FncErr=1.00D-07 GrdErr=1.00D-07
 Number of steps in this run= 100 maximum allowed number of steps= 100.
 GradGradGradGradGradGradGradGradGradGradGradGradGradGradGradGradGradGrad

 Leave Link  103 at Sun Dec 29 12:25:30 2019, MaxMem=   91750400 cpu:       0.0
 (Enter /opt/g09gh/gaussian/g09/l202.exe)
                          Input orientation:                          
 ---------------------------------------------------------------------
 Center     Atomic      Atomic             Coordinates (Angstroms)
 Number     Number       Type             X           Y           Z
 ---------------------------------------------------------------------
      1          8           0        0.743907    0.117322   -0.005560
      2          6           0       -0.685077   -0.010934    0.005670
      3          1           0       -0.956799   -0.868130    0.629094
      4          1           0       -1.029449   -0.132217   -1.025641
      5          1           0       -1.099158    0.907211    0.433933
      6          1           0        1.100086   -0.789251   -0.009492
 ---------------------------------------------------------------------
                    Distance matrix (angstroms):
                    1          2          3          4          5
     1  O    0.000000
     2  C    1.434772   0.000000
     3  H    2.065503   1.094201   0.000000
     4  H    2.060977   1.094031   1.812455   0.000000
     5  H    2.052795   1.094469   1.791700   1.793217   0.000000
     6  H    0.974040   1.947515   2.155177   2.449321   2.812700
                    6
     6  H    0.000000
 Stoichiometry    CH4O
 Framework group  C1[X(CH4O)]
 Deg. of freedom    12
 Full point group                 C1      NOp   1
 Largest Abelian subgroup         C1      NOp   1
 Largest concise Abelian subgroup C1      NOp   1
                         Standard orientation:                         
 ---------------------------------------------------------------------
 Center     Atomic      Atomic             Coordinates (Angstroms)
 Number     Number       Type             X           Y           Z
 ---------------------------------------------------------------------
      1          8           0        0.749893   -0.130340   -0.003285
      2          6           0       -0.676795    0.021674    0.001869
      3          1           0       -0.939734    0.897841   -0.598521
      4          1           0       -1.009856    0.124007    1.038933
      5          1           0       -1.109959   -0.879059   -0.444126
      6          1           0        1.121177    0.769890    0.018783
 ---------------------------------------------------------------------
 Rotational constants (GHZ):    124.3496060     24.6640008     23.7731507
 Leave Link  202 at Sun Dec 29 12:25:30 2019, MaxMem=   91750400 cpu:       0.0
 (Enter /opt/g09gh/gaussian/g09/l301.exe)
 Standard basis: 6-311G(d) (5D, 7F)
 Ernie: Thresh=  0.10000D-02 Tol=  0.10000D-05 Strict=F.
 There are    48 symmetry adapted basis functions of A   symmetry.
 Integral buffers will be    131072 words long.
 Raffenetti 1 integral format.
 Two-electron integral symmetry is turned on.
    48 basis functions,    84 primitive gaussians,    50 cartesian basis functions
     9 alpha electrons        9 beta electrons
       nuclear repulsion energy        40.0830483712 Hartrees.
 IExCor=    0 DFT=F Ex=HF Corr=None ExCW=0 ScaHFX=  1.000000
 ScaDFX=  1.000000  1.000000  1.000000  1.000000 ScalE2=  1.000000  1.000000
 IRadAn=      0 IRanWt=     -1 IRanGd=            0 ICorTp=0
 NAtoms=    6 NActive=    6 NUniq=    6 SFac= 7.50D-01 NAtFMM=   80 NAOKFM=F Big=F
 Leave Link  301 at Sun Dec 29 12:25:31 2019, MaxMem=   91750400 cpu:       0.1
 (Enter /opt/g09gh/gaussian/g09/l302.exe)
 NPDir=0 NMtPBC=     1 NCelOv=     1 NCel=       1 NClECP=     1 NCelD=      1
         NCelK=      1 NCelE2=     1 NClLst=     1 CellRange=     0.0.
 One-electron integrals computed using PRISM.
 NBasis=    48 RedAO= T  NBF=    48
 NBsUse=    48 1.00D-06 NBFU=    48
 Leave Link  302 at Sun Dec 29 12:25:31 2019, MaxMem=   91750400 cpu:       0.1
 (Enter /opt/g09gh/gaussian/g09/l303.exe)
 DipDrv:  MaxL=1.
 Leave Link  303 at Sun Dec 29 12:25:31 2019, MaxMem=   91750400 cpu:       0.0
 (Enter /opt/g09gh/gaussian/g09/l401.exe)
 Harris functional with IExCor=  205 diagonalized for initial guess.
 ExpMin= 1.03D-01 ExpMax= 8.59D+03 ExpMxC= 1.30D+03 IAcc=1 IRadAn=         1 AccDes= 0.00D+00
 HarFok:  IExCor=  205 AccDes= 0.00D+00 IRadAn=         1 IDoV= 1
 ScaDFX=  1.000000  1.000000  1.000000  1.000000
 FoFCou: FMM=F IPFlag=           0 FMFlag=      100000 FMFlg1=           0
         NFxFlg=           0 DoJE=T BraDBF=F KetDBF=T FulRan=T
         Omega=  0.000000  0.000000  1.000000  0.000000  0.000000 ICntrl=     500 IOpCl=  0
         NMat0=    1 NMatS0=    1 NMatT0=    0 NMatD0=    1 NMtDS0=    0 NMtDT0=    0
         I1Cent=           4 NGrid=           0.
 Petite list used in FoFCou.
 Harris En= -115.242837876097    
 Initial guess orbital symmetries:
       Occupied  (A) (A) (A) (A) (A) (A) (A) (A) (A)
       Virtual   (A) (A) (A) (A) (A) (A) (A) (A) (A) (A) (A) (A)
                 (A) (A) (A) (A) (A) (A) (A) (A) (A) (A) (A) (A)
                 (A) (A) (A) (A) (A) (A) (A) (A) (A) (A) (A) (A)
                 (A) (A) (A)
 The electronic state of the initial guess is 1-A.
 Leave Link  401 at Sun Dec 29 12:25:31 2019, MaxMem=   91750400 cpu:       0.2
 (Enter /opt/g09gh/gaussian/g09/l502.exe)
 Closed shell SCF:
 Requested convergence on RMS density matrix=1.00D-08 within 128 cycles.
 Requested convergence on MAX density matrix=1.00D-06.
 Requested convergence on             energy=1.00D-06.
 No special actions if energy rises.
 Using DIIS extrapolation, IDIIS=  1040.
 Integral symmetry usage will be decided dynamically.
 Keep R1 ints in memory in canonical form, NReq=1659792.
 IEnd=       26328 IEndB=       26328 NGot=    91750400 MDV=    90929785
 LenX=    90929785 LenY=    90926844
 Symmetry not used in FoFDir.
 MinBra= 0 MaxBra= 2 Meth= 1.
 IRaf=       0 NMat=   1 IRICut=       1 DoRegI=T DoRafI=F ISym2E= 0 JSym2E=0.

 Cycle   1  Pass 1  IDiag  1:
 E= -114.938628102067    
 DIIS: error= 5.88D-02 at cycle   1 NSaved=   1.
 NSaved= 1 IEnMin= 1 EnMin= -114.938628102067     IErMin= 1 ErrMin= 5.88D-02
 ErrMax= 5.88D-02 EMaxC= 1.00D-01 BMatC= 2.53D-01 BMatP= 2.53D-01
 IDIUse=3 WtCom= 4.12D-01 WtEn= 5.88D-01
 Coeff-Com:  0.100D+01
 Coeff-En:   0.100D+01
 Coeff:      0.100D+01
 Gap=     0.572 Goal=   None    Shift=    0.000
 GapD=    0.572 DampG=2.000 DampE=0.500 DampFc=1.0000 IDamp=-1.
 RMSDP=5.97D-03 MaxDP=8.20D-02              OVMax= 1.05D-01

 Cycle   2  Pass 1  IDiag  1:
 E= -115.035406396750     Delta-E=       -0.096778294683 Rises=F Damp=F
 DIIS: error= 2.70D-02 at cycle   2 NSaved=   2.
 NSaved= 2 IEnMin= 2 EnMin= -115.035406396750     IErMin= 2 ErrMin= 2.70D-02
 ErrMax= 2.70D-02 EMaxC= 1.00D-01 BMatC= 3.50D-02 BMatP= 2.53D-01
 IDIUse=3 WtCom= 7.30D-01 WtEn= 2.70D-01
 Coeff-Com:  0.218D+00 0.782D+00
 Coeff-En:   0.000D+00 0.100D+01
 Coeff:      0.159D+00 0.841D+00
 Gap=     0.631 Goal=   None    Shift=    0.000
 RMSDP=2.89D-03 MaxDP=4.57D-02 DE=-9.68D-02 OVMax= 4.11D-02

 Cycle   3  Pass 1  IDiag  1:
 E= -115.057129902798     Delta-E=       -0.021723506048 Rises=F Damp=F
 DIIS: error= 8.42D-03 at cycle   3 NSaved=   3.
 NSaved= 3 IEnMin= 3 EnMin= -115.057129902798     IErMin= 3 ErrMin= 8.42D-03
 ErrMax= 8.42D-03 EMaxC= 1.00D-01 BMatC= 3.79D-03 BMatP= 3.50D-02
 IDIUse=3 WtCom= 9.16D-01 WtEn= 8.42D-02
 Coeff-Com: -0.140D-01 0.224D+00 0.790D+00
 Coeff-En:   0.000D+00 0.000D+00 0.100D+01
 Coeff:     -0.128D-01 0.205D+00 0.808D+00
 Gap=     0.595 Goal=   None    Shift=    0.000
 RMSDP=6.61D-04 MaxDP=1.06D-02 DE=-2.17D-02 OVMax= 1.28D-02

 Cycle   4  Pass 1  IDiag  1:
 E= -115.059539966335     Delta-E=       -0.002410063537 Rises=F Damp=F
 DIIS: error= 1.41D-03 at cycle   4 NSaved=   4.
 NSaved= 4 IEnMin= 4 EnMin= -115.059539966335     IErMin= 4 ErrMin= 1.41D-03
 ErrMax= 1.41D-03 EMaxC= 1.00D-01 BMatC= 9.83D-05 BMatP= 3.79D-03
 IDIUse=3 WtCom= 9.86D-01 WtEn= 1.41D-02
 Coeff-Com: -0.675D-02 0.291D-01 0.200D+00 0.778D+00
 Coeff-En:   0.000D+00 0.000D+00 0.000D+00 0.100D+01
 Coeff:     -0.666D-02 0.287D-01 0.197D+00 0.781D+00
 Gap=     0.595 Goal=   None    Shift=    0.000
 RMSDP=1.32D-04 MaxDP=2.06D-03 DE=-2.41D-03 OVMax= 2.57D-03

 Cycle   5  Pass 1  IDiag  1:
 E= -115.059619474429     Delta-E=       -0.000079508094 Rises=F Damp=F
 DIIS: error= 3.48D-04 at cycle   5 NSaved=   5.
 NSaved= 5 IEnMin= 5 EnMin= -115.059619474429     IErMin= 5 ErrMin= 3.48D-04
 ErrMax= 3.48D-04 EMaxC= 1.00D-01 BMatC= 4.31D-06 BMatP= 9.83D-05
 IDIUse=3 WtCom= 9.97D-01 WtEn= 3.48D-03
 Coeff-Com:  0.122D-02-0.205D-01-0.731D-01-0.149D-01 0.111D+01
 Coeff-En:   0.000D+00 0.000D+00 0.000D+00 0.000D+00 0.100D+01
 Coeff:      0.122D-02-0.205D-01-0.729D-01-0.149D-01 0.111D+01
 Gap=     0.595 Goal=   None    Shift=    0.000
 RMSDP=5.57D-05 MaxDP=7.74D-04 DE=-7.95D-05 OVMax= 8.78D-04

 Cycle   6  Pass 1  IDiag  1:
 E= -115.059626257190     Delta-E=       -0.000006782761 Rises=F Damp=F
 DIIS: error= 5.10D-05 at cycle   6 NSaved=   6.
 NSaved= 6 IEnMin= 6 EnMin= -115.059626257190     IErMin= 6 ErrMin= 5.10D-05
 ErrMax= 5.10D-05 EMaxC= 1.00D-01 BMatC= 1.33D-07 BMatP= 4.31D-06
 IDIUse=1 WtCom= 1.00D+00 WtEn= 0.00D+00
 Coeff-Com:  0.242D-03-0.658D-03-0.396D-02-0.332D-01-0.930D-01 0.113D+01
 Coeff:      0.242D-03-0.658D-03-0.396D-02-0.332D-01-0.930D-01 0.113D+01
 Gap=     0.596 Goal=   None    Shift=    0.000
 RMSDP=1.29D-05 MaxDP=1.17D-04 DE=-6.78D-06 OVMax= 2.38D-04

 Cycle   7  Pass 1  IDiag  1:
 E= -115.059626560324     Delta-E=       -0.000000303134 Rises=F Damp=F
 DIIS: error= 1.11D-05 at cycle   7 NSaved=   7.
 NSaved= 7 IEnMin= 7 EnMin= -115.059626560324     IErMin= 7 ErrMin= 1.11D-05
 ErrMax= 1.11D-05 EMaxC= 1.00D-01 BMatC= 5.84D-09 BMatP= 1.33D-07
 IDIUse=1 WtCom= 1.00D+00 WtEn= 0.00D+00
 Coeff-Com: -0.107D-03 0.944D-03 0.405D-02 0.810D-02-0.160D-01-0.304D+00
 Coeff-Com:  0.131D+01
 Coeff:     -0.107D-03 0.944D-03 0.405D-02 0.810D-02-0.160D-01-0.304D+00
 Coeff:      0.131D+01
 Gap=     0.596 Goal=   None    Shift=    0.000
 RMSDP=3.03D-06 MaxDP=3.70D-05 DE=-3.03D-07 OVMax= 7.68D-05

 Cycle   8  Pass 1  IDiag  1:
 E= -115.059626576127     Delta-E=       -0.000000015803 Rises=F Damp=F
 DIIS: error= 1.88D-06 at cycle   8 NSaved=   8.
 NSaved= 8 IEnMin= 8 EnMin= -115.059626576127     IErMin= 8 ErrMin= 1.88D-06
 ErrMax= 1.88D-06 EMaxC= 1.00D-01 BMatC= 2.22D-10 BMatP= 5.84D-09
 IDIUse=1 WtCom= 1.00D+00 WtEn= 0.00D+00
 Coeff-Com:  0.178D-04-0.211D-03-0.949D-03-0.133D-02 0.641D-02 0.600D-01
 Coeff-Com: -0.418D+00 0.135D+01
 Coeff:      0.178D-04-0.211D-03-0.949D-03-0.133D-02 0.641D-02 0.600D-01
 Coeff:     -0.418D+00 0.135D+01
 Gap=     0.596 Goal=   None    Shift=    0.000
 RMSDP=7.18D-07 MaxDP=6.18D-06 DE=-1.58D-08 OVMax= 1.77D-05

 Cycle   9  Pass 1  IDiag  1:
 E= -115.059626576793     Delta-E=       -0.000000000666 Rises=F Damp=F
 DIIS: error= 5.45D-07 at cycle   9 NSaved=   9.
 NSaved= 9 IEnMin= 9 EnMin= -115.059626576793     IErMin= 9 ErrMin= 5.45D-07
 ErrMax= 5.45D-07 EMaxC= 1.00D-01 BMatC= 7.19D-12 BMatP= 2.22D-10
 IDIUse=1 WtCom= 1.00D+00 WtEn= 0.00D+00
 Coeff-Com: -0.205D-05 0.363D-04 0.180D-03 0.809D-04-0.196D-02-0.521D-02
 Coeff-Com:  0.771D-01-0.394D+00 0.132D+01
 Coeff:     -0.205D-05 0.363D-04 0.180D-03 0.809D-04-0.196D-02-0.521D-02
 Coeff:      0.771D-01-0.394D+00 0.132D+01
 Gap=     0.596 Goal=   None    Shift=    0.000
 RMSDP=1.08D-07 MaxDP=6.78D-07 DE=-6.66D-10 OVMax= 2.49D-06

 Cycle  10  Pass 1  IDiag  1:
 E= -115.059626576812     Delta-E=       -0.000000000019 Rises=F Damp=F
 DIIS: error= 9.84D-08 at cycle  10 NSaved=  10.
 NSaved=10 IEnMin=10 EnMin= -115.059626576812     IErMin=10 ErrMin= 9.84D-08
 ErrMax= 9.84D-08 EMaxC= 1.00D-01 BMatC= 2.79D-13 BMatP= 7.19D-12
 IDIUse=1 WtCom= 1.00D+00 WtEn= 0.00D+00
 Coeff-Com:  0.582D-08-0.329D-05-0.213D-04 0.254D-04 0.317D-03-0.217D-03
 Coeff-Com: -0.881D-02 0.653D-01-0.367D+00 0.131D+01
 Coeff:      0.582D-08-0.329D-05-0.213D-04 0.254D-04 0.317D-03-0.217D-03
 Coeff:     -0.881D-02 0.653D-01-0.367D+00 0.131D+01
 Gap=     0.596 Goal=   None    Shift=    0.000
 RMSDP=2.03D-08 MaxDP=1.80D-07 DE=-1.94D-11 OVMax= 4.02D-07

 Cycle  11  Pass 1  IDiag  1:
 E= -115.059626576813     Delta-E=       -0.000000000001 Rises=F Damp=F
 DIIS: error= 1.67D-08 at cycle  11 NSaved=  11.
 NSaved=11 IEnMin=11 EnMin= -115.059626576813     IErMin=11 ErrMin= 1.67D-08
 ErrMax= 1.67D-08 EMaxC= 1.00D-01 BMatC= 1.29D-14 BMatP= 2.79D-13
 IDIUse=1 WtCom= 1.00D+00 WtEn= 0.00D+00
 Coeff-Com:  0.101D-06-0.166D-05-0.720D-05-0.719D-05 0.681D-04 0.303D-03
 Coeff-Com: -0.325D-02 0.154D-01-0.326D-01-0.169D+00 0.119D+01
 Coeff:      0.101D-06-0.166D-05-0.720D-05-0.719D-05 0.681D-04 0.303D-03
 Coeff:     -0.325D-02 0.154D-01-0.326D-01-0.169D+00 0.119D+01
 Gap=     0.596 Goal=   None    Shift=    0.000
 RMSDP=5.29D-09 MaxDP=3.72D-08 DE=-1.17D-12 OVMax= 1.07D-07

 SCF Done:  E(RHF) =  -115.059626577     A.U. after   11 cycles
             Convg  =    0.5290D-08             -V/T =  2.0005
 KE= 1.149992111956D+02 PE=-3.514641692143D+02 EE= 8.132228307066D+01
 Leave Link  502 at Sun Dec 29 12:25:31 2019, MaxMem=   91750400 cpu:       0.2
 (Enter /opt/g09gh/gaussian/g09/l601.exe)
 Copying SCF densities to generalized density rwf, IOpCl= 0 IROHF=0.

 **********************************************************************

            Population analysis using the SCF density.

 **********************************************************************

 Orbital symmetries:
       Occupied  (A) (A) (A) (A) (A) (A) (A) (A) (A)
       Virtual   (A) (A) (A) (A) (A) (A) (A) (A) (A) (A) (A) (A)
                 (A) (A) (A) (A) (A) (A) (A) (A) (A) (A) (A) (A)
                 (A) (A) (A) (A) (A) (A) (A) (A) (A) (A) (A) (A)
                 (A) (A) (A)
 The electronic state is 1-A.
 Alpha  occ. eigenvalues --  -20.54330 -11.27162  -1.34464  -0.92010  -0.67939
 Alpha  occ. eigenvalues --   -0.62002  -0.58614  -0.49931  -0.44568
 Alpha virt. eigenvalues --    0.14999   0.18684   0.22551   0.23235   0.33423
 Alpha virt. eigenvalues --    0.46070   0.47349   0.58250   0.67726   0.72441
 Alpha virt. eigenvalues --    0.78882   0.79413   0.94685   1.07202   1.07649
 Alpha virt. eigenvalues --    1.18792   1.54754   1.58190   1.69248   1.76973
 Alpha virt. eigenvalues --    1.77470   1.96665   2.37807   2.63123   2.69819
 Alpha virt. eigenvalues --    2.70835   3.16602   3.18821   3.33592   3.36158
 Alpha virt. eigenvalues --    3.54438   3.57744   3.73685   4.25618   5.37833
 Alpha virt. eigenvalues --    5.52276   5.86475  24.53523  51.52096
          Condensed to atoms (all electrons):
              1          2          3          4          5          6
     1  O    8.283639   0.203928  -0.030830  -0.037288  -0.027163   0.267145
     2  C    0.203928   5.000343   0.393422   0.390826   0.388222  -0.050610
     3  H   -0.030830   0.393422   0.527540  -0.032876  -0.029052  -0.008963
     4  H   -0.037288   0.390826  -0.032876   0.520520  -0.033552  -0.000103
     5  H   -0.027163   0.388222  -0.029052  -0.033552   0.485546   0.006755
     6  H    0.267145  -0.050610  -0.008963  -0.000103   0.006755   0.382692
 Mulliken atomic charges:
              1
     1  O   -0.659432
     2  C   -0.326130
     3  H    0.180759
     4  H    0.192473
     5  H    0.209244
     6  H    0.403085
 Sum of Mulliken atomic charges =   0.00000
 Mulliken charges with hydrogens summed into heavy atoms:
              1
     1  O   -0.256347
     2  C    0.256347
 Sum of Mulliken charges with hydrogens summed into heavy atoms =   0.00000
 Electronic spatial extent (au):  <R**2>=             84.3739
 Charge=              0.0000 electrons
 Dipole moment (field-independent basis, Debye):
    X=             -1.0784    Y=              1.7899    Z=              0.0073  Tot=              2.0897
 Quadrupole moment (field-independent basis, Debye-Ang):
   XX=            -12.9879   YY=            -12.0119   ZZ=            -13.5560
   XY=              2.4616   XZ=              0.1242   YZ=              0.0479
 Traceless Quadrupole moment (field-independent basis, Debye-Ang):
   XX=             -0.1360   YY=              0.8401   ZZ=             -0.7040
   XY=              2.4616   XZ=              0.1242   YZ=              0.0479
 Octapole moment (field-independent basis, Debye-Ang**2):
  XXX=              4.0790  YYY=              1.1875  ZZZ=              0.5153  XYY=              1.8276
  XXY=              2.4240  XXZ=             -0.0366  XZZ=              0.3045  YZZ=              0.3451
  YYZ=             -0.5718  XYZ=             -0.0443
 Hexadecapole moment (field-independent basis, Debye-Ang**3):
 XXXX=            -60.8984 YYYY=            -19.4725 ZZZZ=            -18.9717 XXXY=              4.0425
 XXXZ=              0.2621 YYYX=              2.5553 YYYZ=              0.0057 ZZZX=             -0.5215
 ZZZY=              0.0685 XXYY=            -12.2739 XXZZ=            -13.7508 YYZZ=             -6.5352
 XXYZ=              0.2201 YYXZ=              0.7070 ZZXY=              0.3517
 N-N= 4.008304837122D+01 E-N=-3.514641692643D+02  KE= 1.149992111956D+02
 No NMR shielding tensors so no spin-rotation constants.
 Leave Link  601 at Sun Dec 29 12:25:31 2019, MaxMem=   91750400 cpu:       0.1
 (Enter /opt/g09gh/gaussian/g09/l701.exe)
 Compute integral first derivatives.
 ... and contract with generalized density number  0.
 Leave Link  701 at Sun Dec 29 12:25:31 2019, MaxMem=   91750400 cpu:       0.1
 (Enter /opt/g09gh/gaussian/g09/l702.exe)
 L702 exits ... SP integral derivatives will be done elsewhere.
 Leave Link  702 at Sun Dec 29 12:25:32 2019, MaxMem=   91750400 cpu:       0.0
 (Enter /opt/g09gh/gaussian/g09/l703.exe)
 Compute integral first derivatives, UseDBF=F ICtDFT=           0.
 Integral derivatives from FoFDir, PRISM(SPDF).
 Calling FoFJK, ICntrl=      2127 FMM=F ISym2X=0 I1Cent= 0 IOpClX= 0 NMat=1 NMatS=1 NMatT=0.
 FoFCou: FMM=F IPFlag=           0 FMFlag=      100000 FMFlg1=         800
         NFxFlg=           0 DoJE=F BraDBF=F KetDBF=F FulRan=T
         Omega=  0.000000  0.000000  1.000000  0.000000  0.000000 ICntrl=    2127 IOpCl=  0
         NMat0=    1 NMatS0=    1 NMatT0=    0 NMatD0=    1 NMtDS0=    0 NMtDT0=    0
         I1Cent=           0 NGrid=           0.
 Symmetry not used in FoFCou.
 Leave Link  703 at Sun Dec 29 12:25:32 2019, MaxMem=   91750400 cpu:       0.3
 (Enter /opt/g09gh/gaussian/g09/l716.exe)
 Dipole        =-4.24259208D-01 7.04219943D-01 2.85283914D-03
 ***** Axes restored to original set *****
 -------------------------------------------------------------------
 Center     Atomic                   Forces (Hartrees/Bohr)
 Number     Number              X              Y              Z
 -------------------------------------------------------------------
      1        8          -0.007686349   -0.037342809    0.003721292
      2        6           0.022817374    0.004937634   -0.000736702
      3        1          -0.005662452    0.006625066   -0.005854698
      4        1          -0.004257921   -0.001487759    0.009117886
      5        1           0.003217970   -0.009035670   -0.004473409
      6        1          -0.008428622    0.036303538   -0.001774369
 -------------------------------------------------------------------
 Cartesian Forces:  Max     0.037342809 RMS     0.014396812
 Leave Link  716 at Sun Dec 29 12:25:32 2019, MaxMem=   91750400 cpu:       0.0
 (Enter /opt/g09gh/gaussian/g09/l103.exe)

 GradGradGradGradGradGradGradGradGradGradGradGradGradGradGradGradGradGrad
 Berny optimization.
 Internal  Forces:  Max     0.036863924 RMS     0.012155202
 Search for a local minimum.
 Step number   1 out of a maximum of  100
 All quantities printed in internal units (Hartrees-Bohrs-Radians)
 RMS Force = .12155D-01 SwitMx=.10000D-02 MixMth= 1
 Mixed Optimization -- RFO/linear search
 Second derivative matrix not updated -- first step.
 The second derivative matrix:
                          R1        R2        R3        R4        R5
           R1           0.40311
           R2           0.00000   0.52560
           R3           0.00000   0.00000   0.34332
           R4           0.00000   0.00000   0.00000   0.34351
           R5           0.00000   0.00000   0.00000   0.00000   0.34301
           A1           0.00000   0.00000   0.00000   0.00000   0.00000
           A2           0.00000   0.00000   0.00000   0.00000   0.00000
           A3           0.00000   0.00000   0.00000   0.00000   0.00000
           A4           0.00000   0.00000   0.00000   0.00000   0.00000
           A5           0.00000   0.00000   0.00000   0.00000   0.00000
           A6           0.00000   0.00000   0.00000   0.00000   0.00000
           A7           0.00000   0.00000   0.00000   0.00000   0.00000
           D1           0.00000   0.00000   0.00000   0.00000   0.00000
           D2           0.00000   0.00000   0.00000   0.00000   0.00000
           D3           0.00000   0.00000   0.00000   0.00000   0.00000
                          A1        A2        A3        A4        A5
           A1           0.16000
           A2           0.00000   0.16000
           A3           0.00000   0.00000   0.16000
           A4           0.00000   0.00000   0.00000   0.16000
           A5           0.00000   0.00000   0.00000   0.00000   0.16000
           A6           0.00000   0.00000   0.00000   0.00000   0.00000
           A7           0.00000   0.00000   0.00000   0.00000   0.00000
           D1           0.00000   0.00000   0.00000   0.00000   0.00000
           D2           0.00000   0.00000   0.00000   0.00000   0.00000
           D3           0.00000   0.00000   0.00000   0.00000   0.00000
                          A6        A7        D1        D2        D3
           A6           0.16000
           A7           0.00000   0.16000
           D1           0.00000   0.00000   0.01232
           D2           0.00000   0.00000   0.00000   0.01232
           D3           0.00000   0.00000   0.00000   0.00000   0.01232
     Eigenvalues ---    0.01232   0.10439   0.10608   0.16000   0.16000
     Eigenvalues ---    0.16000   0.16000   0.34301   0.34332   0.34351
     Eigenvalues ---    0.40311   0.525601000.000001000.000001000.00000
 RFO step:  Lambda=-6.29659751D-03 EMin= 1.23181205D-02
 Linear search not attempted -- first point.
 Iteration  1 RMS(Cart)=  0.04953459 RMS(Int)=  0.00282556
 Iteration  2 RMS(Cart)=  0.00225094 RMS(Int)=  0.00066356
 Iteration  3 RMS(Cart)=  0.00000332 RMS(Int)=  0.00066355
 Iteration  4 RMS(Cart)=  0.00000000 RMS(Int)=  0.00066355
 Variable       Old X    -DE/DX   Delta X   Delta X   Delta X     New X
                                 (Linear)    (Quad)   (Total)
    R1        2.71133  -0.01616   0.00000  -0.03947  -0.03947   2.67186
    R2        1.84067  -0.03686   0.00000  -0.06931  -0.06931   1.77136
    R3        2.06774  -0.00712   0.00000  -0.02036  -0.02036   2.04738
    R4        2.06742  -0.00709   0.00000  -0.02027  -0.02027   2.04715
    R5        2.06825  -0.01055   0.00000  -0.03020  -0.03020   2.03805
    A1        1.85566   0.01002   0.00000   0.06025   0.06025   1.91592
    A2        1.89844   0.00994   0.00000   0.06054   0.05962   1.95807
    A3        1.89234   0.00886   0.00000   0.05419   0.05326   1.94561
    A4        1.88062  -0.00214   0.00000  -0.01451  -0.01461   1.86601
    A5        1.95204  -0.00797   0.00000  -0.04457  -0.04612   1.90592
    A6        1.91803  -0.00438   0.00000  -0.02822  -0.02832   1.88971
    A7        1.92066  -0.00374   0.00000  -0.02411  -0.02421   1.89645
    D1        0.64432   0.00198   0.00000   0.06746   0.06857   0.71289
    D2       -1.48205   0.00029   0.00000   0.05227   0.05116  -1.43089
    D3        2.72284   0.00106   0.00000   0.05918   0.05917   2.78201
         Item               Value     Threshold  Converged?
 Maximum Force            0.036864     0.000450     NO 
 RMS     Force            0.012155     0.000300     NO 
 Maximum Displacement     0.104629     0.001800     NO 
 RMS     Displacement     0.049733     0.001200     NO 
 Predicted change in Energy=-3.253385D-03
 GradGradGradGradGradGradGradGradGradGradGradGradGradGradGradGradGradGrad

 Leave Link  103 at Sun Dec 29 12:25:32 2019, MaxMem=   91750400 cpu:       0.0
 (Enter /opt/g09gh/gaussian/g09/l202.exe)
                          Input orientation:                          
 ---------------------------------------------------------------------
 Center     Atomic      Atomic             Coordinates (Angstroms)
 Number     Number       Type             X           Y           Z
 ---------------------------------------------------------------------
      1          8           0        0.739161    0.100249    0.017132
      2          6           0       -0.669261   -0.023453    0.006050
      3          1           0       -1.012166   -0.850616    0.615988
      4          1           0       -1.049027   -0.142328   -1.001520
      5          1           0       -1.067691    0.889489    0.419489
      6          1           0        1.132494   -0.749340   -0.029135
 ---------------------------------------------------------------------
                    Distance matrix (angstroms):
                    1          2          3          4          5
     1  O    0.000000
     2  C    1.413887   0.000000
     3  H    2.080846   1.083424   0.000000
     4  H    2.072224   1.083306   1.766173   0.000000
     5  H    2.012338   1.078490   1.752044   1.756207   0.000000
     6  H    0.937364   1.942800   2.241876   2.464351   2.779898
                    6
     6  H    0.000000
 Stoichiometry    CH4O
 Framework group  C1[X(CH4O)]
 Deg. of freedom    12
 Full point group                 C1      NOp   1
 Largest Abelian subgroup         C1      NOp   1
 Largest concise Abelian subgroup C1      NOp   1
                         Standard orientation:                         
 ---------------------------------------------------------------------
 Center     Atomic      Atomic             Coordinates (Angstroms)
 Number     Number       Type             X           Y           Z
 ---------------------------------------------------------------------
      1          8           0        0.743414   -0.119068    0.000036
      2          6           0       -0.663609    0.020080    0.001342
      3          1           0       -0.996086    0.821819   -0.647105
      4          1           0       -1.044466    0.189413    1.001255
      5          1           0       -1.070911   -0.906662   -0.370672
      6          1           0        1.145808    0.727492    0.008180
 ---------------------------------------------------------------------
 Rotational constants (GHZ):    132.0488221     25.0335156     24.2115820
 Leave Link  202 at Sun Dec 29 12:25:32 2019, MaxMem=   91750400 cpu:       0.0
 (Enter /opt/g09gh/gaussian/g09/l301.exe)
 Standard basis: 6-311G(d) (5D, 7F)
 Ernie: Thresh=  0.10000D-02 Tol=  0.10000D-05 Strict=F.
 There are    48 symmetry adapted basis functions of A   symmetry.
 Integral buffers will be    131072 words long.
 Raffenetti 1 integral format.
 Two-electron integral symmetry is turned on.
    48 basis functions,    84 primitive gaussians,    50 cartesian basis functions
     9 alpha electrons        9 beta electrons
       nuclear repulsion energy        40.6463016030 Hartrees.
 IExCor=    0 DFT=F Ex=HF Corr=None ExCW=0 ScaHFX=  1.000000
 ScaDFX=  1.000000  1.000000  1.000000  1.000000 ScalE2=  1.000000  1.000000
 IRadAn=      0 IRanWt=     -1 IRanGd=            0 ICorTp=0
 NAtoms=    6 NActive=    6 NUniq=    6 SFac= 7.50D-01 NAtFMM=   80 NAOKFM=F Big=F
 Leave Link  301 at Sun Dec 29 12:25:32 2019, MaxMem=   91750400 cpu:       0.1
 (Enter /opt/g09gh/gaussian/g09/l302.exe)
 NPDir=0 NMtPBC=     1 NCelOv=     1 NCel=       1 NClECP=     1 NCelD=      1
         NCelK=      1 NCelE2=     1 NClLst=     1 CellRange=     0.0.
 One-electron integrals computed using PRISM.
 NBasis=    48 RedAO= T  NBF=    48
 NBsUse=    48 1.00D-06 NBFU=    48
 Leave Link  302 at Sun Dec 29 12:25:32 2019, MaxMem=   91750400 cpu:       0.1
 (Enter /opt/g09gh/gaussian/g09/l303.exe)
 DipDrv:  MaxL=1.
 Leave Link  303 at Sun Dec 29 12:25:32 2019, MaxMem=   91750400 cpu:       0.0
 (Enter /opt/g09gh/gaussian/g09/l401.exe)
 Initial guess read from the read-write file.
 B after Tr=     0.000000    0.000000    0.000000
         Rot=    1.000000    0.000000    0.000000    0.000000 Ang=   0.00 deg.
 Guess basis will be translated and rotated to current coordinates.
 Initial guess orbital symmetries:
       Occupied  (A) (A) (A) (A) (A) (A) (A) (A) (A)
       Virtual   (A) (A) (A) (A) (A) (A) (A) (A) (A) (A) (A) (A)
                 (A) (A) (A) (A) (A) (A) (A) (A) (A) (A) (A) (A)
                 (A) (A) (A) (A) (A) (A) (A) (A) (A) (A) (A) (A)
                 (A) (A) (A)
 The electronic state of the initial guess is 1-A.
 Generating alternative initial guess.
 Harris functional with IExCor=  205 diagonalized for initial guess.
 ExpMin= 1.03D-01 ExpMax= 8.59D+03 ExpMxC= 1.30D+03 IAcc=1 IRadAn=         1 AccDes= 0.00D+00
 HarFok:  IExCor=  205 AccDes= 0.00D+00 IRadAn=         1 IDoV= 1
 ScaDFX=  1.000000  1.000000  1.000000  1.000000
 FoFCou: FMM=F IPFlag=           0 FMFlag=      100000 FMFlg1=           0
         NFxFlg=           0 DoJE=T BraDBF=F KetDBF=T FulRan=T
         Omega=  0.000000  0.000000  1.000000  0.000000  0.000000 ICntrl=     500 IOpCl=  0
         NMat0=    1 NMatS0=    1 NMatT0=    0 NMatD0=    1 NMtDS0=    0 NMtDT0=    0
         I1Cent=           4 NGrid=           0.
 Petite list used in FoFCou.
 Harris En= -115.247879871823    
 Leave Link  401 at Sun Dec 29 12:25:33 2019, MaxMem=   91750400 cpu:       0.3
 (Enter /opt/g09gh/gaussian/g09/l502.exe)
 Closed shell SCF:
 Requested convergence on RMS density matrix=1.00D-08 within 128 cycles.
 Requested convergence on MAX density matrix=1.00D-06.
 Requested convergence on             energy=1.00D-06.
 No special actions if energy rises.
 Using DIIS extrapolation, IDIIS=  1040.
 Integral symmetry usage will be decided dynamically.
 Keep R1 ints in memory in canonical form, NReq=1659792.
 IEnd=       26328 IEndB=       26328 NGot=    91750400 MDV=    90929785
 LenX=    90929785 LenY=    90926844
 Symmetry not used in FoFDir.
 MinBra= 0 MaxBra= 2 Meth= 1.
 IRaf=       0 NMat=   1 IRICut=       1 DoRegI=T DoRafI=F ISym2E= 0 JSym2E=0.

 Cycle   1  Pass 1  IDiag  1:
 E= -115.059762094960    
 DIIS: error= 6.28D-03 at cycle   1 NSaved=   1.
 NSaved= 1 IEnMin= 1 EnMin= -115.059762094960     IErMin= 1 ErrMin= 6.28D-03
 ErrMax= 6.28D-03 EMaxC= 1.00D-01 BMatC= 2.24D-03 BMatP= 2.24D-03
 IDIUse=3 WtCom= 9.37D-01 WtEn= 6.28D-02
 Coeff-Com:  0.100D+01
 Coeff-En:   0.100D+01
 Coeff:      0.100D+01
 Gap=     0.608 Goal=   None    Shift=    0.000
 GapD=    0.608 DampG=2.000 DampE=1.000 DampFc=2.0000 IDamp=-1.
 RMSDP=6.55D-04 MaxDP=6.96D-03              OVMax= 1.31D-02

 Cycle   2  Pass 1  IDiag  1:
 E= -115.062587578200     Delta-E=       -0.002825483240 Rises=F Damp=F
 DIIS: error= 2.19D-03 at cycle   2 NSaved=   2.
 NSaved= 2 IEnMin= 2 EnMin= -115.062587578200     IErMin= 2 ErrMin= 2.19D-03
 ErrMax= 2.19D-03 EMaxC= 1.00D-01 BMatC= 2.08D-04 BMatP= 2.24D-03
 IDIUse=3 WtCom= 9.78D-01 WtEn= 2.19D-02
 Coeff-Com: -0.910D-01 0.109D+01
 Coeff-En:   0.000D+00 0.100D+01
 Coeff:     -0.890D-01 0.109D+01
 Gap=     0.598 Goal=   None    Shift=    0.000
 RMSDP=2.94D-04 MaxDP=3.70D-03 DE=-2.83D-03 OVMax= 5.63D-03

 Cycle   3  Pass 1  IDiag  1:
 E= -115.062899298573     Delta-E=       -0.000311720374 Rises=F Damp=F
 DIIS: error= 1.02D-03 at cycle   3 NSaved=   3.
 NSaved= 3 IEnMin= 3 EnMin= -115.062899298573     IErMin= 3 ErrMin= 1.02D-03
 ErrMax= 1.02D-03 EMaxC= 1.00D-01 BMatC= 4.27D-05 BMatP= 2.08D-04
 IDIUse=3 WtCom= 9.90D-01 WtEn= 1.02D-02
 Coeff-Com: -0.104D+00 0.269D+00 0.835D+00
 Coeff-En:   0.000D+00 0.000D+00 0.100D+01
 Coeff:     -0.103D+00 0.266D+00 0.837D+00
 Gap=     0.601 Goal=   None    Shift=    0.000
 RMSDP=1.18D-04 MaxDP=1.37D-03 DE=-3.12D-04 OVMax= 2.08D-03

 Cycle   4  Pass 1  IDiag  1:
 E= -115.062948062604     Delta-E=       -0.000048764030 Rises=F Damp=F
 DIIS: error= 1.99D-04 at cycle   4 NSaved=   4.
 NSaved= 4 IEnMin= 4 EnMin= -115.062948062604     IErMin= 4 ErrMin= 1.99D-04
 ErrMax= 1.99D-04 EMaxC= 1.00D-01 BMatC= 2.34D-06 BMatP= 4.27D-05
 IDIUse=3 WtCom= 9.98D-01 WtEn= 1.99D-03
 Coeff-Com:  0.249D-02-0.893D-01 0.321D-01 0.105D+01
 Coeff-En:   0.000D+00 0.000D+00 0.000D+00 0.100D+01
 Coeff:      0.248D-02-0.891D-01 0.321D-01 0.105D+01
 Gap=     0.601 Goal=   None    Shift=    0.000
 RMSDP=5.14D-05 MaxDP=3.51D-04 DE=-4.88D-05 OVMax= 8.40D-04

 Cycle   5  Pass 1  IDiag  1:
 E= -115.062952394432     Delta-E=       -0.000004331828 Rises=F Damp=F
 DIIS: error= 3.82D-05 at cycle   5 NSaved=   5.
 NSaved= 5 IEnMin= 5 EnMin= -115.062952394432     IErMin= 5 ErrMin= 3.82D-05
 ErrMax= 3.82D-05 EMaxC= 1.00D-01 BMatC= 1.04D-07 BMatP= 2.34D-06
 IDIUse=1 WtCom= 1.00D+00 WtEn= 0.00D+00
 Coeff-Com:  0.434D-02-0.162D-01-0.394D-01 0.487D-01 0.100D+01
 Coeff:      0.434D-02-0.162D-01-0.394D-01 0.487D-01 0.100D+01
 Gap=     0.600 Goal=   None    Shift=    0.000
 RMSDP=1.24D-05 MaxDP=7.75D-05 DE=-4.33D-06 OVMax= 1.87D-04

 Cycle   6  Pass 1  IDiag  1:
 E= -115.062952594185     Delta-E=       -0.000000199753 Rises=F Damp=F
 DIIS: error= 1.30D-05 at cycle   6 NSaved=   6.
 NSaved= 6 IEnMin= 6 EnMin= -115.062952594185     IErMin= 6 ErrMin= 1.30D-05
 ErrMax= 1.30D-05 EMaxC= 1.00D-01 BMatC= 8.58D-09 BMatP= 1.04D-07
 IDIUse=1 WtCom= 1.00D+00 WtEn= 0.00D+00
 Coeff-Com:  0.172D-03 0.425D-02-0.502D-02-0.671D-01 0.959D-01 0.972D+00
 Coeff:      0.172D-03 0.425D-02-0.502D-02-0.671D-01 0.959D-01 0.972D+00
 Gap=     0.601 Goal=   None    Shift=    0.000
 RMSDP=3.21D-06 MaxDP=2.24D-05 DE=-2.00D-07 OVMax= 5.80D-05

 Cycle   7  Pass 1  IDiag  1:
 E= -115.062952610292     Delta-E=       -0.000000016107 Rises=F Damp=F
 DIIS: error= 2.50D-06 at cycle   7 NSaved=   7.
 NSaved= 7 IEnMin= 7 EnMin= -115.062952610292     IErMin= 7 ErrMin= 2.50D-06
 ErrMax= 2.50D-06 EMaxC= 1.00D-01 BMatC= 6.61D-10 BMatP= 8.58D-09
 IDIUse=1 WtCom= 1.00D+00 WtEn= 0.00D+00
 Coeff-Com: -0.432D-03 0.109D-02 0.421D-02 0.120D-02-0.937D-01-0.125D+00
 Coeff-Com:  0.121D+01
 Coeff:     -0.432D-03 0.109D-02 0.421D-02 0.120D-02-0.937D-01-0.125D+00
 Coeff:      0.121D+01
 Gap=     0.600 Goal=   None    Shift=    0.000
 RMSDP=1.02D-06 MaxDP=7.71D-06 DE=-1.61D-08 OVMax= 2.03D-05

 Cycle   8  Pass 1  IDiag  1:
 E= -115.062952611867     Delta-E=       -0.000000001575 Rises=F Damp=F
 DIIS: error= 6.19D-07 at cycle   8 NSaved=   8.
 NSaved= 8 IEnMin= 8 EnMin= -115.062952611867     IErMin= 8 ErrMin= 6.19D-07
 ErrMax= 6.19D-07 EMaxC= 1.00D-01 BMatC= 2.68D-11 BMatP= 6.61D-10
 IDIUse=1 WtCom= 1.00D+00 WtEn= 0.00D+00
 Coeff-Com:  0.882D-04-0.339D-03-0.866D-03 0.194D-02 0.208D-01 0.383D-02
 Coeff-Com: -0.349D+00 0.132D+01
 Coeff:      0.882D-04-0.339D-03-0.866D-03 0.194D-02 0.208D-01 0.383D-02
 Coeff:     -0.349D+00 0.132D+01
 Gap=     0.600 Goal=   None    Shift=    0.000
 RMSDP=2.82D-07 MaxDP=2.20D-06 DE=-1.58D-09 OVMax= 5.31D-06

 Cycle   9  Pass 1  IDiag  1:
 E= -115.062952611953     Delta-E=       -0.000000000087 Rises=F Damp=F
 DIIS: error= 1.64D-07 at cycle   9 NSaved=   9.
 NSaved= 9 IEnMin= 9 EnMin= -115.062952611953     IErMin= 9 ErrMin= 1.64D-07
 ErrMax= 1.64D-07 EMaxC= 1.00D-01 BMatC= 1.26D-12 BMatP= 2.68D-11
 IDIUse=1 WtCom= 1.00D+00 WtEn= 0.00D+00
 Coeff-Com: -0.470D-05 0.362D-04 0.570D-04-0.558D-03-0.150D-02 0.378D-02
 Coeff-Com:  0.388D-01-0.357D+00 0.132D+01
 Coeff:     -0.470D-05 0.362D-04 0.570D-04-0.558D-03-0.150D-02 0.378D-02
 Coeff:      0.388D-01-0.357D+00 0.132D+01
 Gap=     0.600 Goal=   None    Shift=    0.000
 RMSDP=6.22D-08 MaxDP=6.11D-07 DE=-8.65D-11 OVMax= 1.50D-06

 Cycle  10  Pass 1  IDiag  1:
 E= -115.062952611958     Delta-E=       -0.000000000004 Rises=F Damp=F
 DIIS: error= 4.02D-08 at cycle  10 NSaved=  10.
 NSaved=10 IEnMin=10 EnMin= -115.062952611958     IErMin=10 ErrMin= 4.02D-08
 ErrMax= 4.02D-08 EMaxC= 1.00D-01 BMatC= 6.38D-14 BMatP= 1.26D-12
 IDIUse=1 WtCom= 1.00D+00 WtEn= 0.00D+00
 Coeff-Com: -0.156D-05-0.282D-05 0.217D-04 0.136D-03-0.494D-03-0.204D-02
 Coeff-Com:  0.562D-02 0.502D-01-0.404D+00 0.135D+01
 Coeff:     -0.156D-05-0.282D-05 0.217D-04 0.136D-03-0.494D-03-0.204D-02
 Coeff:      0.562D-02 0.502D-01-0.404D+00 0.135D+01
 Gap=     0.600 Goal=   None    Shift=    0.000
 RMSDP=1.27D-08 MaxDP=1.48D-07 DE=-4.18D-12 OVMax= 3.40D-07

 Cycle  11  Pass 1  IDiag  1:
 E= -115.062952611958     Delta-E=        0.000000000000 Rises=F Damp=F
 DIIS: error= 9.03D-09 at cycle  11 NSaved=  11.
 NSaved=11 IEnMin=11 EnMin= -115.062952611958     IErMin=11 ErrMin= 9.03D-09
 ErrMax= 9.03D-09 EMaxC= 1.00D-01 BMatC= 3.32D-15 BMatP= 6.38D-14
 IDIUse=1 WtCom= 1.00D+00 WtEn= 0.00D+00
 Coeff-Com:  0.343D-06-0.124D-05-0.542D-05 0.151D-04 0.114D-03-0.302D-04
 Coeff-Com: -0.249D-02 0.119D-01-0.135D-01-0.204D+00 0.121D+01
 Coeff:      0.343D-06-0.124D-05-0.542D-05 0.151D-04 0.114D-03-0.302D-04
 Coeff:     -0.249D-02 0.119D-01-0.135D-01-0.204D+00 0.121D+01
 Gap=     0.600 Goal=   None    Shift=    0.000
 RMSDP=2.96D-09 MaxDP=3.39D-08 DE=-3.13D-13 OVMax= 7.58D-08

 SCF Done:  E(RHF) =  -115.062952612     A.U. after   11 cycles
             Convg  =    0.2956D-08             -V/T =  1.9993
 KE= 1.151486222221D+02 PE=-3.526693481565D+02 EE= 8.181147171936D+01
 Leave Link  502 at Sun Dec 29 12:25:33 2019, MaxMem=   91750400 cpu:       0.1
 (Enter /opt/g09gh/gaussian/g09/l701.exe)
 Compute integral first derivatives.
 ... and contract with generalized density number  0.
 Leave Link  701 at Sun Dec 29 12:25:33 2019, MaxMem=   91750400 cpu:       0.2
 (Enter /opt/g09gh/gaussian/g09/l702.exe)
 L702 exits ... SP integral derivatives will be done elsewhere.
 Leave Link  702 at Sun Dec 29 12:25:33 2019, MaxMem=   91750400 cpu:       0.0
 (Enter /opt/g09gh/gaussian/g09/l703.exe)
 Compute integral first derivatives, UseDBF=F ICtDFT=           0.
 Integral derivatives from FoFDir, PRISM(SPDF).
 Calling FoFJK, ICntrl=      2127 FMM=F ISym2X=0 I1Cent= 0 IOpClX= 0 NMat=1 NMatS=1 NMatT=0.
 FoFCou: FMM=F IPFlag=           0 FMFlag=      100000 FMFlg1=         800
         NFxFlg=           0 DoJE=F BraDBF=F KetDBF=F FulRan=T
         Omega=  0.000000  0.000000  1.000000  0.000000  0.000000 ICntrl=    2127 IOpCl=  0
         NMat0=    1 NMatS0=    1 NMatT0=    0 NMatD0=    1 NMtDS0=    0 NMtDT0=    0
         I1Cent=           0 NGrid=           0.
 Symmetry not used in FoFCou.
 Leave Link  703 at Sun Dec 29 12:25:33 2019, MaxMem=   91750400 cpu:       0.3
 (Enter /opt/g09gh/gaussian/g09/l716.exe)
 Dipole        =-3.74933166D-01 6.85602823D-01-8.95974151D-03
 ***** Axes restored to original set *****
 -------------------------------------------------------------------
 Center     Atomic                   Forces (Hartrees/Bohr)
 Number     Number              X              Y              Z
 -------------------------------------------------------------------
      1        8          -0.010839011   -0.001354204    0.002037214
      2        6           0.011107434    0.004044700    0.000429278
      3        1           0.000169782   -0.001632524    0.001058415
      4        1          -0.000345601   -0.001299291   -0.001633102
      5        1          -0.001139374    0.001282121   -0.000048090
      6        1           0.001046770   -0.001040803   -0.001843715
 -------------------------------------------------------------------
 Cartesian Forces:  Max     0.011107434 RMS     0.003945452
 Leave Link  716 at Sun Dec 29 12:25:33 2019, MaxMem=   91750400 cpu:       0.0
 (Enter /opt/g09gh/gaussian/g09/l103.exe)

 GradGradGradGradGradGradGradGradGradGradGradGradGradGradGradGradGradGrad
 Berny optimization.
 Using GEDIIS/GDIIS optimizer.
 Internal  Forces:  Max     0.009962413 RMS     0.002829646
 Search for a local minimum.
 Step number   2 out of a maximum of  100
 All quantities printed in internal units (Hartrees-Bohrs-Radians)
 RMS Force = .28296D-02 SwitMx=.10000D-02 MixMth= 1
 Mixed Optimization -- RFO/linear search
 Update second derivatives using D2CorX and points    1    2
 DE= -3.33D-03 DEPred=-3.25D-03 R= 1.02D+00
 SS=  1.41D+00  RLast= 1.81D-01 DXNew= 5.0454D-01 5.4225D-01
 Trust test= 1.02D+00 RLast= 1.81D-01 DXMaxT set to 5.05D-01
 The second derivative matrix:
                          R1        R2        R3        R4        R5
           R1           0.36784
           R2          -0.05602   0.55039
           R3          -0.00916   0.01458   0.34840
           R4          -0.00912   0.01453   0.00506   0.34855
           R5          -0.01477   0.01424   0.00582   0.00580   0.34932
           A1           0.01580  -0.00053  -0.00246  -0.00245  -0.00188
           A2           0.01327  -0.01515  -0.00583  -0.00581  -0.00645
           A3           0.01278  -0.00783  -0.00388  -0.00387  -0.00397
           A4          -0.00231   0.00955   0.00278   0.00277   0.00341
           A5          -0.01134   0.00506   0.00296   0.00295   0.00290
           A6          -0.00690   0.00349   0.00191   0.00190   0.00190
           A7          -0.00613   0.00160   0.00131   0.00130   0.00119
           D1           0.00040  -0.00616  -0.00163  -0.00163  -0.00208
           D2           0.00324   0.01363   0.00302   0.00300   0.00417
           D3           0.00176   0.00348   0.00063   0.00063   0.00096
                          A1        A2        A3        A4        A5
           A1           0.15869
           A2           0.00221   0.16654
           A3           0.00061   0.00415   0.16232
           A4          -0.00194  -0.00334  -0.00243   0.16138
           A5          -0.00012  -0.00308  -0.00160   0.00194   0.16103
           A6          -0.00016  -0.00200  -0.00107   0.00123   0.00071
           A7           0.00019  -0.00130  -0.00058   0.00091   0.00033
           D1           0.00135   0.00201   0.00153  -0.00076  -0.00125
           D2          -0.00336  -0.00392  -0.00327   0.00120   0.00276
           D3          -0.00094  -0.00088  -0.00081   0.00019   0.00071
                          A6        A7        D1        D2        D3
           A6           0.16048
           A7           0.00024   0.16006
           D1          -0.00078  -0.00061   0.01272
           D2           0.00171   0.00141  -0.00054   0.01265
           D3           0.00043   0.00037  -0.00006  -0.00011   0.01223
 Use linear search instead of GDIIS.
     Eigenvalues ---    0.01186   0.09967   0.10466   0.15604   0.16000
     Eigenvalues ---    0.16000   0.16899   0.34009   0.34341   0.34566
     Eigenvalues ---    0.36867   0.572661000.000001000.000001000.00000
 RFO step:  Lambda=-5.77503040D-04 EMin= 1.18590181D-02
 Quartic linear search produced a step of  0.03828.
 Iteration  1 RMS(Cart)=  0.02499632 RMS(Int)=  0.00101751
 Iteration  2 RMS(Cart)=  0.00085885 RMS(Int)=  0.00003944
 Iteration  3 RMS(Cart)=  0.00000103 RMS(Int)=  0.00003944
 Iteration  4 RMS(Cart)=  0.00000000 RMS(Int)=  0.00003944
 Variable       Old X    -DE/DX   Delta X   Delta X   Delta X     New X
                                 (Linear)    (Quad)   (Total)
    R1        2.67186  -0.00996  -0.00151  -0.02721  -0.02872   2.64314
    R2        1.77136   0.00147  -0.00265   0.00001  -0.00265   1.76871
    R3        2.04738   0.00179  -0.00078   0.00455   0.00377   2.05115
    R4        2.04715   0.00178  -0.00078   0.00454   0.00376   2.05091
    R5        2.03805   0.00149  -0.00116   0.00325   0.00209   2.04014
    A1        1.91592   0.00083   0.00231   0.00767   0.00998   1.92590
    A2        1.95807  -0.00147   0.00228  -0.00843  -0.00620   1.95187
    A3        1.94561  -0.00043   0.00204  -0.00180   0.00017   1.94578
    A4        1.86601   0.00158  -0.00056   0.01179   0.01122   1.87722
    A5        1.90592  -0.00019  -0.00177  -0.00688  -0.00873   1.89718
    A6        1.88971   0.00045  -0.00108   0.00372   0.00263   1.89234
    A7        1.89645   0.00017  -0.00093   0.00252   0.00156   1.89801
    D1        0.71289   0.00021   0.00262   0.07135   0.07404   0.78693
    D2       -1.43089   0.00185   0.00196   0.08781   0.08973  -1.34116
    D3        2.78201   0.00092   0.00226   0.07853   0.08077   2.86278
         Item               Value     Threshold  Converged?
 Maximum Force            0.009962     0.000450     NO 
 RMS     Force            0.002830     0.000300     NO 
 Maximum Displacement     0.061706     0.001800     NO 
 RMS     Displacement     0.024931     0.001200     NO 
 Predicted change in Energy=-3.054372D-04
 GradGradGradGradGradGradGradGradGradGradGradGradGradGradGradGradGradGrad

 Leave Link  103 at Sun Dec 29 12:25:33 2019, MaxMem=   91750400 cpu:       0.0
 (Enter /opt/g09gh/gaussian/g09/l202.exe)
                          Input orientation:                          
 ---------------------------------------------------------------------
 Center     Atomic      Atomic             Coordinates (Angstroms)
 Number     Number       Type             X           Y           Z
 ---------------------------------------------------------------------
      1          8           0        0.729674    0.094274    0.042600
      2          6           0       -0.664063   -0.019500    0.012911
      3          1           0       -1.014610   -0.846890    0.621747
      4          1           0       -1.030501   -0.153029   -0.999887
      5          1           0       -1.074111    0.895803    0.412421
      6          1           0        1.127121   -0.746658   -0.061789
 ---------------------------------------------------------------------
                    Distance matrix (angstroms):
                    1          2          3          4          5
     1  O    0.000000
     2  C    1.398688   0.000000
     3  H    2.064880   1.085421   0.000000
     4  H    2.060620   1.085295   1.763914   0.000000
     5  H    2.008197   1.079596   1.756228   1.759706   0.000000
     6  H    0.935963   1.934600   2.250395   2.426470   2.787108
                    6
     6  H    0.000000
 Stoichiometry    CH4O
 Framework group  C1[X(CH4O)]
 Deg. of freedom    12
 Full point group                 C1      NOp   1
 Largest Abelian subgroup         C1      NOp   1
 Largest concise Abelian subgroup C1      NOp   1
                         Standard orientation:                         
 ---------------------------------------------------------------------
 Center     Atomic      Atomic             Coordinates (Angstroms)
 Number     Number       Type             X           Y           Z
 ---------------------------------------------------------------------
      1          8           0        0.735612   -0.119733    0.000803
      2          6           0       -0.656158    0.019205    0.000638
      3          1           0       -0.987052    0.767625   -0.712464
      4          1           0       -1.029041    0.286761    0.984121
      5          1           0       -1.078454   -0.932919   -0.283358
      6          1           0        1.146596    0.721171    0.001446
 ---------------------------------------------------------------------
 Rotational constants (GHZ):    132.0960310     25.4558847     24.6024563
 Leave Link  202 at Sun Dec 29 12:25:33 2019, MaxMem=   91750400 cpu:       0.0
 (Enter /opt/g09gh/gaussian/g09/l301.exe)
 Standard basis: 6-311G(d) (5D, 7F)
 Ernie: Thresh=  0.10000D-02 Tol=  0.10000D-05 Strict=F.
 There are    48 symmetry adapted basis functions of A   symmetry.
 Integral buffers will be    131072 words long.
 Raffenetti 1 integral format.
 Two-electron integral symmetry is turned on.
    48 basis functions,    84 primitive gaussians,    50 cartesian basis functions
     9 alpha electrons        9 beta electrons
       nuclear repulsion energy        40.8740313148 Hartrees.
 IExCor=    0 DFT=F Ex=HF Corr=None ExCW=0 ScaHFX=  1.000000
 ScaDFX=  1.000000  1.000000  1.000000  1.000000 ScalE2=  1.000000  1.000000
 IRadAn=      0 IRanWt=     -1 IRanGd=            0 ICorTp=0
 NAtoms=    6 NActive=    6 NUniq=    6 SFac= 7.50D-01 NAtFMM=   80 NAOKFM=F Big=F
 Leave Link  301 at Sun Dec 29 12:25:33 2019, MaxMem=   91750400 cpu:       0.1
 (Enter /opt/g09gh/gaussian/g09/l302.exe)
 NPDir=0 NMtPBC=     1 NCelOv=     1 NCel=       1 NClECP=     1 NCelD=      1
         NCelK=      1 NCelE2=     1 NClLst=     1 CellRange=     0.0.
 One-electron integrals computed using PRISM.
 NBasis=    48 RedAO= T  NBF=    48
 NBsUse=    48 1.00D-06 NBFU=    48
 Leave Link  302 at Sun Dec 29 12:25:34 2019, MaxMem=   91750400 cpu:       0.1
 (Enter /opt/g09gh/gaussian/g09/l303.exe)
 DipDrv:  MaxL=1.
 Leave Link  303 at Sun Dec 29 12:25:34 2019, MaxMem=   91750400 cpu:       0.0
 (Enter /opt/g09gh/gaussian/g09/l401.exe)
 Initial guess read from the read-write file.
 B after Tr=     0.000000    0.000000    0.000000
         Rot=    1.000000    0.000000    0.000000    0.000000 Ang=   0.00 deg.
 Guess basis will be translated and rotated to current coordinates.
 Initial guess orbital symmetries:
       Occupied  (A) (A) (A) (A) (A) (A) (A) (A) (A)
       Virtual   (A) (A) (A) (A) (A) (A) (A) (A) (A) (A) (A) (A)
                 (A) (A) (A) (A) (A) (A) (A) (A) (A) (A) (A) (A)
                 (A) (A) (A) (A) (A) (A) (A) (A) (A) (A) (A) (A)
                 (A) (A) (A)
 The electronic state of the initial guess is 1-A.
 Generating alternative initial guess.
 Harris functional with IExCor=  205 diagonalized for initial guess.
 ExpMin= 1.03D-01 ExpMax= 8.59D+03 ExpMxC= 1.30D+03 IAcc=1 IRadAn=         1 AccDes= 0.00D+00
 HarFok:  IExCor=  205 AccDes= 0.00D+00 IRadAn=         1 IDoV= 1
 ScaDFX=  1.000000  1.000000  1.000000  1.000000
 FoFCou: FMM=F IPFlag=           0 FMFlag=      100000 FMFlg1=           0
         NFxFlg=           0 DoJE=T BraDBF=F KetDBF=T FulRan=T
         Omega=  0.000000  0.000000  1.000000  0.000000  0.000000 ICntrl=     500 IOpCl=  0
         NMat0=    1 NMatS0=    1 NMatT0=    0 NMatD0=    1 NMtDS0=    0 NMtDT0=    0
         I1Cent=           4 NGrid=           0.
 Petite list used in FoFCou.
 Harris En= -115.248731818322    
 Leave Link  401 at Sun Dec 29 12:25:34 2019, MaxMem=   91750400 cpu:       0.3
 (Enter /opt/g09gh/gaussian/g09/l502.exe)
 Closed shell SCF:
 Requested convergence on RMS density matrix=1.00D-08 within 128 cycles.
 Requested convergence on MAX density matrix=1.00D-06.
 Requested convergence on             energy=1.00D-06.
 No special actions if energy rises.
 Using DIIS extrapolation, IDIIS=  1040.
 Integral symmetry usage will be decided dynamically.
 Keep R1 ints in memory in canonical form, NReq=1659792.
 IEnd=       26328 IEndB=       26328 NGot=    91750400 MDV=    90929785
 LenX=    90929785 LenY=    90926844
 Symmetry not used in FoFDir.
 MinBra= 0 MaxBra= 2 Meth= 1.
 IRaf=       0 NMat=   1 IRICut=       1 DoRegI=T DoRafI=F ISym2E= 0 JSym2E=0.

 Cycle   1  Pass 1  IDiag  1:
 E= -115.061061541344    
 DIIS: error= 6.76D-03 at cycle   1 NSaved=   1.
 NSaved= 1 IEnMin= 1 EnMin= -115.061061541344     IErMin= 1 ErrMin= 6.76D-03
 ErrMax= 6.76D-03 EMaxC= 1.00D-01 BMatC= 1.28D-03 BMatP= 1.28D-03
 IDIUse=3 WtCom= 9.32D-01 WtEn= 6.76D-02
 Coeff-Com:  0.100D+01
 Coeff-En:   0.100D+01
 Coeff:      0.100D+01
 Gap=     0.599 Goal=   None    Shift=    0.000
 GapD=    0.599 DampG=2.000 DampE=1.000 DampFc=2.0000 IDamp=-1.
 RMSDP=4.45D-04 MaxDP=3.95D-03              OVMax= 1.24D-02

 Cycle   2  Pass 1  IDiag  1:
 E= -115.063062932768     Delta-E=       -0.002001391424 Rises=F Damp=F
 DIIS: error= 2.24D-03 at cycle   2 NSaved=   2.
 NSaved= 2 IEnMin= 2 EnMin= -115.063062932768     IErMin= 2 ErrMin= 2.24D-03
 ErrMax= 2.24D-03 EMaxC= 1.00D-01 BMatC= 1.15D-04 BMatP= 1.28D-03
 IDIUse=3 WtCom= 9.78D-01 WtEn= 2.24D-02
 Coeff-Com: -0.346D+00 0.135D+01
 Coeff-En:   0.000D+00 0.100D+01
 Coeff:     -0.338D+00 0.134D+01
 Gap=     0.598 Goal=   None    Shift=    0.000
 RMSDP=2.80D-04 MaxDP=2.81D-03 DE=-2.00D-03 OVMax= 6.18D-03

 Cycle   3  Pass 1  IDiag  1:
 E= -115.063328629777     Delta-E=       -0.000265697009 Rises=F Damp=F
 DIIS: error= 3.23D-04 at cycle   3 NSaved=   3.
 NSaved= 3 IEnMin= 3 EnMin= -115.063328629777     IErMin= 3 ErrMin= 3.23D-04
 ErrMax= 3.23D-04 EMaxC= 1.00D-01 BMatC= 4.07D-06 BMatP= 1.15D-04
 IDIUse=3 WtCom= 9.97D-01 WtEn= 3.23D-03
 Coeff-Com: -0.189D-01-0.392D-01 0.106D+01
 Coeff-En:   0.000D+00 0.000D+00 0.100D+01
 Coeff:     -0.188D-01-0.391D-01 0.106D+01
 Gap=     0.599 Goal=   None    Shift=    0.000
 RMSDP=8.02D-05 MaxDP=6.87D-04 DE=-2.66D-04 OVMax= 1.18D-03

 Cycle   4  Pass 1  IDiag  1:
 E= -115.063336948940     Delta-E=       -0.000008319163 Rises=F Damp=F
 DIIS: error= 1.07D-04 at cycle   4 NSaved=   4.
 NSaved= 4 IEnMin= 4 EnMin= -115.063336948940     IErMin= 4 ErrMin= 1.07D-04
 ErrMax= 1.07D-04 EMaxC= 1.00D-01 BMatC= 7.77D-07 BMatP= 4.07D-06
 IDIUse=3 WtCom= 9.99D-01 WtEn= 1.07D-03
 Coeff-Com:  0.288D-01-0.149D+00 0.316D+00 0.804D+00
 Coeff-En:   0.000D+00 0.000D+00 0.000D+00 0.100D+01
 Coeff:      0.288D-01-0.149D+00 0.316D+00 0.804D+00
 Gap=     0.599 Goal=   None    Shift=    0.000
 RMSDP=2.52D-05 MaxDP=2.06D-04 DE=-8.32D-06 OVMax= 3.52D-04

 Cycle   5  Pass 1  IDiag  1:
 E= -115.063337775754     Delta-E=       -0.000000826814 Rises=F Damp=F
 DIIS: error= 1.01D-05 at cycle   5 NSaved=   5.
 NSaved= 5 IEnMin= 5 EnMin= -115.063337775754     IErMin= 5 ErrMin= 1.01D-05
 ErrMax= 1.01D-05 EMaxC= 1.00D-01 BMatC= 9.21D-09 BMatP= 7.77D-07
 IDIUse=1 WtCom= 1.00D+00 WtEn= 0.00D+00
 Coeff-Com: -0.160D-02 0.122D-01-0.626D-01-0.605D-01 0.111D+01
 Coeff:     -0.160D-02 0.122D-01-0.626D-01-0.605D-01 0.111D+01
 Gap=     0.599 Goal=   None    Shift=    0.000
 RMSDP=6.49D-06 MaxDP=5.04D-05 DE=-8.27D-07 OVMax= 8.39D-05

 Cycle   6  Pass 1  IDiag  1:
 E= -115.063337797867     Delta-E=       -0.000000022113 Rises=F Damp=F
 DIIS: error= 2.45D-06 at cycle   6 NSaved=   6.
 NSaved= 6 IEnMin= 6 EnMin= -115.063337797867     IErMin= 6 ErrMin= 2.45D-06
 ErrMax= 2.45D-06 EMaxC= 1.00D-01 BMatC= 5.43D-10 BMatP= 9.21D-09
 IDIUse=1 WtCom= 1.00D+00 WtEn= 0.00D+00
 Coeff-Com: -0.127D-02 0.671D-02-0.159D-01-0.368D-01 0.464D-01 0.100D+01
 Coeff:     -0.127D-02 0.671D-02-0.159D-01-0.368D-01 0.464D-01 0.100D+01
 Gap=     0.599 Goal=   None    Shift=    0.000
 RMSDP=1.03D-06 MaxDP=7.45D-06 DE=-2.21D-08 OVMax= 1.96D-05

 Cycle   7  Pass 1  IDiag  1:
 E= -115.063337799061     Delta-E=       -0.000000001195 Rises=F Damp=F
 DIIS: error= 1.08D-06 at cycle   7 NSaved=   7.
 NSaved= 7 IEnMin= 7 EnMin= -115.063337799061     IErMin= 7 ErrMin= 1.08D-06
 ErrMax= 1.08D-06 EMaxC= 1.00D-01 BMatC= 6.91D-11 BMatP= 5.43D-10
 IDIUse=1 WtCom= 1.00D+00 WtEn= 0.00D+00
 Coeff-Com:  0.241D-03-0.150D-02 0.633D-02 0.711D-02-0.948D-01-0.279D-01
 Coeff-Com:  0.111D+01
 Coeff:      0.241D-03-0.150D-02 0.633D-02 0.711D-02-0.948D-01-0.279D-01
 Coeff:      0.111D+01
 Gap=     0.599 Goal=   None    Shift=    0.000
 RMSDP=3.22D-07 MaxDP=3.21D-06 DE=-1.19D-09 OVMax= 8.65D-06

 Cycle   8  Pass 1  IDiag  1:
 E= -115.063337799250     Delta-E=       -0.000000000188 Rises=F Damp=F
 DIIS: error= 3.88D-07 at cycle   8 NSaved=   8.
 NSaved= 8 IEnMin= 8 EnMin= -115.063337799250     IErMin= 8 ErrMin= 3.88D-07
 ErrMax= 3.88D-07 EMaxC= 1.00D-01 BMatC= 7.57D-12 BMatP= 6.91D-11
 IDIUse=1 WtCom= 1.00D+00 WtEn= 0.00D+00
 Coeff-Com:  0.130D-03-0.674D-03 0.133D-02 0.371D-02 0.638D-02-0.127D+00
 Coeff-Com: -0.170D+00 0.129D+01
 Coeff:      0.130D-03-0.674D-03 0.133D-02 0.371D-02 0.638D-02-0.127D+00
 Coeff:     -0.170D+00 0.129D+01
 Gap=     0.599 Goal=   None    Shift=    0.000
 RMSDP=1.55D-07 MaxDP=1.62D-06 DE=-1.88D-10 OVMax= 4.20D-06

 Cycle   9  Pass 1  IDiag  1:
 E= -115.063337799275     Delta-E=       -0.000000000025 Rises=F Damp=F
 DIIS: error= 6.46D-08 at cycle   9 NSaved=   9.
 NSaved= 9 IEnMin= 9 EnMin= -115.063337799275     IErMin= 9 ErrMin= 6.46D-08
 ErrMax= 6.46D-08 EMaxC= 1.00D-01 BMatC= 1.93D-13 BMatP= 7.57D-12
 IDIUse=1 WtCom= 1.00D+00 WtEn= 0.00D+00
 Coeff-Com: -0.297D-04 0.165D-03-0.473D-03-0.879D-03 0.338D-02 0.214D-01
 Coeff-Com: -0.202D-01-0.193D+00 0.119D+01
 Coeff:     -0.297D-04 0.165D-03-0.473D-03-0.879D-03 0.338D-02 0.214D-01
 Coeff:     -0.202D-01-0.193D+00 0.119D+01
 Gap=     0.599 Goal=   None    Shift=    0.000
 RMSDP=2.38D-08 MaxDP=2.27D-07 DE=-2.54D-11 OVMax= 5.83D-07

 Cycle  10  Pass 1  IDiag  1:
 E= -115.063337799276     Delta-E=       -0.000000000001 Rises=F Damp=F
 DIIS: error= 1.35D-08 at cycle  10 NSaved=  10.
 NSaved=10 IEnMin=10 EnMin= -115.063337799276     IErMin=10 ErrMin= 1.35D-08
 ErrMax= 1.35D-08 EMaxC= 1.00D-01 BMatC= 1.15D-14 BMatP= 1.93D-13
 IDIUse=1 WtCom= 1.00D+00 WtEn= 0.00D+00
 Coeff-Com: -0.723D-07-0.221D-05 0.322D-04 0.206D-05-0.971D-03 0.103D-02
 Coeff-Com:  0.104D-01-0.169D-01-0.271D+00 0.128D+01
 Coeff:     -0.723D-07-0.221D-05 0.322D-04 0.206D-05-0.971D-03 0.103D-02
 Coeff:      0.104D-01-0.169D-01-0.271D+00 0.128D+01
 Gap=     0.599 Goal=   None    Shift=    0.000
 RMSDP=5.93D-09 MaxDP=5.99D-08 DE=-6.25D-13 OVMax= 1.44D-07

 SCF Done:  E(RHF) =  -115.063337799     A.U. after   10 cycles
             Convg  =    0.5932D-08             -V/T =  1.9990
 KE= 1.151739558359D+02 PE=-3.531319597081D+02 EE= 8.202063475818D+01
 Leave Link  502 at Sun Dec 29 12:25:34 2019, MaxMem=   91750400 cpu:       0.1
 (Enter /opt/g09gh/gaussian/g09/l701.exe)
 Compute integral first derivatives.
 ... and contract with generalized density number  0.
 Leave Link  701 at Sun Dec 29 12:25:34 2019, MaxMem=   91750400 cpu:       0.2
 (Enter /opt/g09gh/gaussian/g09/l702.exe)
 L702 exits ... SP integral derivatives will be done elsewhere.
 Leave Link  702 at Sun Dec 29 12:25:34 2019, MaxMem=   91750400 cpu:       0.0
 (Enter /opt/g09gh/gaussian/g09/l703.exe)
 Compute integral first derivatives, UseDBF=F ICtDFT=           0.
 Integral derivatives from FoFDir, PRISM(SPDF).
 Calling FoFJK, ICntrl=      2127 FMM=F ISym2X=0 I1Cent= 0 IOpClX= 0 NMat=1 NMatS=1 NMatT=0.
 FoFCou: FMM=F IPFlag=           0 FMFlag=      100000 FMFlg1=         800
         NFxFlg=           0 DoJE=F BraDBF=F KetDBF=F FulRan=T
         Omega=  0.000000  0.000000  1.000000  0.000000  0.000000 ICntrl=    2127 IOpCl=  0
         NMat0=    1 NMatS0=    1 NMatT0=    0 NMatD0=    1 NMtDS0=    0 NMtDT0=    0
         I1Cent=           0 NGrid=           0.
 Symmetry not used in FoFCou.
 Leave Link  703 at Sun Dec 29 12:25:35 2019, MaxMem=   91750400 cpu:       0.3
 (Enter /opt/g09gh/gaussian/g09/l716.exe)
 Dipole        =-3.47364474D-01 6.78110017D-01-1.31254544D-02
 ***** Axes restored to original set *****
 -------------------------------------------------------------------
 Center     Atomic                   Forces (Hartrees/Bohr)
 Number     Number              X              Y              Z
 -------------------------------------------------------------------
      1        8          -0.000691375    0.003391567    0.002519913
      2        6           0.001800875   -0.000779008   -0.000576945
      3        1          -0.000874802   -0.000360307    0.001013441
      4        1          -0.000995897   -0.000298056   -0.000876730
      5        1          -0.000201232    0.000712352   -0.000249950
      6        1           0.000962431   -0.002666549   -0.001829729
 -------------------------------------------------------------------
 Cartesian Forces:  Max     0.003391567 RMS     0.001458312
 Leave Link  716 at Sun Dec 29 12:25:35 2019, MaxMem=   91750400 cpu:       0.0
 (Enter /opt/g09gh/gaussian/g09/l103.exe)

 GradGradGradGradGradGradGradGradGradGradGradGradGradGradGradGradGradGrad
 Berny optimization.
 Using GEDIIS/GDIIS optimizer.
 Internal  Forces:  Max     0.003008562 RMS     0.001062599
 Search for a local minimum.
 Step number   3 out of a maximum of  100
 All quantities printed in internal units (Hartrees-Bohrs-Radians)
 RMS Force = .10626D-02 SwitMx=.10000D-02 MixMth= 1
 Mixed Optimization -- RFO/linear search
 Update second derivatives using D2CorX and points    1    2    3
 DE= -3.85D-04 DEPred=-3.05D-04 R= 1.26D+00
 SS=  1.41D+00  RLast= 1.46D-01 DXNew= 8.4853D-01 4.3753D-01
 Trust test= 1.26D+00 RLast= 1.46D-01 DXMaxT set to 5.05D-01
 The second derivative matrix:
                          R1        R2        R3        R4        R5
           R1           0.45164
           R2           0.02684   0.58461
           R3           0.01041   0.01552   0.34582
           R4           0.01212   0.01613   0.00249   0.34599
           R5          -0.00510   0.01362   0.00418   0.00415   0.34824
           A1          -0.01108  -0.01715  -0.00489  -0.00522  -0.00285
           A2           0.03196  -0.00248  -0.00383  -0.00358  -0.00542
           A3           0.03086  -0.00010  -0.00371  -0.00356  -0.00393
           A4          -0.01824  -0.00519  -0.00050  -0.00080   0.00175
           A5          -0.02530   0.00569   0.00541   0.00544   0.00424
           A6          -0.01065  -0.00057   0.00093   0.00085   0.00136
           A7          -0.01152  -0.00226   0.00066   0.00058   0.00085
           D1           0.03991   0.00425  -0.00365  -0.00348  -0.00348
           D2          -0.01431   0.00246   0.00136   0.00113   0.00342
           D3           0.01641   0.00456  -0.00120  -0.00120  -0.00014
                          A1        A2        A3        A4        A5
           A1           0.16524
           A2          -0.00258   0.16959
           A3          -0.00308   0.00651   0.16362
           A4           0.00296  -0.00663  -0.00551   0.16434
           A5           0.00136  -0.00398  -0.00106   0.00413   0.15849
           A6           0.00112  -0.00276  -0.00183   0.00191   0.00131
           A7           0.00162  -0.00219  -0.00129   0.00186   0.00063
           D1          -0.00536   0.00674   0.00334  -0.00746   0.00149
           D2           0.00098  -0.00691  -0.00556   0.00434   0.00362
           D3          -0.00285   0.00050  -0.00076  -0.00222   0.00260
                          A6        A7        D1        D2        D3
           A6           0.16062
           A7           0.00045   0.16032
           D1          -0.00259  -0.00207   0.01328
           D2           0.00249   0.00229  -0.00485   0.01545
           D3          -0.00025  -0.00007  -0.00157  -0.00133   0.01087
 Use linear search instead of GDIIS.
     Eigenvalues ---    0.00626   0.10377   0.10582   0.15591   0.16000
     Eigenvalues ---    0.16294   0.17077   0.34088   0.34341   0.35257
     Eigenvalues ---    0.46299   0.594691000.000001000.000001000.00000
 RFO step:  Lambda=-2.62779065D-04 EMin= 6.26217996D-03
 Quartic linear search produced a step of  0.38281.
 Iteration  1 RMS(Cart)=  0.03432320 RMS(Int)=  0.00220383
 Iteration  2 RMS(Cart)=  0.00188215 RMS(Int)=  0.00002297
 Iteration  3 RMS(Cart)=  0.00000534 RMS(Int)=  0.00002268
 Iteration  4 RMS(Cart)=  0.00000000 RMS(Int)=  0.00002268
 Variable       Old X    -DE/DX   Delta X   Delta X   Delta X     New X
                                 (Linear)    (Quad)   (Total)
    R1        2.64314   0.00034  -0.01100  -0.00196  -0.01295   2.63018
    R2        1.76871   0.00301  -0.00101   0.00420   0.00319   1.77191
    R3        2.05115   0.00113   0.00144   0.00357   0.00502   2.05616
    R4        2.05091   0.00119   0.00144   0.00383   0.00527   2.05618
    R5        2.04014   0.00059   0.00080   0.00092   0.00172   2.04186
    A1        1.92590  -0.00065   0.00382  -0.00212   0.00170   1.92759
    A2        1.95187   0.00069  -0.00237   0.00915   0.00675   1.95862
    A3        1.94578   0.00090   0.00007   0.01075   0.01078   1.95656
    A4        1.87722  -0.00050   0.00429  -0.00580  -0.00152   1.87571
    A5        1.89718  -0.00030  -0.00334  -0.00290  -0.00630   1.89089
    A6        1.89234  -0.00034   0.00101  -0.00521  -0.00421   1.88814
    A7        1.89801  -0.00052   0.00060  -0.00686  -0.00628   1.89173
    D1        0.78693   0.00118   0.02834   0.09433   0.12271   0.90964
    D2       -1.34116   0.00043   0.03435   0.08384   0.11816  -1.22300
    D3        2.86278   0.00085   0.03092   0.08961   0.12052   2.98331
         Item               Value     Threshold  Converged?
 Maximum Force            0.003009     0.000450     NO 
 RMS     Force            0.001063     0.000300     NO 
 Maximum Displacement     0.087372     0.001800     NO 
 RMS     Displacement     0.034396     0.001200     NO 
 Predicted change in Energy=-1.799315D-04
 GradGradGradGradGradGradGradGradGradGradGradGradGradGradGradGradGradGrad

 Leave Link  103 at Sun Dec 29 12:25:35 2019, MaxMem=   91750400 cpu:       0.0
 (Enter /opt/g09gh/gaussian/g09/l202.exe)
                          Input orientation:                          
 ---------------------------------------------------------------------
 Center     Atomic      Atomic             Coordinates (Angstroms)
 Number     Number       Type             X           Y           Z
 ---------------------------------------------------------------------
      1          8           0        0.726765    0.088584    0.081009
      2          6           0       -0.659342   -0.022127    0.020598
      3          1           0       -1.033832   -0.840310    0.632351
      4          1           0       -1.014598   -0.165665   -0.997790
      5          1           0       -1.075252    0.900190    0.399860
      6          1           0        1.129770   -0.736671   -0.108024
 ---------------------------------------------------------------------
                    Distance matrix (angstroms):
                    1          2          3          4          5
     1  O    0.000000
     2  C    1.391833   0.000000
     3  H    2.065557   1.088075   0.000000
     4  H    2.064170   1.088083   1.764334   0.000000
     5  H    2.001909   1.080504   1.756447   1.758736   0.000000
     6  H    0.937652   1.930813   2.289120   2.390825   2.792737
                    6
     6  H    0.000000
 Stoichiometry    CH4O
 Framework group  C1[X(CH4O)]
 Deg. of freedom    12
 Full point group                 C1      NOp   1
 Largest Abelian subgroup         C1      NOp   1
 Largest concise Abelian subgroup C1      NOp   1
                         Standard orientation:                         
 ---------------------------------------------------------------------
 Center     Atomic      Atomic             Coordinates (Angstroms)
 Number     Number       Type             X           Y           Z
 ---------------------------------------------------------------------
      1          8           0       -0.733116    0.119282    0.000664
      2          6           0        0.651805   -0.019258    0.000418
      3          1           0        0.999523   -0.675753   -0.794576
      4          1           0        1.025168   -0.401753    0.948164
      5          1           0        1.075845    0.961156   -0.162270
      6          1           0       -1.146442   -0.722355    0.000868
 ---------------------------------------------------------------------
 Rotational constants (GHZ):    132.0680651     25.6064039     24.7427767
 Leave Link  202 at Sun Dec 29 12:25:35 2019, MaxMem=   91750400 cpu:       0.0
 (Enter /opt/g09gh/gaussian/g09/l301.exe)
 Standard basis: 6-311G(d) (5D, 7F)
 Ernie: Thresh=  0.10000D-02 Tol=  0.10000D-05 Strict=F.
 There are    48 symmetry adapted basis functions of A   symmetry.
 Integral buffers will be    131072 words long.
 Raffenetti 1 integral format.
 Two-electron integral symmetry is turned on.
    48 basis functions,    84 primitive gaussians,    50 cartesian basis functions
     9 alpha electrons        9 beta electrons
       nuclear repulsion energy        40.9428049905 Hartrees.
 IExCor=    0 DFT=F Ex=HF Corr=None ExCW=0 ScaHFX=  1.000000
 ScaDFX=  1.000000  1.000000  1.000000  1.000000 ScalE2=  1.000000  1.000000
 IRadAn=      0 IRanWt=     -1 IRanGd=            0 ICorTp=0
 NAtoms=    6 NActive=    6 NUniq=    6 SFac= 7.50D-01 NAtFMM=   80 NAOKFM=F Big=F
 Leave Link  301 at Sun Dec 29 12:25:35 2019, MaxMem=   91750400 cpu:       0.1
 (Enter /opt/g09gh/gaussian/g09/l302.exe)
 NPDir=0 NMtPBC=     1 NCelOv=     1 NCel=       1 NClECP=     1 NCelD=      1
         NCelK=      1 NCelE2=     1 NClLst=     1 CellRange=     0.0.
 One-electron integrals computed using PRISM.
 NBasis=    48 RedAO= T  NBF=    48
 NBsUse=    48 1.00D-06 NBFU=    48
 Leave Link  302 at Sun Dec 29 12:25:35 2019, MaxMem=   91750400 cpu:       0.2
 (Enter /opt/g09gh/gaussian/g09/l303.exe)
 DipDrv:  MaxL=1.
 Leave Link  303 at Sun Dec 29 12:25:35 2019, MaxMem=   91750400 cpu:       0.0
 (Enter /opt/g09gh/gaussian/g09/l401.exe)
 Initial guess read from the read-write file.
 B after Tr=     0.000000    0.000000    0.000000
         Rot=    1.000000    0.000000    0.000000    0.000000 Ang=   0.00 deg.
 Guess basis will be translated and rotated to current coordinates.
 Initial guess orbital symmetries:
       Occupied  (A) (A) (A) (A) (A) (A) (A) (A) (A)
       Virtual   (A) (A) (A) (A) (A) (A) (A) (A) (A) (A) (A) (A)
                 (A) (A) (A) (A) (A) (A) (A) (A) (A) (A) (A) (A)
                 (A) (A) (A) (A) (A) (A) (A) (A) (A) (A) (A) (A)
                 (A) (A) (A)
 The electronic state of the initial guess is 1-A.
 Generating alternative initial guess.
 Harris functional with IExCor=  205 diagonalized for initial guess.
 ExpMin= 1.03D-01 ExpMax= 8.59D+03 ExpMxC= 1.30D+03 IAcc=1 IRadAn=         1 AccDes= 0.00D+00
 HarFok:  IExCor=  205 AccDes= 0.00D+00 IRadAn=         1 IDoV= 1
 ScaDFX=  1.000000  1.000000  1.000000  1.000000
 FoFCou: FMM=F IPFlag=           0 FMFlag=      100000 FMFlg1=           0
         NFxFlg=           0 DoJE=T BraDBF=F KetDBF=T FulRan=T
         Omega=  0.000000  0.000000  1.000000  0.000000  0.000000 ICntrl=     500 IOpCl=  0
         NMat0=    1 NMatS0=    1 NMatT0=    0 NMatD0=    1 NMtDS0=    0 NMtDT0=    0
         I1Cent=           4 NGrid=           0.
 Petite list used in FoFCou.
 Harris En= -115.248962692362    
 Leave Link  401 at Sun Dec 29 12:25:35 2019, MaxMem=   91750400 cpu:       0.3
 (Enter /opt/g09gh/gaussian/g09/l502.exe)
 Closed shell SCF:
 Requested convergence on RMS density matrix=1.00D-08 within 128 cycles.
 Requested convergence on MAX density matrix=1.00D-06.
 Requested convergence on             energy=1.00D-06.
 No special actions if energy rises.
 Using DIIS extrapolation, IDIIS=  1040.
 Integral symmetry usage will be decided dynamically.
 Keep R1 ints in memory in canonical form, NReq=1659792.
 IEnd=       26328 IEndB=       26328 NGot=    91750400 MDV=    90929785
 LenX=    90929785 LenY=    90926844
 Symmetry not used in FoFDir.
 MinBra= 0 MaxBra= 2 Meth= 1.
 IRaf=       0 NMat=   1 IRICut=       1 DoRegI=T DoRafI=F ISym2E= 0 JSym2E=0.

 Cycle   1  Pass 1  IDiag  1:
 E= -111.816423321198    
 DIIS: error= 1.14D-01 at cycle   1 NSaved=   1.
 NSaved= 1 IEnMin= 1 EnMin= -111.816423321198     IErMin= 1 ErrMin= 1.14D-01
 ErrMax= 1.14D-01 EMaxC= 1.00D-01 BMatC= 1.22D+00 BMatP= 1.22D+00
 IDIUse=3 WtCom= 0.00D+00 WtEn= 1.00D+00
 Coeff-Com:  0.100D+01
 Coeff-En:   0.100D+01
 Coeff:      0.100D+01
 Recover alternate guess density for next cycle.
 RMSDP=3.79D-02 MaxDP=3.84D-01              OVMax= 0.00D+00

 Cycle   2  Pass 1  IDiag  1:
 E= -114.936595212429     Delta-E=       -3.120171891231 Rises=F Damp=F
 DIIS: error= 5.95D-02 at cycle   2 NSaved=   2.
 NSaved= 2 IEnMin= 2 EnMin= -114.936595212429     IErMin= 2 ErrMin= 5.95D-02
 ErrMax= 5.95D-02 EMaxC= 1.00D-01 BMatC= 2.62D-01 BMatP= 1.22D+00
 IDIUse=3 WtCom= 4.05D-01 WtEn= 5.95D-01
 Coeff-Com:  0.824D-01 0.918D+00
 Coeff-En:   0.000D+00 0.100D+01
 Coeff:      0.334D-01 0.967D+00
 Gap=     0.554 Goal=   None    Shift=    0.000
 RMSDP=6.25D-03 MaxDP=8.52D-02 DE=-3.12D+00 OVMax= 1.03D-01

 Cycle   3  Pass 1  IDiag  1:
 E= -115.036252158380     Delta-E=       -0.099656945950 Rises=F Damp=F
 DIIS: error= 2.71D-02 at cycle   3 NSaved=   3.
 NSaved= 3 IEnMin= 3 EnMin= -115.036252158380     IErMin= 3 ErrMin= 2.71D-02
 ErrMax= 2.71D-02 EMaxC= 1.00D-01 BMatC= 3.94D-02 BMatP= 2.62D-01
 IDIUse=3 WtCom= 7.29D-01 WtEn= 2.71D-01
 Coeff-Com:  0.351D-01 0.199D+00 0.766D+00
 Coeff-En:   0.000D+00 0.000D+00 0.100D+01
 Coeff:      0.256D-01 0.145D+00 0.829D+00
[...]
 -------------------------------------------------------------------
      1        8           0.000001948   -0.000034612   -0.000022968
      2        6           0.000011092    0.000063201    0.000027746
      3        1          -0.000010483   -0.000007047   -0.000004406
      4        1          -0.000008153   -0.000005082   -0.000002865
      5        1          -0.000041127   -0.000005612   -0.000001396
      6        1           0.000046723   -0.000010847    0.000003889
 -------------------------------------------------------------------
 Cartesian Forces:  Max     0.000063201 RMS     0.000024649
 Leave Link  716 at Sun Dec 29 12:25:42 2019, MaxMem=   91750400 cpu:       0.0
 (Enter /opt/g09gh/gaussian/g09/l103.exe)

 GradGradGradGradGradGradGradGradGradGradGradGradGradGradGradGradGradGrad
 Berny optimization.
 Using GEDIIS/GDIIS optimizer.
 Internal  Forces:  Max     0.000068738 RMS     0.000029299
 Search for a local minimum.
 Step number   8 out of a maximum of  100
 All quantities printed in internal units (Hartrees-Bohrs-Radians)
 RMS Force = .29299D-04 SwitMx=.10000D-02 MixMth= 2
 Mixed Optimization -- En-DIIS/RFO-DIIS
 Swaping is turned off.
 Update second derivatives using D2CorX and points    3    4    5    6    7
                                                      8
 DE= -2.74D-07 DEPred=-3.42D-07 R= 8.01D-01
 Trust test= 8.01D-01 RLast= 5.53D-03 DXMaxT set to 6.30D-01
 The second derivative matrix:
                          R1        R2        R3        R4        R5
           R1           0.38409
           R2           0.00090   0.55388
           R3           0.01838   0.00969   0.34190
           R4           0.01803   0.00987  -0.00127   0.34244
           R5           0.00674   0.00967   0.00028   0.00023   0.34675
           A1           0.03034   0.00889  -0.00192  -0.00232   0.00469
           A2           0.02867  -0.00293  -0.00290  -0.00257  -0.00683
           A3           0.02293  -0.00095  -0.00237  -0.00205  -0.00562
           A4           0.03216   0.00978  -0.00351  -0.00389   0.00563
           A5          -0.04119   0.00559   0.00744   0.00709   0.00844
           A6          -0.02313  -0.00809   0.00008   0.00012  -0.00138
           A7          -0.02121  -0.00765   0.00027   0.00031  -0.00139
           D1           0.01228  -0.01400  -0.00456  -0.00408  -0.01006
           D2          -0.01278   0.01337   0.00415   0.00369   0.01016
           D3           0.00281   0.00094   0.00013   0.00011   0.00036
                          A1        A2        A3        A4        A5
           A1           0.18630
           A2          -0.00332   0.17248
           A3          -0.00498   0.00967   0.16751
           A4           0.02499  -0.00881  -0.00948   0.18396
           A5           0.00125  -0.01041  -0.00759   0.01172   0.15854
           A6          -0.00892  -0.00153  -0.00012  -0.00922   0.00422
           A7          -0.00840  -0.00075   0.00056  -0.00871   0.00348
           D1          -0.01187   0.01413   0.01147  -0.02197  -0.00198
           D2           0.01213  -0.01404  -0.01284   0.02223   0.00201
           D3           0.00078   0.00071  -0.00037   0.00107  -0.00048
                          A6        A7        D1        D2        D3
           A6           0.16341
           A7           0.00296   0.16222
           D1          -0.00167  -0.00036   0.01670
           D2           0.00132   0.00187  -0.01045   0.01650
           D3          -0.00090   0.00000  -0.00292  -0.00311   0.00944
     Eigenvalues ---    0.00321   0.10417   0.10736   0.15331   0.16012
     Eigenvalues ---    0.16592   0.22512   0.33603   0.34345   0.34789
     Eigenvalues ---    0.41630   0.556551000.000001000.000001000.00000
 En-DIIS/RFO-DIIS IScMMF=        0 using points:     8    7    6
 RFO step:  Lambda=-2.51102463D-08.
 DIIS coeffs:      0.82032      0.19623     -0.01654
 Iteration  1 RMS(Cart)=  0.00034474 RMS(Int)=  0.00000019
 Iteration  2 RMS(Cart)=  0.00000016 RMS(Int)=  0.00000001
 Variable       Old X    -DE/DX   Delta X   Delta X   Delta X     New X
                                  (DIIS)     (GDIIS)  (Total)
    R1        2.64172   0.00004   0.00001   0.00004   0.00005   2.64177
    R2        1.77420   0.00003   0.00004  -0.00001   0.00003   1.77424
    R3        2.05466   0.00001   0.00003  -0.00001   0.00002   2.05469
    R4        2.05467   0.00001   0.00003  -0.00001   0.00002   2.05469
    R5        2.04143   0.00001   0.00004  -0.00002   0.00002   2.04145
    A1        1.91994   0.00007   0.00015   0.00016   0.00031   1.92025
    A2        1.95408   0.00000   0.00000   0.00002   0.00002   1.95410
    A3        1.95412   0.00000   0.00000  -0.00001  -0.00001   1.95410
    A4        1.87147   0.00006   0.00021   0.00007   0.00027   1.87174
    A5        1.89769  -0.00002  -0.00009  -0.00004  -0.00013   1.89755
    A6        1.89227  -0.00002  -0.00005  -0.00004  -0.00009   1.89218
    A7        1.89224  -0.00002  -0.00007   0.00001  -0.00006   1.89218
    D1        1.06914  -0.00002   0.00056  -0.00171  -0.00116   1.06798
    D2       -1.06725   0.00001   0.00067  -0.00166  -0.00099  -1.06824
    D3       -3.14064   0.00000   0.00062  -0.00171  -0.00108   3.14146
         Item               Value     Threshold  Converged?
 Maximum Force            0.000069     0.000450     YES
 RMS     Force            0.000029     0.000300     YES
 Maximum Displacement     0.000741     0.001800     YES
 RMS     Displacement     0.000345     0.001200     YES
 Predicted change in Energy=-2.999221D-08
 Optimization completed.
    -- Stationary point found.
                           ----------------------------
                           !   Optimized Parameters   !
                           ! (Angstroms and Degrees)  !
 --------------------------                            --------------------------
 ! Name  Definition              Value          Derivative Info.                !
 --------------------------------------------------------------------------------
 ! R1    R(1,2)                  1.3979         -DE/DX =    0.0                 !
 ! R2    R(1,6)                  0.9389         -DE/DX =    0.0                 !
 ! R3    R(2,3)                  1.0873         -DE/DX =    0.0                 !
 ! R4    R(2,4)                  1.0873         -DE/DX =    0.0                 !
 ! R5    R(2,5)                  1.0803         -DE/DX =    0.0                 !
 ! A1    A(2,1,6)              110.0047         -DE/DX =    0.0001              !
 ! A2    A(1,2,3)              111.9607         -DE/DX =    0.0                 !
 ! A3    A(1,2,4)              111.9626         -DE/DX =    0.0                 !
 ! A4    A(1,2,5)              107.227          -DE/DX =    0.0001              !
 ! A5    A(3,2,4)              108.7294         -DE/DX =    0.0                 !
 ! A6    A(3,2,5)              108.4188         -DE/DX =    0.0                 !
 ! A7    A(4,2,5)              108.4173         -DE/DX =    0.0                 !
 ! D1    D(6,1,2,3)             61.2573         -DE/DX =    0.0                 !
 ! D2    D(6,1,2,4)            -61.1491         -DE/DX =    0.0                 !
 ! D3    D(6,1,2,5)            180.0545         -DE/DX =    0.0                 !
 --------------------------------------------------------------------------------
 GradGradGradGradGradGradGradGradGradGradGradGradGradGradGradGradGradGrad

 Largest change from initial coordinates is atom    3       1.497 Angstoms.
 Leave Link  103 at Sun Dec 29 12:25:42 2019, MaxMem=   91750400 cpu:       0.0
 (Enter /opt/g09gh/gaussian/g09/l202.exe)
                          Input orientation:                          
 ---------------------------------------------------------------------
 Center     Atomic      Atomic             Coordinates (Angstroms)
 Number     Number       Type             X           Y           Z
 ---------------------------------------------------------------------
      1          8           0        0.727948    0.075217    0.129483
      2          6           0       -0.662831   -0.026429    0.031292
      3          1           0       -1.056219   -0.831242    0.647492
      4          1           0       -0.987810   -0.181424   -0.994645
      5          1           0       -1.077482    0.906914    0.383339
      6          1           0        1.129905   -0.719035   -0.168957
 ---------------------------------------------------------------------
                    Distance matrix (angstroms):
                    1          2          3          4          5
     1  O    0.000000
     2  C    1.397941   0.000000
     3  H    2.067185   1.087282   0.000000
     4  H    2.067209   1.087282   1.767359   0.000000
     5  H    2.003931   1.080279   1.758243   1.758227   0.000000
     6  H    0.938868   1.932279   2.336304   2.335702   2.796658
                    6
     6  H    0.000000
 Stoichiometry    CH4O
 Framework group  C1[X(CH4O)]
 Deg. of freedom    12
 Full point group                 C1      NOp   1
 Largest Abelian subgroup         C1      NOp   1
 Largest concise Abelian subgroup C1      NOp   1
                         Standard orientation:                         
 ---------------------------------------------------------------------
 Center     Atomic      Atomic             Coordinates (Angstroms)
 Number     Number       Type             X           Y           Z
 ---------------------------------------------------------------------
      1          8           0        0.735843    0.119492    0.000002
      2          6           0       -0.655157   -0.019644    0.000003
      3          1           0       -1.011486   -0.542612    0.884150
      4          1           0       -1.011355   -0.544280   -0.883209
      5          1           0       -1.076198    0.975205   -0.000984
      6          1           0        1.143239   -0.726381    0.000007
 ---------------------------------------------------------------------
 Rotational constants (GHZ):    131.6716737     25.4630400     24.6073498
 Leave Link  202 at Sun Dec 29 12:25:42 2019, MaxMem=   91750400 cpu:       0.0
 (Enter /opt/g09gh/gaussian/g09/l601.exe)
 Copying SCF densities to generalized density rwf, IOpCl= 0 IROHF=0.

 **********************************************************************

            Population analysis using the SCF density.

 **********************************************************************

 Orbital symmetries:
       Occupied  (A) (A) (A) (A) (A) (A) (A) (A) (A)
       Virtual   (A) (A) (A) (A) (A) (A) (A) (A) (A) (A) (A) (A)
                 (A) (A) (A) (A) (A) (A) (A) (A) (A) (A) (A) (A)
                 (A) (A) (A) (A) (A) (A) (A) (A) (A) (A) (A) (A)
                 (A) (A) (A)
 The electronic state is 1-A.
 Alpha  occ. eigenvalues --  -20.54166 -11.26479  -1.36449  -0.92835  -0.69702
 Alpha  occ. eigenvalues --   -0.62232  -0.59732  -0.49811  -0.44493
 Alpha virt. eigenvalues --    0.15461   0.18913   0.22732   0.23399   0.34624
 Alpha virt. eigenvalues --    0.46132   0.48404   0.59618   0.70041   0.73724
 Alpha virt. eigenvalues --    0.79100   0.80581   0.94603   1.06460   1.07995
 Alpha virt. eigenvalues --    1.17524   1.54683   1.60221   1.69550   1.76419
 Alpha virt. eigenvalues --    1.77086   2.00242   2.36814   2.61913   2.70591
 Alpha virt. eigenvalues --    2.72488   3.16484   3.25782   3.37841   3.42119
 Alpha virt. eigenvalues --    3.51644   3.57727   3.82998   4.27333   5.38592
 Alpha virt. eigenvalues --    5.54231   5.93229  24.56804  51.52764
          Condensed to atoms (all electrons):
              1          2          3          4          5          6
     1  O    8.263009   0.217568  -0.034349  -0.034332  -0.028378   0.269359
     2  C    0.217568   4.979171   0.394320   0.394322   0.391892  -0.049626
     3  H   -0.034349   0.394320   0.538245  -0.040943  -0.032928  -0.004262
     4  H   -0.034332   0.394322  -0.040943   0.538252  -0.032915  -0.004281
     5  H   -0.028378   0.391892  -0.032928  -0.032915   0.485578   0.007296
     6  H    0.269359  -0.049626  -0.004262  -0.004281   0.007296   0.370260
 Mulliken atomic charges:
              1
     1  O   -0.652877
     2  C   -0.327648
     3  H    0.179917
     4  H    0.179897
     5  H    0.209456
     6  H    0.411254
 Sum of Mulliken atomic charges =   0.00000
 Mulliken charges with hydrogens summed into heavy atoms:
              1
     1  O   -0.241622
     2  C    0.241622
 Sum of Mulliken charges with hydrogens summed into heavy atoms =   0.00000
 Electronic spatial extent (au):  <R**2>=             82.6745
 Charge=              0.0000 electrons
 Dipole moment (field-independent basis, Debye):
    X=             -0.8853    Y=             -1.7070    Z=             -0.0001  Tot=              1.9230
 Quadrupole moment (field-independent basis, Debye-Ang):
   XX=            -12.6409   YY=            -12.0939   ZZ=            -13.6204
   XY=             -2.4345   XZ=              0.0002   YZ=             -0.0001
 Traceless Quadrupole moment (field-independent basis, Debye-Ang):
   XX=              0.1442   YY=              0.6912   ZZ=             -0.8353
   XY=             -2.4345   XZ=              0.0002   YZ=             -0.0001
 Octapole moment (field-independent basis, Debye-Ang**2):
  XXX=              4.4480  YYY=             -0.6271  ZZZ=              0.0011  XYY=              1.7668
  XXY=             -2.5053  XXZ=             -0.0002  XZZ=              0.5120  YZZ=             -0.6733
  YYZ=             -0.0015  XYZ=              0.0002
 Hexadecapole moment (field-independent basis, Debye-Ang**3):
 XXXX=            -58.4015 YYYY=            -19.0654 ZZZZ=            -18.9898 XXXY=             -4.0948
 XXXZ=              0.0004 YYYX=             -2.9847 YYYZ=             -0.0002 ZZZX=             -0.0014
 ZZZY=             -0.0002 XXYY=            -11.8871 XXZZ=            -13.5195 YYZZ=             -6.4467
 XXYZ=             -0.0004 YYXZ=              0.0018 ZZXY=              0.0525
 N-N= 4.085366458926D+01 E-N=-3.530789258817D+02  KE= 1.151621112222D+02
 No NMR shielding tensors so no spin-rotation constants.
 Leave Link  601 at Sun Dec 29 12:25:42 2019, MaxMem=   91750400 cpu:       0.1
 (Enter /opt/g09gh/gaussian/g09/l9999.exe)
 1\1\GINC-NODE36\FOpt\RHF\6-311G(d)\C1H4O1\BDW2292\29-Dec-2019\0\\#P op
 t=(,maxcycle=400) HF/6-311G* MaxDisk=100GB\\methanol Rotatable Bond Op
 timization on node36.bme.utexas.edu\\0,1\O,0.7279476776,0.0752174831,0
 .1294827761\C,-0.662830707,-0.0264293994,0.0312922934\H,-1.0562194327,
 -0.8312424706,0.6474922386\H,-0.9878102611,-0.181423997,-0.9946452848\
 H,-1.077482133,0.9069142946,0.3833385023\H,1.1299048563,-0.7190349106,
 -0.1689565256\\Version=EM64L-G09RevA.02\State=1-A\HF=-115.0637284\RMSD
 =8.157e-09\RMSF=2.465e-05\Dipole=-0.3521226,-0.6172285,-0.2596229\Quad
 rupole=0.0841693,0.4265443,-0.5107136,-1.6888168,-0.6406375,0.3453351\
 PG=C01 [X(C1H4O1)]\\@


                                                                                    A
                                                                                  AA
                                                                                 AAA
                                                                                AAAA
                                                                               AAAAA
                                                                              AAAAAA   KKKKKKKK
                                                                             AAAAAAA   KKKKKKKK
                                                                            AAAAAAAA   KKKKKKKK
                                       ZZZZZZZZZZZZZZZZZZZZ                AAAA  AAA   KKKKKKKK
                                       ZZZZZZZZZZZZZZZZZZZ                AAAA   AAA   KKKKKKKK          K
                                       ZZZZZZZZZZZZZZZZZZ                AAAA    AAA   KKKKKKKK         KKK
                                       ZZZZZZZZZZZZZZZZZ                AAAA     AAA   KKKKKKKK        KKKKK
                                       ZZZZZZZZZZZZZZZZ                AAAA      AAA   KKKKKKKK       KKKKKKK
                                                ZZZZZZ                AAAA       AAA   KKKKKKKK      KKKKKKK
                                               ZZZZZZ                AAAA        AAA   KKKKKKKK     KKKKKKK
                                              ZZZZZZ                AAAA         AAA   KKKKKKKK    KKKKKKK
                                             ZZZZZZ                AAAA          AAA   KKKKKKKK   KKKKKKK
                                            ZZZZZZ                AAAAAAAAAAAAAAAAAA   KKKKKKKK  KKKKKKK
                                           ZZZZZZ                AAAAAAAAAAAAAAAAAAA   KKKKKKKK KKKKKKK
                                          ZZZZZZ                AAAAAAAAAAAAAAAAAAAA   KKKKKKKKKKKKKKK
                                         ZZZZZZ                AAAAAAAAAAAAAAAAAAAAA   KKKKKKKKKKKKKK
                                        ZZZZZZ                AAAAAA        AAAAAAAA   KKKKKKKKKKKKK
                                       ZZZZZZ                AAAAAA         AAAAAAAA   KKKKKKKKKKKK
                                      ZZZZZZ                AAAAAA          AAAAAAAA   KKKKKKKKKKK
                                     ZZZZZZ                AAAAAA           AAAAAAAA   KKKKKKKKKKKK
                                    ZZZZZZ                AAAAAA            AAAAAAAA   KKKKKKKKKKKKK
                                   ZZZZZZ                AAAAAA             AAAAAAAA   KKKKKKKKKKKKKK
                                  ZZZZZZ                AAAAAA              AAAAAAAA   KKKKKKKKKKKKKKK
                                 ZZZZZZ                AAAAAA               AAAAAAAA   KKKKK KKKKKKKKKK
                                ZZZZZZ                AAAAAA                AAAAAAAA   KKKKK  KKKKKKKKKK
                               ZZZZZZ                AAAAAA                            KKKKK   KKKKKKKKKK
                              ZZZZZZ                AAAAAA                             KKKKK    KKKKKKKKKK
                             ZZZZZZ                                                    KKKKK     KKKKKKKKKK
                            ZZZZZZ                                                     KKKKK      KKKKKKKKKK
                           ZZZZZZ                                                      KKKKK       KKKKKKKKKK
                          ZZZZZZ                                                       KKKKK        KKKKKKKKKK
                         ZZZZZZZZZZZZZZZZZZZZZZZZZZZZZZZZZZZZZZZZ                      KKKKK         KKKKKKKKKK
                        ZZZZZZZZZZZZZZZZZZZZZZZZZZZZZZZZZZZZZZZZZ                      KKKKK          KKKKKKKKKK
                       ZZZZZZZZZZZZZZZZZZZZZZZZZZZZZZZZZZZZZZZZZZ                      KKKKK           KKKKKKKKKK
                       ZZZZZZZZZZZZZZZZZZZZZZZZZZZZZZZZZZZZZZZZZZ                      KKKKK            KKKKKKKKKK
                       ZZZZZZZZZZZZZZZZZZZZZZZZZZZZZZZZZZZZZZZZZZ                      KKKKK             KKKKKKKKKK
                       ZZZZZZZZZZZZZZZZZZZZZZZZZZZZZZZZZZZZZZZZZZ                      KKKKK              KKKKKKKKKK
                       ZZZZZZZZZZZZZZZZZZZZZZZZZZZZZZZZZZZZZZZZZZ                      KKKKK               KKKKKKKKKK
                       ZZZZZZZZZZZZZZZZZZZZZZZZZZZZZZZZZZZZZZZZZZ                      KKKKK                KKKKKKKKKK
                       ZZZZZZZZZZZZZZZZZZZZZZZZZZZZZZZZZZZZZZZZZZ                      KKKKK
                                                                                       KKKKK
                                                                                          (J.P.)
 Job cpu time:  0 days  0 hours  0 minutes 10.4 seconds.
 File lengths (MBytes):  RWF=      5 Int=      0 D2E=      0 Chk=      1 Scr=      1
 Normal termination of Gaussian 09 at Sun Dec 29 12:25:42 2019.
