 Entering Gaussian System, Link 0=g09
 Input=methanol-sp-6-1-2-3-257.com
 Output=methanol-sp-6-1-2-3-257.log
 Initial command:
 /opt/g09gh/gaussian/g09/l1.exe /scratch/bdw2292/Gau-methanol/Gau-41306.inp -scrdir=/scratch/bdw2292/Gau-methanol/
 Entering Link 1 = /opt/g09gh/gaussian/g09/l1.exe PID=     41307.
  
 Copyright (c) 1988,1990,1992,1993,1995,1998,2003,2009, Gaussian, Inc.
                  All Rights Reserved.
  
 This is part of the Gaussian(R) 09 program.  It is based on
 the Gaussian(R) 03 system (copyright 2003, Gaussian, Inc.),
 the Gaussian(R) 98 system (copyright 1998, Gaussian, Inc.),
 the Gaussian(R) 94 system (copyright 1995, Gaussian, Inc.),
 the Gaussian 92(TM) system (copyright 1992, Gaussian, Inc.),
 the Gaussian 90(TM) system (copyright 1990, Gaussian, Inc.),
 the Gaussian 88(TM) system (copyright 1988, Gaussian, Inc.),
 the Gaussian 86(TM) system (copyright 1986, Carnegie Mellon
 University), and the Gaussian 82(TM) system (copyright 1983,
 Carnegie Mellon University). Gaussian is a federally registered
 trademark of Gaussian, Inc.
  
 This software contains proprietary and confidential information,
 including trade secrets, belonging to Gaussian, Inc.
  
 This software is provided under written license and may be
 used, copied, transmitted, or stored only in accord with that
 written license.
  
 The following legend is applicable only to US Government
 contracts under FAR:
  
                    RESTRICTED RIGHTS LEGEND
  
 Use, reproduction and disclosure by the US Government is
 subject to restrictions as set forth in subparagraphs (a)
 and (c) of the Commercial Computer Software - Restricted
 Rights clause in FAR 52.227-19.
  
 Gaussian, Inc.
 340 Quinnipiac St., Bldg. 40, Wallingford CT 06492
  
  
 ---------------------------------------------------------------
 Warning -- This program may not be used in any manner that
 competes with the business of Gaussian, Inc. or will provide
 assistance to any competitor of Gaussian, Inc.  The licensee
 of this program is prohibited from giving any competitor of
 Gaussian, Inc. access to this program.  By using this program,
 the user acknowledges that Gaussian, Inc. is engaged in the
 business of creating and licensing software in the field of
 computational chemistry and represents and warrants to the
 licensee that it is not a competitor of Gaussian, Inc. and that
 it will not use this program in any manner prohibited above.
 ---------------------------------------------------------------
  

 Cite this work as:
 Gaussian 09, Revision A.02,
 M. J. Frisch, G. W. Trucks, H. B. Schlegel, G. E. Scuseria, 
 M. A. Robb, J. R. Cheeseman, G. Scalmani, V. Barone, B. Mennucci, 
 G. A. Petersson, H. Nakatsuji, M. Caricato, X. Li, H. P. Hratchian, 
 A. F. Izmaylov, J. Bloino, G. Zheng, J. L. Sonnenberg, M. Hada, 
 M. Ehara, K. Toyota, R. Fukuda, J. Hasegawa, M. Ishida, T. Nakajima, 
 Y. Honda, O. Kitao, H. Nakai, T. Vreven, J. A. Montgomery, Jr., 
 J. E. Peralta, F. Ogliaro, M. Bearpark, J. J. Heyd, E. Brothers, 
 K. N. Kudin, V. N. Staroverov, R. Kobayashi, J. Normand, 
 K. Raghavachari, A. Rendell, J. C. Burant, S. S. Iyengar, J. Tomasi, 
 M. Cossi, N. Rega, J. M. Millam, M. Klene, J. E. Knox, J. B. Cross, 
 V. Bakken, C. Adamo, J. Jaramillo, R. Gomperts, R. E. Stratmann, 
 O. Yazyev, A. J. Austin, R. Cammi, C. Pomelli, J. W. Ochterski, 
 R. L. Martin, K. Morokuma, V. G. Zakrzewski, G. A. Voth, 
 P. Salvador, J. J. Dannenberg, S. Dapprich, A. D. Daniels, 
 O. Farkas, J. B. Foresman, J. V. Ortiz, J. Cioslowski, 
 and D. J. Fox, Gaussian, Inc., Wallingford CT, 2009.
 
 ******************************************
 Gaussian 09:  EM64L-G09RevA.02 11-Jun-2009
                29-Dec-2019 
 ******************************************
 %RWF=/scratch/bdw2292/Gau-methanol/,100GB
 %Nosave
 %Chk=methanol-sp-6-1-2-3-257.chk
 %Mem=700MB
 %Nproc=1
 Will use up to    1 processors via shared memory.
 ----------------------------------------------------------------------
 #P MP2/6-311++G(2d,2p) SP SCF=(qc,maxcycle=800) Guess=Indo MaxDisk=100
 GB SCRF=(PCM)
 ----------------------------------------------------------------------
 1/38=1/1;
 2/12=2,17=6,18=5,40=1/2;
 3/5=4,6=6,7=1212,11=9,16=1,25=1,30=1,70=2201,72=1/1,2,3;
 4/5=4,11=3/1;
 5/5=2,7=800,8=3,38=5/8;
 8/10=2/1;
 9/16=-3/6;
 6/7=2,8=2,9=2,10=2/1;
 99/5=1,9=1/99;
 Leave Link    1 at Sun Dec 29 12:29:56 2019, MaxMem=   91750400 cpu:       0.0
 (Enter /opt/g09gh/gaussian/g09/l101.exe)
 ---------------------------------------------------------------
 methanol Rotatable Bond SP Calculation on node36.bme.utexas.edu
 ---------------------------------------------------------------
 Symbolic Z-matrix:
 Charge =  0 Multiplicity = 1
 O                     0.74171   0.05101  -0.23912 
 C                    -0.68022  -0.01534  -0.05443 
 H                    -1.12184  -0.48034  -0.94076 
 H                    -1.05488   0.99983   0.10622 
 H                    -0.88506  -0.6301    0.82793 
 H                     1.12525  -0.66338   0.30041 
 
 NAtoms=      6 NQM=      6 NQMF=      0 NMic=      0 NMicF=      0 NTot=      6.
                    Isotopes and Nuclear Properties:
 (Nuclear quadrupole moments (NQMom) in fm**2, nuclear magnetic moments (NMagM)
  in nuclear magnetons)

  Atom         1           2           3           4           5           6
 IAtWgt=          16          12           1           1           1           1
 AtmWgt=  15.9949146  12.0000000   1.0078250   1.0078250   1.0078250   1.0078250
 NucSpn=           0           0           1           1           1           1
 AtZEff=   0.0000000   0.0000000   0.0000000   0.0000000   0.0000000   0.0000000
 NQMom=    0.0000000   0.0000000   0.0000000   0.0000000   0.0000000   0.0000000
 NMagM=    0.0000000   0.0000000   2.7928460   2.7928460   2.7928460   2.7928460
 Leave Link  101 at Sun Dec 29 12:29:56 2019, MaxMem=   91750400 cpu:       0.1
 (Enter /opt/g09gh/gaussian/g09/l202.exe)
                          Input orientation:                          
 ---------------------------------------------------------------------
 Center     Atomic      Atomic             Coordinates (Angstroms)
 Number     Number       Type             X           Y           Z
 ---------------------------------------------------------------------
      1          8           0        0.741712    0.051014   -0.239123
      2          6           0       -0.680219   -0.015336   -0.054433
      3          1           0       -1.121843   -0.480344   -0.940761
      4          1           0       -1.054883    0.999827    0.106217
      5          1           0       -0.885059   -0.630101    0.827925
      6          1           0        1.125249   -0.663380    0.300411
 ---------------------------------------------------------------------
                    Distance matrix (angstroms):
                    1          2          3          4          5
     1  O    0.000000
     2  C    1.435410   0.000000
     3  H    2.060940   1.094003   0.000000
     4  H    2.060888   1.093955   1.814264   0.000000
     5  H    2.061284   1.094738   1.790738   1.790633   0.000000
     6  H    0.973939   1.950792   2.573603   2.748990   2.078633
                    6
     6  H    0.000000
 Stoichiometry    CH4O
 Framework group  C1[X(CH4O)]
 Deg. of freedom    12
 Full point group                 C1      NOp   1
 Largest Abelian subgroup         C1      NOp   1
 Largest concise Abelian subgroup C1      NOp   1
                         Standard orientation:                         
 ---------------------------------------------------------------------
 Center     Atomic      Atomic             Coordinates (Angstroms)
 Number     Number       Type             X           Y           Z
 ---------------------------------------------------------------------
      1          8           0        0.750464   -0.130012    0.002482
      2          6           0       -0.677575    0.015245    0.000782
      3          1           0       -1.043567   -0.162426    1.016324
      4          1           0       -1.095827   -0.696859   -0.716651
      5          1           0       -0.919877    1.037436   -0.307224
      6          1           0        1.121008    0.770474   -0.016994
 ---------------------------------------------------------------------
 Rotational constants (GHZ):    124.4272297     24.6277545     23.7555394
 Leave Link  202 at Sun Dec 29 12:29:57 2019, MaxMem=   91750400 cpu:       0.0
 (Enter /opt/g09gh/gaussian/g09/l301.exe)
 Standard basis: 6-311++G(2d,2p) (5D, 7F)
 Ernie: Thresh=  0.10000D-02 Tol=  0.10000D-05 Strict=F.
 There are    94 symmetry adapted basis functions of A   symmetry.
 Integral buffers will be    131072 words long.
 Raffenetti 1 integral format.
 Two-electron integral symmetry is turned on.
    94 basis functions,   132 primitive gaussians,    98 cartesian basis functions
     9 alpha electrons        9 beta electrons
       nuclear repulsion energy        40.0723100386 Hartrees.
 IExCor=    0 DFT=F Ex=HF Corr=None ExCW=0 ScaHFX=  1.000000
 ScaDFX=  1.000000  1.000000  1.000000  1.000000 ScalE2=  1.000000  1.000000
 IRadAn=      0 IRanWt=     -1 IRanGd=            0 ICorTp=0
 NAtoms=    6 NActive=    6 NUniq=    6 SFac= 7.50D-01 NAtFMM=   80 NAOKFM=F Big=F
 ------------------------------------------------------------------------------
 Polarizable Continuum Model (PCM)
 =================================
 Model                : PCM.
 Atomic radii         : UFF (Universal Force Field).
 Polarization charges : Total charges.
 Charge compensation  : None.
 Solution method      : Matrix inversion.
 Cavity type          : Scaled VdW (van der Waals Surface) (Alpha=1.100).
 Cavity algorithm     : GePol (No added spheres)
                        Default sphere list used, NSphG=    6.
                        Lebedev-Laikov grids with approx.  5.0 points / Ang**2.
                        Smoothing algorithm: Karplus/York (Gamma=1.0000).
                        Polarization charges: spherical gaussians, with
                                              point-specific exponents (IZeta= 3).
                        Self-potential: point-specific (ISelfS= 7).
                        Self-field    : sphere-specific E.n sum rule (ISelfD= 2).
 Solvent              : Water, Eps=  78.355300 Eps(inf)=   1.777849
 ------------------------------------------------------------------------------
 Spheres list:
 ISph  on   Nord    Re0     Alpha      Xe            Ye            Ze
    1   O      1    1.750   1.100      0.750464     -0.130012      0.002482
    2   C      2    1.926   1.100     -0.677575      0.015245      0.000782
    3   H      3    1.443   1.100     -1.043567     -0.162426      1.016324
    4   H      4    1.443   1.100     -1.095827     -0.696859     -0.716651
    5   H      5    1.443   1.100     -0.919877      1.037436     -0.307224
    6   H      6    1.443   1.100      1.121008      0.770474     -0.016994
 ------------------------------------------------------------------------------
 GePol: Number of generator spheres                  =       6
 GePol: Total number of spheres                      =       6
 GePol: Number of exposed spheres                    =       6 (100.00%)
 GePol: Number of points                             =     610
 GePol: Average weight of points                     =       0.14
 GePol: Minimum weight of points                     =   0.22D-08
 GePol: Maximum weight of points                     =    0.20577
 GePol: Number of points with low weight             =      25
 GePol: Fraction of low-weight points (<1% of avg)   =       4.10%
 GePol: Cavity surface area                          =     83.896 Ang**2
 GePol: Cavity volume                                =     65.273 Ang**3
 Leave Link  301 at Sun Dec 29 12:29:57 2019, MaxMem=   91750400 cpu:       0.1
 (Enter /opt/g09gh/gaussian/g09/l302.exe)
 NPDir=0 NMtPBC=     1 NCelOv=     1 NCel=       1 NClECP=     1 NCelD=      1
         NCelK=      1 NCelE2=     1 NClLst=     1 CellRange=     0.0.
 One-electron integrals computed using PRISM.
 NBasis=    94 RedAO= T  NBF=    94
 NBsUse=    94 1.00D-06 NBFU=    94
 Leave Link  302 at Sun Dec 29 12:29:57 2019, MaxMem=   91750400 cpu:       0.2
 (Enter /opt/g09gh/gaussian/g09/l303.exe)
 DipDrv:  MaxL=1.
 Leave Link  303 at Sun Dec 29 12:29:57 2019, MaxMem=   91750400 cpu:       0.0
 (Enter /opt/g09gh/gaussian/g09/l401.exe)
 Projected INDO guess.
 Initial guess orbital symmetries:
       Occupied  (A) (A) (A) (A) (A) (A) (A) (A) (A)
       Virtual   (A) (A) (A) (A) (A) (A) (A) (A) (A) (A) (A) (A)
                 (A) (A) (A) (A) (A) (A) (A) (A) (A) (A) (A) (A)
                 (A) (A) (A) (A) (A) (A) (A) (A) (A) (A) (A) (A)
                 (A) (A) (A) (A) (A) (A) (A) (A) (A) (A) (A) (A)
                 (A) (A) (A) (A) (A) (A) (A) (A) (A) (A) (A) (A)
                 (A) (A) (A) (A) (A) (A) (A) (A) (A) (A) (A) (A)
                 (A) (A) (A) (A) (A) (A) (A) (A) (A) (A) (A) (A)
                 (A)
 The electronic state of the initial guess is 1-A.
 Leave Link  401 at Sun Dec 29 12:29:57 2019, MaxMem=   91750400 cpu:       0.1
 (Enter /opt/g09gh/gaussian/g09/l508.exe)
 Direct SCF.
 Tight linear equation convergence will be used.
 RHF wavefunction.
 Quadratic Convergence SCF Method.
 Line search only if initial step raises energy.
 Integral symmetry usage will be decided dynamically.
 ReadGW:  IGet=1 IStart=           2 Next=           2 LGW=           0.
 Keep R1 ints in memory in canonical form, NReq=15230096.
 Symmetry not used in FoFDir.
 MinBra= 0 MaxBra= 2 Meth= 1.
 IRaf=       0 NMat=   1 IRICut=       1 DoRegI=T DoRafI=F ISym2E= 0 JSym2E=0.
 Iteration   1 EE= -114.497451862910                                    Grad=2.171D+00
 Gradient too large for Newton-Raphson -- use scaled steepest descent instead.
     ILin= 1 X=0.000D+00 Y=-1.144974518629D+02 DE= 0.00D+00
     ILin= 2 X=3.000D-01 Y=-1.147750099402D+02 DE=-2.78D-01
     ILin= 3 X=4.243D-01 Y=-1.148635157203D+02 DE=-3.66D-01
     ILin= 4 X=6.000D-01 Y=-1.149618256968D+02 DE=-4.64D-01
     ILin= 5 X=8.485D-01 Y=-1.150465328190D+02 DE=-5.49D-01
     ILin= 6 X=1.200D+00 Y=-1.150563087825D+02 DE=-5.59D-01
     ILin= 7 X=1.697D+00 Y=-1.148478393260D+02 DE=-3.50D-01
     An  expanding polynomial of degree  7 produced  1.0509
 Iteration   2 EE= -115.067994916422     Delta-E=       -0.570543053513 Grad=1.808D-01
 Gradient too large for Newton-Raphson -- use scaled steepest descent instead.
     ILin= 1 X=0.000D+00 Y=-1.150679949164D+02 DE= 0.00D+00
     ILin= 2 X=1.051D+00 Y=-1.150820025525D+02 DE=-1.40D-02
     ILin= 3 X=1.486D+00 Y=-1.150736918569D+02 DE=-5.70D-03
     An  expanding polynomial of degree  3 produced  0.8310
 Iteration   3 EE= -115.083083031706     Delta-E=       -0.015088115284 Grad=6.948D-02
 Gradient too large for Newton-Raphson -- use scaled steepest descent instead.
     ILin= 1 X=0.000D+00 Y=-1.150830830317D+02 DE= 0.00D+00
     ILin= 2 X=8.310D-01 Y=-1.150860401214D+02 DE=-2.96D-03
     ILin= 3 X=1.175D+00 Y=-1.150860125085D+02 DE=-2.93D-03
     An  expanding polynomial of degree  3 produced  0.9901
 Iteration   4 EE= -115.086119282269     Delta-E=       -0.003036250563 Grad=3.709D-02
 Gradient too large for Newton-Raphson -- use scaled steepest descent instead.
     ILin= 1 X=0.000D+00 Y=-1.150861192823D+02 DE= 0.00D+00
     ILin= 2 X=9.901D-01 Y=-1.150868511420D+02 DE=-7.32D-04
     ILin= 3 X=1.400D+00 Y=-1.150865544005D+02 DE=-4.35D-04
     An  expanding polynomial of degree  3 produced  0.8489
 Iteration   5 EE= -115.086872124430     Delta-E=       -0.000752842161 Grad=1.750D-02
 Gradient too large for Newton-Raphson -- use scaled steepest descent instead.
     ILin= 1 X=0.000D+00 Y=-1.150868721244D+02 DE= 0.00D+00
     ILin= 2 X=8.489D-01 Y=-1.150870694870D+02 DE=-1.97D-04
     ILin= 3 X=1.200D+00 Y=-1.150870629465D+02 DE=-1.91D-04
     An  expanding polynomial of degree  3 produced  0.9802
 Iteration   6 EE= -115.087073110156     Delta-E=       -0.000200985726 Grad=9.953D-03
 QCNR:  CnvC1=3.91D-09 CnvC2=3.91D-08
 LinEq1:  Iter=  0 NonCon=     1 RMS=1.90D-04 Max=1.58D-03
 AX will form     1 AO Fock derivatives at one time.
 LinEq1:  Iter=  1 NonCon=     1 RMS=1.11D-04 Max=1.10D-03
 LinEq1:  Iter=  2 NonCon=     1 RMS=4.30D-06 Max=3.06D-05
 LinEq1:  Iter=  3 NonCon=     1 RMS=1.41D-06 Max=9.27D-06
 LinEq1:  Iter=  4 NonCon=     1 RMS=1.93D-07 Max=1.49D-06
 LinEq1:  Iter=  5 NonCon=     1 RMS=1.68D-08 Max=1.39D-07
 LinEq1:  Iter=  6 NonCon=     0 RMS=1.53D-09 Max=1.06D-08
 Linear equations converged to 3.912D-09 3.912D-08 after     6 iterations.
 Angle between quadratic step and gradient=  46.58 degrees.
     ILin= 1 X=0.000D+00 Y=-1.150870731102D+02 DE= 0.00D+00
     ILin= 2 X=1.000D+00 Y=-1.150871487366D+02 DE=-7.56D-05
     ILin= 3 X=1.414D+00 Y=-1.150871359768D+02 DE=-6.29D-05
     An  expanding polynomial of degree  3 produced  1.0024
 Iteration   7 EE= -115.087148736908     Delta-E=       -0.000075626751 Grad=2.234D-05
 QCNR:  CnvC1=2.23D-10 CnvC2=2.23D-09
 LinEq1:  Iter=  0 NonCon=     1 RMS=3.80D-07 Max=3.17D-06
 LinEq1:  Iter=  1 NonCon=     1 RMS=7.59D-08 Max=6.06D-07
 LinEq1:  Iter=  2 NonCon=     1 RMS=2.50D-08 Max=2.36D-07
 LinEq1:  Iter=  3 NonCon=     1 RMS=4.49D-09 Max=3.26D-08
 LinEq1:  Iter=  4 NonCon=     1 RMS=8.96D-10 Max=4.82D-09
 LinEq1:  Iter=  5 NonCon=     1 RMS=2.24D-10 Max=1.93D-09
 LinEq1:  Iter=  6 NonCon=     0 RMS=5.33D-11 Max=2.93D-10
 Linear equations converged to 2.234D-10 2.234D-09 after     6 iterations.
 Angle between quadratic step and gradient=  42.97 degrees.
     ILin= 1 X=0.000D+00 Y=-1.150871487369D+02 DE= 0.00D+00
     ILin= 2 X=1.000D+00 Y=-1.150871487372D+02 DE=-3.32D-10
 Iteration   8 EE= -115.087148737239     Delta-E=       -0.000000000332 Grad=8.461D-09
 Error on total polarization charges =  0.00638
 Rotation gradient small -- convergence achieved.
 SCF Done:  E(RHF) =  -115.087148737     a.u. after    8 cycles
            Convg  =    0.8461D-08                    36 Fock formations.
              S**2 =  0.0000                  -V/T =  2.0016
 Leave Link  508 at Sun Dec 29 12:30:08 2019, MaxMem=   91750400 cpu:      10.9
 (Enter /opt/g09gh/gaussian/g09/l801.exe)
 ExpMin= 3.60D-02 ExpMax= 8.59D+03 ExpMxC= 1.30D+03 IAcc=3 IRadAn=         5 AccDes= 0.00D+00
 HarFok:  IExCor=  205 AccDes= 0.00D+00 IRadAn=         5 IDoV=-2
 ScaDFX=  1.000000  1.000000  1.000000  1.000000
 Largest valence mixing into a core orbital is  1.37D-04
 Largest core mixing into a valence orbital is  3.63D-05
 Range of M.O.s used for correlation:     3    94
 NBasis=    94 NAE=     9 NBE=     9 NFC=     2 NFV=     0
 NROrb=     92 NOA=     7 NOB=     7 NVA=    85 NVB=    85

 **** Warning!!: The largest alpha MO coefficient is  0.15659758D+02

 Leave Link  801 at Sun Dec 29 12:30:08 2019, MaxMem=   91750400 cpu:       0.4
 (Enter /opt/g09gh/gaussian/g09/l906.exe)
 FulOut=F Deriv=F AODrv=F NAtomX=     6
   MMem=        1402  MDisk=           7 MDiskD=           7
  W3Min=       58310 MinDsk=      182258 NBas6D=          98
 NBas2D=        4983    NTT=        4851    LW2=     2000000
    MDV=    91690351 MDiskM=       12711 NBas2p=        4983
 Fully in-core method, ICMem=    31042459.
 IMap=   1   2   3   4   5   6   7
 JobTyp=1 Pass  1 fully in-core, NPsUse=  1.
 Compute canonical integrals, IntTyp=   4.
 Symmetry not used in FoFDir.
 MinBra= 0 MaxBra= 2 Meth= 1.
 IRaf=       0 NMat=   1 IRICut=       1 DoRegI=T DoRafI=F ISym2E= 0 JSym2E=0.
 Spin components of T(2) and E(2):
     alpha-alpha T2 =       0.1322279974D-01 E2=     -0.4652982298D-01
     alpha-beta  T2 =       0.8256325661D-01 E2=     -0.2992582087D+00
     beta-beta   T2 =       0.1322279974D-01 E2=     -0.4652982298D-01
 The integrals were generated   1 times.
 ANorm=    0.1053094894D+01
 E2 =    -0.3923178547D+00 EUMP2 =    -0.11547946659191D+03
 Leave Link  906 at Sun Dec 29 12:30:10 2019, MaxMem=   91750400 cpu:       1.5
 (Enter /opt/g09gh/gaussian/g09/l601.exe)
 Copying SCF densities to generalized density rwf, IOpCl= 0 IROHF=0.

 **********************************************************************

            Population analysis using the SCF density.

 **********************************************************************

 Orbital symmetries:
       Occupied  (A) (A) (A) (A) (A) (A) (A) (A) (A)
       Virtual   (A) (A) (A) (A) (A) (A) (A) (A) (A) (A) (A) (A)
                 (A) (A) (A) (A) (A) (A) (A) (A) (A) (A) (A) (A)
                 (A) (A) (A) (A) (A) (A) (A) (A) (A) (A) (A) (A)
                 (A) (A) (A) (A) (A) (A) (A) (A) (A) (A) (A) (A)
                 (A) (A) (A) (A) (A) (A) (A) (A) (A) (A) (A) (A)
                 (A) (A) (A) (A) (A) (A) (A) (A) (A) (A) (A) (A)
                 (A) (A) (A) (A) (A) (A) (A) (A) (A) (A) (A) (A)
                 (A)
 The electronic state is 1-A.
 Alpha  occ. eigenvalues --  -20.56139 -11.27056  -1.35445  -0.92084  -0.68800
 Alpha  occ. eigenvalues --   -0.62198  -0.59214  -0.50509  -0.45392
 Alpha virt. eigenvalues --    0.04439   0.06841   0.07687   0.08031   0.12685
 Alpha virt. eigenvalues --    0.15446   0.15649   0.18630   0.25021   0.27239
 Alpha virt. eigenvalues --    0.28602   0.30358   0.30878   0.33300   0.34603
 Alpha virt. eigenvalues --    0.38926   0.46427   0.56387   0.56841   0.66779
 Alpha virt. eigenvalues --    0.71086   0.72561   0.74989   0.76650   0.78233
 Alpha virt. eigenvalues --    0.78891   0.89584   0.98275   1.04888   1.10659
 Alpha virt. eigenvalues --    1.14587   1.21521   1.21815   1.25264   1.29753
 Alpha virt. eigenvalues --    1.30826   1.33936   1.39420   1.49822   1.53400
 Alpha virt. eigenvalues --    1.54446   1.65509   1.66832   1.68207   1.76658
 Alpha virt. eigenvalues --    1.82403   2.11710   2.24989   2.29090   2.52533
 Alpha virt. eigenvalues --    2.54813   2.88548   2.91470   3.09114   3.19629
 Alpha virt. eigenvalues --    3.49491   3.50863   3.65415   3.67233   3.79488
 Alpha virt. eigenvalues --    3.94044   3.97741   4.01120   4.12930   4.15221
 Alpha virt. eigenvalues --    4.19938   4.31743   4.40840   4.45111   4.45751
 Alpha virt. eigenvalues --    4.47767   4.58536   4.76961   5.43837   5.45004
 Alpha virt. eigenvalues --    5.59745   5.97167   6.45922   7.46460   7.56109
 Alpha virt. eigenvalues --    7.64077   7.71283   8.00553  25.11671  51.63821
          Condensed to atoms (all electrons):
              1          2          3          4          5          6
     1  O    8.280485   0.155547  -0.056633  -0.056100  -0.029803   0.274467
     2  C    0.155547   4.412369   0.436820   0.439811   0.434255  -0.022462
     3  H   -0.056633   0.436820   0.646297  -0.045306  -0.031076   0.003458
     4  H   -0.056100   0.439811  -0.045306   0.637640  -0.029999   0.006042
     5  H   -0.029803   0.434255  -0.031076  -0.029999   0.630476  -0.016551
     6  H    0.274467  -0.022462   0.003458   0.006042  -0.016551   0.467794
 Mulliken atomic charges:
              1
     1  O   -0.567964
     2  C    0.143661
     3  H    0.046441
     4  H    0.047912
     5  H    0.042698
     6  H    0.287252
 Sum of Mulliken atomic charges =   0.00000
 Mulliken charges with hydrogens summed into heavy atoms:
              1
     1  O   -0.280712
     2  C    0.280712
 Sum of Mulliken charges with hydrogens summed into heavy atoms =   0.00000
 Electronic spatial extent (au):  <R**2>=             84.5899
 Charge=              0.0000 electrons
 Dipole moment (field-independent basis, Debye):
    X=             -1.2563    Y=              1.9779    Z=             -0.0659  Tot=              2.3441
 Quadrupole moment (field-independent basis, Debye-Ang):
   XX=            -13.1707   YY=            -11.9551   ZZ=            -13.6596
   XY=              2.4262   XZ=              0.0097   YZ=             -0.0089
 Traceless Quadrupole moment (field-independent basis, Debye-Ang):
   XX=             -0.2422   YY=              0.9734   ZZ=             -0.7311
   XY=              2.4262   XZ=              0.0097   YZ=             -0.0089
 Octapole moment (field-independent basis, Debye-Ang**2):
  XXX=              3.3857  YYY=              2.4177  ZZZ=              0.4692  XYY=              1.7428
  XXY=              2.9011  XXZ=             -0.1588  XZZ=             -0.2258  YZZ=             -0.0606
  YYZ=             -0.5762  XYZ=             -0.1349
 Hexadecapole moment (field-independent basis, Debye-Ang**3):
 XXXX=            -62.4828 YYYY=            -19.4068 ZZZZ=            -19.5393 XXXY=              4.2816
 XXXZ=              0.0852 YYYX=              2.1174 YYYZ=             -0.1462 ZZZX=             -0.5142
 ZZZY=              0.0838 XXYY=            -12.6140 XXZZ=            -14.2432 YYZZ=             -6.7731
 XXYZ=              0.1222 YYXZ=              0.5819 ZZXY=              0.9519
 N-N= 4.007231003864D+01 E-N=-3.513483794284D+02  KE= 1.149041407886D+02
 Leave Link  601 at Sun Dec 29 12:30:10 2019, MaxMem=   91750400 cpu:       0.1
 (Enter /opt/g09gh/gaussian/g09/l9999.exe)
 1\1\GINC-NODE36\SP\RMP2-FC\6-311++G(2d,2p)\C1H4O1\BDW2292\29-Dec-2019\
 0\\#P MP2/6-311++G(2d,2p) SP SCF=(qc,maxcycle=800) Guess=Indo MaxDisk=
 100GB SCRF=(PCM)\\methanol Rotatable Bond SP Calculation on node36.bme
 .utexas.edu\\0,1\O,0,0.741712,0.051014,-0.239123\C,0,-0.680219,-0.0153
 36,-0.054433\H,0,-1.121843,-0.480344,-0.940761\H,0,-1.054883,0.999827,
 0.106217\H,0,-0.885059,-0.630101,0.827925\H,0,1.125249,-0.66338,0.3004
 11\\Version=EM64L-G09RevA.02\State=1-A\HF=-115.0871487\MP2=-115.479466
 6\RMSD=0.000e+00\PG=C01 [X(C1H4O1)]\\@


 IBM COMPATIBILITY IS LIKE PREGNANCY. YOU ARE OR
 OR YOU ARE NOT. -- ADAM OSBORNE
 Job cpu time:  0 days  0 hours  0 minutes 13.5 seconds.
 File lengths (MBytes):  RWF=     12 Int=      0 D2E=      0 Chk=      2 Scr=      1
 Normal termination of Gaussian 09 at Sun Dec 29 12:30:10 2019.
