 Entering Gaussian System, Link 0=g09
 Input=methanol-opt-6-1-2-3-341.com
 Output=methanol-opt-6-1-2-3-341.log
 Initial command:
 /opt/g09gh/gaussian/g09/l1.exe /scratch/bdw2292/Gau-methanol/Gau-40301.inp -scrdir=/scratch/bdw2292/Gau-methanol/
 Entering Link 1 = /opt/g09gh/gaussian/g09/l1.exe PID=     40302.
  
 Copyright (c) 1988,1990,1992,1993,1995,1998,2003,2009, Gaussian, Inc.
                  All Rights Reserved.
  
 This is part of the Gaussian(R) 09 program.  It is based on
 the Gaussian(R) 03 system (copyright 2003, Gaussian, Inc.),
 the Gaussian(R) 98 system (copyright 1998, Gaussian, Inc.),
 the Gaussian(R) 94 system (copyright 1995, Gaussian, Inc.),
 the Gaussian 92(TM) system (copyright 1992, Gaussian, Inc.),
 the Gaussian 90(TM) system (copyright 1990, Gaussian, Inc.),
 the Gaussian 88(TM) system (copyright 1988, Gaussian, Inc.),
 the Gaussian 86(TM) system (copyright 1986, Carnegie Mellon
 University), and the Gaussian 82(TM) system (copyright 1983,
 Carnegie Mellon University). Gaussian is a federally registered
 trademark of Gaussian, Inc.
  
 This software contains proprietary and confidential information,
 including trade secrets, belonging to Gaussian, Inc.
  
 This software is provided under written license and may be
 used, copied, transmitted, or stored only in accord with that
 written license.
  
 The following legend is applicable only to US Government
 contracts under FAR:
  
                    RESTRICTED RIGHTS LEGEND
  
 Use, reproduction and disclosure by the US Government is
 subject to restrictions as set forth in subparagraphs (a)
 and (c) of the Commercial Computer Software - Restricted
 Rights clause in FAR 52.227-19.
  
 Gaussian, Inc.
 340 Quinnipiac St., Bldg. 40, Wallingford CT 06492
  
  
 ---------------------------------------------------------------
 Warning -- This program may not be used in any manner that
 competes with the business of Gaussian, Inc. or will provide
 assistance to any competitor of Gaussian, Inc.  The licensee
 of this program is prohibited from giving any competitor of
 Gaussian, Inc. access to this program.  By using this program,
 the user acknowledges that Gaussian, Inc. is engaged in the
 business of creating and licensing software in the field of
 computational chemistry and represents and warrants to the
 licensee that it is not a competitor of Gaussian, Inc. and that
 it will not use this program in any manner prohibited above.
 ---------------------------------------------------------------
  

 Cite this work as:
 Gaussian 09, Revision A.02,
 M. J. Frisch, G. W. Trucks, H. B. Schlegel, G. E. Scuseria, 
 M. A. Robb, J. R. Cheeseman, G. Scalmani, V. Barone, B. Mennucci, 
 G. A. Petersson, H. Nakatsuji, M. Caricato, X. Li, H. P. Hratchian, 
 A. F. Izmaylov, J. Bloino, G. Zheng, J. L. Sonnenberg, M. Hada, 
 M. Ehara, K. Toyota, R. Fukuda, J. Hasegawa, M. Ishida, T. Nakajima, 
 Y. Honda, O. Kitao, H. Nakai, T. Vreven, J. A. Montgomery, Jr., 
 J. E. Peralta, F. Ogliaro, M. Bearpark, J. J. Heyd, E. Brothers, 
 K. N. Kudin, V. N. Staroverov, R. Kobayashi, J. Normand, 
 K. Raghavachari, A. Rendell, J. C. Burant, S. S. Iyengar, J. Tomasi, 
 M. Cossi, N. Rega, J. M. Millam, M. Klene, J. E. Knox, J. B. Cross, 
 V. Bakken, C. Adamo, J. Jaramillo, R. Gomperts, R. E. Stratmann, 
 O. Yazyev, A. J. Austin, R. Cammi, C. Pomelli, J. W. Ochterski, 
 R. L. Martin, K. Morokuma, V. G. Zakrzewski, G. A. Voth, 
 P. Salvador, J. J. Dannenberg, S. Dapprich, A. D. Daniels, 
 O. Farkas, J. B. Foresman, J. V. Ortiz, J. Cioslowski, 
 and D. J. Fox, Gaussian, Inc., Wallingford CT, 2009.
 
 ******************************************
 Gaussian 09:  EM64L-G09RevA.02 11-Jun-2009
                29-Dec-2019 
 ******************************************
 %RWF=/scratch/bdw2292/Gau-methanol/,100GB
 %Nosave
 %Chk=methanol-opt-6-1-2-3-341.chk
 %Mem=700MB
 %Nproc=1
 Will use up to    1 processors via shared memory.
 -----------------------------------------------
 #P opt=(,maxcycle=400) HF/6-311G* MaxDisk=100GB
 -----------------------------------------------
 1/6=400,18=20,19=15,38=1/1,3;
 2/9=110,12=2,17=6,18=5,40=1/2;
 3/5=4,6=6,7=1,11=9,16=1,25=1,30=1,71=1/1,2,3;
 4//1;
 5/5=2,38=5/2;
 6/7=2,8=2,9=2,10=2,28=1/1;
 7//1,2,3,16;
 1/6=400,18=20,19=15/3(2);
 2/9=110/2;
 99//99;
 2/9=110/2;
 3/5=4,6=6,7=1,11=9,16=1,25=1,30=1,71=1/1,2,3;
 4/5=5,16=3/1;
 5/5=2,38=5/2;
 7//1,2,3,16;
 1/6=400,18=20,19=15/3(-5);
 2/9=110/2;
 6/7=2,8=2,9=2,10=2,19=2,28=1/1;
 99/9=1/99;
 Leave Link    1 at Sun Dec 29 12:25:57 2019, MaxMem=   91750400 cpu:       0.0
 (Enter /opt/g09gh/gaussian/g09/l101.exe)
 -------------------------------------------------------------
 methanol Rotatable Bond Optimization on node36.bme.utexas.edu
 -------------------------------------------------------------
 Symbolic Z-matrix:
 Charge =  0 Multiplicity = 1
 O                     0.74418   0.11708  -0.00686 
 C                    -0.68525  -0.01136   0.00564 
 H                    -0.95474  -1.01768  -0.32893 
 H                    -1.10669   0.75933  -0.64639 
 H                    -1.02477   0.14092   1.035 
 H                     1.10317  -0.7883   -0.00848 
 
 NAtoms=      6 NQM=      6 NQMF=      0 NMic=      0 NMicF=      0 NTot=      6.
                    Isotopes and Nuclear Properties:
 (Nuclear quadrupole moments (NQMom) in fm**2, nuclear magnetic moments (NMagM)
  in nuclear magnetons)

  Atom         1           2           3           4           5           6
 IAtWgt=          16          12           1           1           1           1
 AtmWgt=  15.9949146  12.0000000   1.0078250   1.0078250   1.0078250   1.0078250
 NucSpn=           0           0           1           1           1           1
 AtZEff=   0.0000000   0.0000000   0.0000000   0.0000000   0.0000000   0.0000000
 NQMom=    0.0000000   0.0000000   0.0000000   0.0000000   0.0000000   0.0000000
 NMagM=    0.0000000   0.0000000   2.7928460   2.7928460   2.7928460   2.7928460
 Leave Link  101 at Sun Dec 29 12:25:57 2019, MaxMem=   91750400 cpu:       0.1
 (Enter /opt/g09gh/gaussian/g09/l103.exe)

 GradGradGradGradGradGradGradGradGradGradGradGradGradGradGradGradGradGrad
 Berny optimization.
 Initialization pass.
                           ----------------------------
                           !    Initial Parameters    !
                           ! (Angstroms and Degrees)  !
 --------------------------                            --------------------------
 ! Name  Definition              Value          Derivative Info.                !
 --------------------------------------------------------------------------------
 ! R1    R(1,2)                  1.4352         estimate D2E/DX2                !
 ! R2    R(1,6)                  0.974          estimate D2E/DX2                !
 ! R3    R(2,3)                  1.0942         estimate D2E/DX2                !
 ! R4    R(2,4)                  1.0939         estimate D2E/DX2                !
 ! R5    R(2,5)                  1.0946         estimate D2E/DX2                !
 ! A1    A(2,1,6)              106.4948         estimate D2E/DX2                !
 ! A2    A(1,2,3)              108.9614         estimate D2E/DX2                !
 ! A3    A(1,2,4)              108.3879         estimate D2E/DX2                !
 ! A4    A(1,2,5)              107.7386         estimate D2E/DX2                !
 ! A5    A(3,2,4)              111.7649         estimate D2E/DX2                !
 ! A6    A(3,2,5)              109.8231         estimate D2E/DX2                !
 ! A7    A(4,2,5)              110.0611         estimate D2E/DX2                !
 ! D1    D(6,1,2,3)            -19.094          estimate D2E/DX2                !
 ! D2    D(6,1,2,4)           -140.9227         estimate D2E/DX2                !
 ! D3    D(6,1,2,5)            100.0087         estimate D2E/DX2                !
 --------------------------------------------------------------------------------
 Trust Radius=3.00D-01 FncErr=1.00D-07 GrdErr=1.00D-07
 Number of steps in this run= 100 maximum allowed number of steps= 100.
 GradGradGradGradGradGradGradGradGradGradGradGradGradGradGradGradGradGrad

 Leave Link  103 at Sun Dec 29 12:25:57 2019, MaxMem=   91750400 cpu:       0.0
 (Enter /opt/g09gh/gaussian/g09/l202.exe)
                          Input orientation:                          
 ---------------------------------------------------------------------
 Center     Atomic      Atomic             Coordinates (Angstroms)
 Number     Number       Type             X           Y           Z
 ---------------------------------------------------------------------
      1          8           0        0.744180    0.117079   -0.006860
      2          6           0       -0.685251   -0.011360    0.005643
      3          1           0       -0.954738   -1.017685   -0.328927
      4          1           0       -1.106689    0.759326   -0.646386
      5          1           0       -1.024769    0.140922    1.035004
      6          1           0        1.103174   -0.788298   -0.008478
 ---------------------------------------------------------------------
                    Distance matrix (angstroms):
                    1          2          3          4          5
     1  O    0.000000
     2  C    1.435244   0.000000
     3  H    2.068270   1.094189   0.000000
     4  H    2.060871   1.093942   1.811529   0.000000
     5  H    2.053102   1.094553   1.790972   1.793379   0.000000
     6  H    0.973954   1.949948   2.095306   2.772284   2.545672
                    6
     6  H    0.000000
 Stoichiometry    CH4O
 Framework group  C1[X(CH4O)]
 Deg. of freedom    12
 Full point group                 C1      NOp   1
 Largest Abelian subgroup         C1      NOp   1
 Largest concise Abelian subgroup C1      NOp   1
                         Standard orientation:                         
 ---------------------------------------------------------------------
 Center     Atomic      Atomic             Coordinates (Angstroms)
 Number     Number       Type             X           Y           Z
 ---------------------------------------------------------------------
      1          8           0       -0.750197   -0.130401    0.001258
      2          6           0        0.677202    0.019390   -0.003355
      3          1           0        0.928098    1.024299   -0.356142
      4          1           0        1.103359   -0.754965   -0.647927
      5          1           0        1.029616   -0.111891    1.024563
      6          1           0       -1.122714    0.769422   -0.010428
 ---------------------------------------------------------------------
 Rotational constants (GHZ):    124.4369970     24.6863713     23.7099118
 Leave Link  202 at Sun Dec 29 12:25:57 2019, MaxMem=   91750400 cpu:       0.0
 (Enter /opt/g09gh/gaussian/g09/l301.exe)
 Standard basis: 6-311G(d) (5D, 7F)
 Ernie: Thresh=  0.10000D-02 Tol=  0.10000D-05 Strict=F.
 There are    48 symmetry adapted basis functions of A   symmetry.
 Integral buffers will be    131072 words long.
 Raffenetti 1 integral format.
 Two-electron integral symmetry is turned on.
    48 basis functions,    84 primitive gaussians,    50 cartesian basis functions
     9 alpha electrons        9 beta electrons
       nuclear repulsion energy        40.0744966572 Hartrees.
 IExCor=    0 DFT=F Ex=HF Corr=None ExCW=0 ScaHFX=  1.000000
 ScaDFX=  1.000000  1.000000  1.000000  1.000000 ScalE2=  1.000000  1.000000
 IRadAn=      0 IRanWt=     -1 IRanGd=            0 ICorTp=0
 NAtoms=    6 NActive=    6 NUniq=    6 SFac= 7.50D-01 NAtFMM=   80 NAOKFM=F Big=F
 Leave Link  301 at Sun Dec 29 12:25:57 2019, MaxMem=   91750400 cpu:       0.1
 (Enter /opt/g09gh/gaussian/g09/l302.exe)
 NPDir=0 NMtPBC=     1 NCelOv=     1 NCel=       1 NClECP=     1 NCelD=      1
         NCelK=      1 NCelE2=     1 NClLst=     1 CellRange=     0.0.
 One-electron integrals computed using PRISM.
 NBasis=    48 RedAO= T  NBF=    48
 NBsUse=    48 1.00D-06 NBFU=    48
 Leave Link  302 at Sun Dec 29 12:25:57 2019, MaxMem=   91750400 cpu:       0.1
 (Enter /opt/g09gh/gaussian/g09/l303.exe)
 DipDrv:  MaxL=1.
 Leave Link  303 at Sun Dec 29 12:25:57 2019, MaxMem=   91750400 cpu:       0.0
 (Enter /opt/g09gh/gaussian/g09/l401.exe)
 Harris functional with IExCor=  205 diagonalized for initial guess.
 ExpMin= 1.03D-01 ExpMax= 8.59D+03 ExpMxC= 1.30D+03 IAcc=1 IRadAn=         1 AccDes= 0.00D+00
 HarFok:  IExCor=  205 AccDes= 0.00D+00 IRadAn=         1 IDoV= 1
 ScaDFX=  1.000000  1.000000  1.000000  1.000000
 FoFCou: FMM=F IPFlag=           0 FMFlag=      100000 FMFlg1=           0
         NFxFlg=           0 DoJE=T BraDBF=F KetDBF=T FulRan=T
         Omega=  0.000000  0.000000  1.000000  0.000000  0.000000 ICntrl=     500 IOpCl=  0
         NMat0=    1 NMatS0=    1 NMatT0=    0 NMatD0=    1 NMtDS0=    0 NMtDT0=    0
         I1Cent=           4 NGrid=           0.
 Petite list used in FoFCou.
 Harris En= -115.242116084691    
 Initial guess orbital symmetries:
       Occupied  (A) (A) (A) (A) (A) (A) (A) (A) (A)
       Virtual   (A) (A) (A) (A) (A) (A) (A) (A) (A) (A) (A) (A)
                 (A) (A) (A) (A) (A) (A) (A) (A) (A) (A) (A) (A)
                 (A) (A) (A) (A) (A) (A) (A) (A) (A) (A) (A) (A)
                 (A) (A) (A)
 The electronic state of the initial guess is 1-A.
 Leave Link  401 at Sun Dec 29 12:25:57 2019, MaxMem=   91750400 cpu:       0.2
 (Enter /opt/g09gh/gaussian/g09/l502.exe)
 Closed shell SCF:
 Requested convergence on RMS density matrix=1.00D-08 within 128 cycles.
 Requested convergence on MAX density matrix=1.00D-06.
 Requested convergence on             energy=1.00D-06.
 No special actions if energy rises.
 Using DIIS extrapolation, IDIIS=  1040.
 Integral symmetry usage will be decided dynamically.
 Keep R1 ints in memory in canonical form, NReq=1659792.
 IEnd=       26328 IEndB=       26328 NGot=    91750400 MDV=    90929785
 LenX=    90929785 LenY=    90926844
 Symmetry not used in FoFDir.
 MinBra= 0 MaxBra= 2 Meth= 1.
 IRaf=       0 NMat=   1 IRICut=       1 DoRegI=T DoRafI=F ISym2E= 0 JSym2E=0.

 Cycle   1  Pass 1  IDiag  1:
 E= -114.937378320872    
 DIIS: error= 5.87D-02 at cycle   1 NSaved=   1.
 NSaved= 1 IEnMin= 1 EnMin= -114.937378320872     IErMin= 1 ErrMin= 5.87D-02
 ErrMax= 5.87D-02 EMaxC= 1.00D-01 BMatC= 2.53D-01 BMatP= 2.53D-01
 IDIUse=3 WtCom= 4.13D-01 WtEn= 5.87D-01
 Coeff-Com:  0.100D+01
 Coeff-En:   0.100D+01
 Coeff:      0.100D+01
 Gap=     0.566 Goal=   None    Shift=    0.000
 GapD=    0.566 DampG=2.000 DampE=0.500 DampFc=1.0000 IDamp=-1.
 RMSDP=5.98D-03 MaxDP=8.20D-02              OVMax= 1.06D-01

 Cycle   2  Pass 1  IDiag  1:
 E= -115.034255600740     Delta-E=       -0.096877279868 Rises=F Damp=F
 DIIS: error= 2.70D-02 at cycle   2 NSaved=   2.
 NSaved= 2 IEnMin= 2 EnMin= -115.034255600740     IErMin= 2 ErrMin= 2.70D-02
 ErrMax= 2.70D-02 EMaxC= 1.00D-01 BMatC= 3.52D-02 BMatP= 2.53D-01
 IDIUse=3 WtCom= 7.30D-01 WtEn= 2.70D-01
 Coeff-Com:  0.218D+00 0.782D+00
 Coeff-En:   0.000D+00 0.100D+01
 Coeff:      0.159D+00 0.841D+00
 Gap=     0.627 Goal=   None    Shift=    0.000
 RMSDP=2.90D-03 MaxDP=4.57D-02 DE=-9.69D-02 OVMax= 4.10D-02

 Cycle   3  Pass 1  IDiag  1:
 E= -115.056067617458     Delta-E=       -0.021812016718 Rises=F Damp=F
 DIIS: error= 8.46D-03 at cycle   3 NSaved=   3.
 NSaved= 3 IEnMin= 3 EnMin= -115.056067617458     IErMin= 3 ErrMin= 8.46D-03
 ErrMax= 8.46D-03 EMaxC= 1.00D-01 BMatC= 3.81D-03 BMatP= 3.52D-02
 IDIUse=3 WtCom= 9.15D-01 WtEn= 8.46D-02
 Coeff-Com: -0.140D-01 0.224D+00 0.790D+00
 Coeff-En:   0.000D+00 0.000D+00 0.100D+01
 Coeff:     -0.128D-01 0.205D+00 0.808D+00
 Gap=     0.591 Goal=   None    Shift=    0.000
 RMSDP=6.62D-04 MaxDP=1.06D-02 DE=-2.18D-02 OVMax= 1.27D-02

 Cycle   4  Pass 1  IDiag  1:
 E= -115.058486883823     Delta-E=       -0.002419266366 Rises=F Damp=F
 DIIS: error= 1.38D-03 at cycle   4 NSaved=   4.
 NSaved= 4 IEnMin= 4 EnMin= -115.058486883823     IErMin= 4 ErrMin= 1.38D-03
 ErrMax= 1.38D-03 EMaxC= 1.00D-01 BMatC= 9.77D-05 BMatP= 3.81D-03
 IDIUse=3 WtCom= 9.86D-01 WtEn= 1.38D-02
 Coeff-Com: -0.674D-02 0.292D-01 0.200D+00 0.778D+00
 Coeff-En:   0.000D+00 0.000D+00 0.000D+00 0.100D+01
 Coeff:     -0.665D-02 0.288D-01 0.197D+00 0.781D+00
 Gap=     0.591 Goal=   None    Shift=    0.000
 RMSDP=1.32D-04 MaxDP=2.05D-03 DE=-2.42D-03 OVMax= 2.51D-03

 Cycle   5  Pass 1  IDiag  1:
 E= -115.058565783177     Delta-E=       -0.000078899354 Rises=F Damp=F
 DIIS: error= 3.69D-04 at cycle   5 NSaved=   5.
 NSaved= 5 IEnMin= 5 EnMin= -115.058565783177     IErMin= 5 ErrMin= 3.69D-04
 ErrMax= 3.69D-04 EMaxC= 1.00D-01 BMatC= 4.25D-06 BMatP= 9.77D-05
 IDIUse=3 WtCom= 9.96D-01 WtEn= 3.69D-03
 Coeff-Com:  0.120D-02-0.204D-01-0.724D-01-0.135D-01 0.111D+01
 Coeff-En:   0.000D+00 0.000D+00 0.000D+00 0.000D+00 0.100D+01
 Coeff:      0.120D-02-0.203D-01-0.722D-01-0.134D-01 0.110D+01
 Gap=     0.592 Goal=   None    Shift=    0.000
 RMSDP=5.44D-05 MaxDP=7.70D-04 DE=-7.89D-05 OVMax= 8.64D-04

 Cycle   6  Pass 1  IDiag  1:
 E= -115.058572374126     Delta-E=       -0.000006590948 Rises=F Damp=F
 DIIS: error= 4.98D-05 at cycle   6 NSaved=   6.
 NSaved= 6 IEnMin= 6 EnMin= -115.058572374126     IErMin= 6 ErrMin= 4.98D-05
 ErrMax= 4.98D-05 EMaxC= 1.00D-01 BMatC= 1.27D-07 BMatP= 4.25D-06
 IDIUse=1 WtCom= 1.00D+00 WtEn= 0.00D+00
 Coeff-Com:  0.243D-03-0.706D-03-0.414D-02-0.328D-01-0.896D-01 0.113D+01
 Coeff:      0.243D-03-0.706D-03-0.414D-02-0.328D-01-0.896D-01 0.113D+01
 Gap=     0.592 Goal=   None    Shift=    0.000
 RMSDP=1.24D-05 MaxDP=1.12D-04 DE=-6.59D-06 OVMax= 2.20D-04

 Cycle   7  Pass 1  IDiag  1:
 E= -115.058572660344     Delta-E=       -0.000000286219 Rises=F Damp=F
 DIIS: error= 1.08D-05 at cycle   7 NSaved=   7.
 NSaved= 7 IEnMin= 7 EnMin= -115.058572660344     IErMin= 7 ErrMin= 1.08D-05
 ErrMax= 1.08D-05 EMaxC= 1.00D-01 BMatC= 5.52D-09 BMatP= 1.27D-07
 IDIUse=1 WtCom= 1.00D+00 WtEn= 0.00D+00
 Coeff-Com: -0.105D-03 0.921D-03 0.396D-02 0.792D-02-0.155D-01-0.303D+00
 Coeff-Com:  0.131D+01
 Coeff:     -0.105D-03 0.921D-03 0.396D-02 0.792D-02-0.155D-01-0.303D+00
 Coeff:      0.131D+01
 Gap=     0.592 Goal=   None    Shift=    0.000
 RMSDP=2.92D-06 MaxDP=3.60D-05 DE=-2.86D-07 OVMax= 7.42D-05

 Cycle   8  Pass 1  IDiag  1:
 E= -115.058572675226     Delta-E=       -0.000000014882 Rises=F Damp=F
 DIIS: error= 1.97D-06 at cycle   8 NSaved=   8.
 NSaved= 8 IEnMin= 8 EnMin= -115.058572675226     IErMin= 8 ErrMin= 1.97D-06
 ErrMax= 1.97D-06 EMaxC= 1.00D-01 BMatC= 2.15D-10 BMatP= 5.52D-09
 IDIUse=1 WtCom= 1.00D+00 WtEn= 0.00D+00
 Coeff-Com:  0.175D-04-0.208D-03-0.934D-03-0.132D-02 0.631D-02 0.602D-01
 Coeff-Com: -0.422D+00 0.136D+01
 Coeff:      0.175D-04-0.208D-03-0.934D-03-0.132D-02 0.631D-02 0.602D-01
 Coeff:     -0.422D+00 0.136D+01
 Gap=     0.592 Goal=   None    Shift=    0.000
 RMSDP=7.19D-07 MaxDP=6.21D-06 DE=-1.49D-08 OVMax= 1.84D-05

 Cycle   9  Pass 1  IDiag  1:
 E= -115.058572675883     Delta-E=       -0.000000000657 Rises=F Damp=F
 DIIS: error= 5.00D-07 at cycle   9 NSaved=   9.
 NSaved= 9 IEnMin= 9 EnMin= -115.058572675883     IErMin= 9 ErrMin= 5.00D-07
 ErrMax= 5.00D-07 EMaxC= 1.00D-01 BMatC= 6.85D-12 BMatP= 2.15D-10
 IDIUse=1 WtCom= 1.00D+00 WtEn= 0.00D+00
 Coeff-Com: -0.200D-05 0.356D-04 0.176D-03 0.768D-04-0.193D-02-0.516D-02
 Coeff-Com:  0.777D-01-0.394D+00 0.132D+01
 Coeff:     -0.200D-05 0.356D-04 0.176D-03 0.768D-04-0.193D-02-0.516D-02
 Coeff:      0.777D-01-0.394D+00 0.132D+01
 Gap=     0.592 Goal=   None    Shift=    0.000
 RMSDP=1.08D-07 MaxDP=7.14D-07 DE=-6.57D-10 OVMax= 2.76D-06

 Cycle  10  Pass 1  IDiag  1:
 E= -115.058572675902     Delta-E=       -0.000000000019 Rises=F Damp=F
 DIIS: error= 9.30D-08 at cycle  10 NSaved=  10.
 NSaved=10 IEnMin=10 EnMin= -115.058572675902     IErMin=10 ErrMin= 9.30D-08
 ErrMax= 9.30D-08 EMaxC= 1.00D-01 BMatC= 2.51D-13 BMatP= 6.85D-12
 IDIUse=1 WtCom= 1.00D+00 WtEn= 0.00D+00
 Coeff-Com:  0.118D-07-0.327D-05-0.210D-04 0.236D-04 0.309D-03-0.138D-03
 Coeff-Com: -0.924D-02 0.656D-01-0.360D+00 0.130D+01
 Coeff:      0.118D-07-0.327D-05-0.210D-04 0.236D-04 0.309D-03-0.138D-03
 Coeff:     -0.924D-02 0.656D-01-0.360D+00 0.130D+01
 Gap=     0.592 Goal=   None    Shift=    0.000
 RMSDP=1.89D-08 MaxDP=1.78D-07 DE=-1.88D-11 OVMax= 3.79D-07

 Cycle  11  Pass 1  IDiag  1:
 E= -115.058572675902     Delta-E=       -0.000000000001 Rises=F Damp=F
 DIIS: error= 1.78D-08 at cycle  11 NSaved=  11.
 NSaved=11 IEnMin=11 EnMin= -115.058572675902     IErMin=11 ErrMin= 1.78D-08
 ErrMax= 1.78D-08 EMaxC= 1.00D-01 BMatC= 1.15D-14 BMatP= 2.51D-13
 IDIUse=1 WtCom= 1.00D+00 WtEn= 0.00D+00
 Coeff-Com:  0.938D-07-0.154D-05-0.661D-05-0.698D-05 0.618D-04 0.295D-03
 Coeff-Com: -0.309D-02 0.145D-01-0.302D-01-0.176D+00 0.119D+01
 Coeff:      0.938D-07-0.154D-05-0.661D-05-0.698D-05 0.618D-04 0.295D-03
 Coeff:     -0.309D-02 0.145D-01-0.302D-01-0.176D+00 0.119D+01
 Gap=     0.592 Goal=   None    Shift=    0.000
 RMSDP=4.88D-09 MaxDP=3.17D-08 DE=-5.97D-13 OVMax= 8.55D-08

 SCF Done:  E(RHF) =  -115.058572676     A.U. after   11 cycles
             Convg  =    0.4877D-08             -V/T =  2.0005
 KE= 1.150005011947D+02 PE=-3.514500606851D+02 EE= 8.131649015722D+01
 Leave Link  502 at Sun Dec 29 12:25:58 2019, MaxMem=   91750400 cpu:       0.1
 (Enter /opt/g09gh/gaussian/g09/l601.exe)
 Copying SCF densities to generalized density rwf, IOpCl= 0 IROHF=0.

 **********************************************************************

            Population analysis using the SCF density.

 **********************************************************************

 Orbital symmetries:
       Occupied  (A) (A) (A) (A) (A) (A) (A) (A) (A)
       Virtual   (A) (A) (A) (A) (A) (A) (A) (A) (A) (A) (A) (A)
                 (A) (A) (A) (A) (A) (A) (A) (A) (A) (A) (A) (A)
                 (A) (A) (A) (A) (A) (A) (A) (A) (A) (A) (A) (A)
                 (A) (A) (A)
 The electronic state is 1-A.
 Alpha  occ. eigenvalues --  -20.54272 -11.27164  -1.34425  -0.92008  -0.68126
 Alpha  occ. eigenvalues --   -0.61627  -0.58730  -0.50118  -0.44359
 Alpha virt. eigenvalues --    0.14835   0.18619   0.22862   0.23202   0.33588
 Alpha virt. eigenvalues --    0.46176   0.46777   0.59014   0.67843   0.72391
 Alpha virt. eigenvalues --    0.78702   0.79184   0.94606   1.07360   1.07578
 Alpha virt. eigenvalues --    1.20016   1.55124   1.57046   1.68675   1.76819
 Alpha virt. eigenvalues --    1.77814   1.96666   2.37735   2.63043   2.69795
 Alpha virt. eigenvalues --    2.71362   3.16474   3.18867   3.30806   3.36753
 Alpha virt. eigenvalues --    3.56046   3.57624   3.73716   4.25721   5.37723
 Alpha virt. eigenvalues --    5.52758   5.86694  24.53435  51.52255
          Condensed to atoms (all electrons):
              1          2          3          4          5          6
     1  O    8.289267   0.201733  -0.028602  -0.029662  -0.037910   0.268133
     2  C    0.201733   4.998701   0.394101   0.388602   0.391221  -0.050251
     3  H   -0.028602   0.394101   0.528163  -0.027078  -0.033688  -0.011097
     4  H   -0.029662   0.388602  -0.027078   0.490106  -0.035428   0.005928
     5  H   -0.037910   0.391221  -0.033688  -0.035428   0.518021   0.002404
     6  H    0.268133  -0.050251  -0.011097   0.005928   0.002404   0.378931
 Mulliken atomic charges:
              1
     1  O   -0.662959
     2  C   -0.324108
     3  H    0.178202
     4  H    0.207533
     5  H    0.195380
     6  H    0.405952
 Sum of Mulliken atomic charges =   0.00000
 Mulliken charges with hydrogens summed into heavy atoms:
              1
     1  O   -0.257007
     2  C    0.257007
 Sum of Mulliken charges with hydrogens summed into heavy atoms =   0.00000
 Electronic spatial extent (au):  <R**2>=             84.4171
 Charge=              0.0000 electrons
 Dipole moment (field-independent basis, Debye):
    X=              1.0675    Y=              1.8290    Z=             -0.0569  Tot=              2.1185
 Quadrupole moment (field-independent basis, Debye-Ang):
   XX=            -12.9955   YY=            -11.9729   ZZ=            -13.5884
   XY=             -2.4307   XZ=             -0.0343   YZ=              0.0289
 Traceless Quadrupole moment (field-independent basis, Debye-Ang):
   XX=             -0.1432   YY=              0.8793   ZZ=             -0.7361
   XY=             -2.4307   XZ=             -0.0343   YZ=              0.0289
 Octapole moment (field-independent basis, Debye-Ang**2):
  XXX=             -4.1261  YYY=              1.6692  ZZZ=              0.4522  XYY=             -1.8569
  XXY=              2.5100  XXZ=             -0.1288  XZZ=             -0.2981  YZZ=             -0.0416
  YYZ=             -0.5426  XYZ=              0.1416
 Hexadecapole moment (field-independent basis, Debye-Ang**3):
 XXXX=            -60.9804 YYYY=            -19.4682 ZZZZ=            -18.8328 XXXY=             -3.9661
 XXXZ=             -0.1353 YYYX=             -2.0437 YYYZ=             -0.0180 ZZZX=              0.5180
 ZZZY=              0.0926 XXYY=            -12.3805 XXZZ=            -13.6750 YYZZ=             -6.5898
 XXYZ=              0.1905 YYXZ=             -0.5894 ZZXY=             -0.7961
 N-N= 4.007449665721D+01 E-N=-3.514500607428D+02  KE= 1.150005011947D+02
 No NMR shielding tensors so no spin-rotation constants.
 Leave Link  601 at Sun Dec 29 12:25:58 2019, MaxMem=   91750400 cpu:       0.1
 (Enter /opt/g09gh/gaussian/g09/l701.exe)
 Compute integral first derivatives.
 ... and contract with generalized density number  0.
 Leave Link  701 at Sun Dec 29 12:25:58 2019, MaxMem=   91750400 cpu:       0.1
 (Enter /opt/g09gh/gaussian/g09/l702.exe)
 L702 exits ... SP integral derivatives will be done elsewhere.
 Leave Link  702 at Sun Dec 29 12:25:58 2019, MaxMem=   91750400 cpu:       0.0
 (Enter /opt/g09gh/gaussian/g09/l703.exe)
 Compute integral first derivatives, UseDBF=F ICtDFT=           0.
 Integral derivatives from FoFDir, PRISM(SPDF).
 Calling FoFJK, ICntrl=      2127 FMM=F ISym2X=0 I1Cent= 0 IOpClX= 0 NMat=1 NMatS=1 NMatT=0.
 FoFCou: FMM=F IPFlag=           0 FMFlag=      100000 FMFlg1=         800
         NFxFlg=           0 DoJE=F BraDBF=F KetDBF=F FulRan=T
         Omega=  0.000000  0.000000  1.000000  0.000000  0.000000 ICntrl=    2127 IOpCl=  0
         NMat0=    1 NMatS0=    1 NMatT0=    0 NMatD0=    1 NMtDS0=    0 NMtDT0=    0
         I1Cent=           0 NGrid=           0.
 Symmetry not used in FoFCou.
 Leave Link  703 at Sun Dec 29 12:25:58 2019, MaxMem=   91750400 cpu:       0.3
 (Enter /opt/g09gh/gaussian/g09/l716.exe)
 Dipole        = 4.20002184D-01 7.19594043D-01-2.23865209D-02
 ***** Axes restored to original set *****
 -------------------------------------------------------------------
 Center     Atomic                   Forces (Hartrees/Bohr)
 Number     Number              X              Y              Z
 -------------------------------------------------------------------
      1        8          -0.006426846   -0.039468247   -0.004726289
      2        6           0.022096056    0.003166144    0.007063500
      3        1          -0.005822853    0.009706007   -0.000040164
      4        1           0.002059787   -0.009027233    0.004975597
      5        1          -0.003755921   -0.001833055   -0.008826794
      6        1          -0.008150223    0.037456384    0.001554150
 -------------------------------------------------------------------
 Cartesian Forces:  Max     0.039468247 RMS     0.014861104
 Leave Link  716 at Sun Dec 29 12:25:58 2019, MaxMem=   91750400 cpu:       0.0
 (Enter /opt/g09gh/gaussian/g09/l103.exe)

 GradGradGradGradGradGradGradGradGradGradGradGradGradGradGradGradGradGrad
 Berny optimization.
 Internal  Forces:  Max     0.037825746 RMS     0.012362097
 Search for a local minimum.
 Step number   1 out of a maximum of  100
 All quantities printed in internal units (Hartrees-Bohrs-Radians)
 RMS Force = .12362D-01 SwitMx=.10000D-02 MixMth= 1
 Mixed Optimization -- RFO/linear search
 Second derivative matrix not updated -- first step.
 The second derivative matrix:
                          R1        R2        R3        R4        R5
           R1           0.40245
           R2           0.00000   0.52577
           R3           0.00000   0.00000   0.34333
           R4           0.00000   0.00000   0.00000   0.34361
           R5           0.00000   0.00000   0.00000   0.00000   0.34292
           A1           0.00000   0.00000   0.00000   0.00000   0.00000
           A2           0.00000   0.00000   0.00000   0.00000   0.00000
           A3           0.00000   0.00000   0.00000   0.00000   0.00000
           A4           0.00000   0.00000   0.00000   0.00000   0.00000
           A5           0.00000   0.00000   0.00000   0.00000   0.00000
           A6           0.00000   0.00000   0.00000   0.00000   0.00000
           A7           0.00000   0.00000   0.00000   0.00000   0.00000
           D1           0.00000   0.00000   0.00000   0.00000   0.00000
           D2           0.00000   0.00000   0.00000   0.00000   0.00000
           D3           0.00000   0.00000   0.00000   0.00000   0.00000
                          A1        A2        A3        A4        A5
           A1           0.16000
           A2           0.00000   0.16000
           A3           0.00000   0.00000   0.16000
           A4           0.00000   0.00000   0.00000   0.16000
           A5           0.00000   0.00000   0.00000   0.00000   0.16000
           A6           0.00000   0.00000   0.00000   0.00000   0.00000
           A7           0.00000   0.00000   0.00000   0.00000   0.00000
           D1           0.00000   0.00000   0.00000   0.00000   0.00000
           D2           0.00000   0.00000   0.00000   0.00000   0.00000
           D3           0.00000   0.00000   0.00000   0.00000   0.00000
                          A6        A7        D1        D2        D3
           A6           0.16000
           A7           0.00000   0.16000
           D1           0.00000   0.00000   0.01226
           D2           0.00000   0.00000   0.00000   0.01226
           D3           0.00000   0.00000   0.00000   0.00000   0.01226
     Eigenvalues ---    0.01226   0.10422   0.10602   0.16000   0.16000
     Eigenvalues ---    0.16000   0.16000   0.34292   0.34333   0.34361
     Eigenvalues ---    0.40245   0.525771000.000001000.000001000.00000
 RFO step:  Lambda=-6.66121526D-03 EMin= 1.22556724D-02
 Linear search not attempted -- first point.
 Iteration  1 RMS(Cart)=  0.04953926 RMS(Int)=  0.00312609
 Iteration  2 RMS(Cart)=  0.00237860 RMS(Int)=  0.00096932
 Iteration  3 RMS(Cart)=  0.00000403 RMS(Int)=  0.00096930
 Iteration  4 RMS(Cart)=  0.00000000 RMS(Int)=  0.00096930
 Variable       Old X    -DE/DX   Delta X   Delta X   Delta X     New X
                                 (Linear)    (Quad)   (Total)
    R1        2.71222  -0.01467   0.00000  -0.03586  -0.03586   2.67636
    R2        1.84051  -0.03783   0.00000  -0.07104  -0.07104   1.76946
    R3        2.06772  -0.00748   0.00000  -0.02137  -0.02137   2.04635
    R4        2.06725  -0.01012   0.00000  -0.02889  -0.02889   2.03836
    R5        2.06841  -0.00739   0.00000  -0.02114  -0.02114   2.04726
    A1        1.85868   0.01144   0.00000   0.06865   0.06865   1.92734
    A2        1.90174   0.00991   0.00000   0.05961   0.05835   1.96009
    A3        1.89173  -0.00147   0.00000  -0.01364  -0.01378   1.87795
    A4        1.88039   0.00909   0.00000   0.05907   0.05770   1.93809
    A5        1.95067  -0.00797   0.00000  -0.05697  -0.05702   1.89365
    A6        1.91677  -0.00478   0.00000  -0.01861  -0.02087   1.89590
    A7        1.92093  -0.00390   0.00000  -0.02398  -0.02421   1.89672
    D1       -0.33325  -0.00411   0.00000  -0.07684  -0.07856  -0.41181
    D2       -2.45957   0.00051   0.00000  -0.03516  -0.03501  -2.49457
    D3        1.74548   0.00088   0.00000  -0.03211  -0.03055   1.71493
         Item               Value     Threshold  Converged?
 Maximum Force            0.037826     0.000450     NO 
 RMS     Force            0.012362     0.000300     NO 
 Maximum Displacement     0.106985     0.001800     NO 
 RMS     Displacement     0.049624     0.001200     NO 
 Predicted change in Energy=-3.449213D-03
 GradGradGradGradGradGradGradGradGradGradGradGradGradGradGradGradGradGrad

 Leave Link  103 at Sun Dec 29 12:25:58 2019, MaxMem=   91750400 cpu:       0.0
 (Enter /opt/g09gh/gaussian/g09/l202.exe)
                          Input orientation:                          
 ---------------------------------------------------------------------
 Center     Atomic      Atomic             Coordinates (Angstroms)
 Number     Number       Type             X           Y           Z
 ---------------------------------------------------------------------
      1          8           0        0.740523    0.095633   -0.028418
      2          6           0       -0.669968   -0.024165    0.016059
      3          1           0       -1.011352   -0.991880   -0.329791
      4          1           0       -1.082278    0.735053   -0.629762
      5          1           0       -1.042460    0.135382    1.020785
      6          1           0        1.141442   -0.750039    0.001123
 ---------------------------------------------------------------------
                    Distance matrix (angstroms):
                    1          2          3          4          5
     1  O    0.000000
     2  C    1.416268   0.000000
     3  H    2.083885   1.082879   0.000000
     4  H    2.023135   1.078655   1.754226   0.000000
     5  H    2.069163   1.083365   1.759472   1.756559   0.000000
     6  H    0.936360   1.951493   2.191464   2.747443   2.567705
                    6
     6  H    0.000000
 Stoichiometry    CH4O
 Framework group  C1[X(CH4O)]
 Deg. of freedom    12
 Full point group                 C1      NOp   1
 Largest Abelian subgroup         C1      NOp   1
 Largest concise Abelian subgroup C1      NOp   1
                         Standard orientation:                         
 ---------------------------------------------------------------------
 Center     Atomic      Atomic             Coordinates (Angstroms)
 Number     Number       Type             X           Y           Z
 ---------------------------------------------------------------------
      1          8           0       -0.744407   -0.119588    0.001195
      2          6           0        0.665054    0.019104    0.000609
      3          1           0        0.983792    0.975067   -0.395836
      4          1           0        1.069378   -0.762210   -0.623543
      5          1           0        1.067353   -0.092428    1.000306
      6          1           0       -1.155586    0.721649    0.005857
 ---------------------------------------------------------------------
 Rotational constants (GHZ):    132.4979793     24.9378664     24.1078553
 Leave Link  202 at Sun Dec 29 12:25:58 2019, MaxMem=   91750400 cpu:       0.0
 (Enter /opt/g09gh/gaussian/g09/l301.exe)
 Standard basis: 6-311G(d) (5D, 7F)
 Ernie: Thresh=  0.10000D-02 Tol=  0.10000D-05 Strict=F.
 There are    48 symmetry adapted basis functions of A   symmetry.
 Integral buffers will be    131072 words long.
 Raffenetti 1 integral format.
 Two-electron integral symmetry is turned on.
    48 basis functions,    84 primitive gaussians,    50 cartesian basis functions
     9 alpha electrons        9 beta electrons
       nuclear repulsion energy        40.6030949871 Hartrees.
 IExCor=    0 DFT=F Ex=HF Corr=None ExCW=0 ScaHFX=  1.000000
 ScaDFX=  1.000000  1.000000  1.000000  1.000000 ScalE2=  1.000000  1.000000
 IRadAn=      0 IRanWt=     -1 IRanGd=            0 ICorTp=0
 NAtoms=    6 NActive=    6 NUniq=    6 SFac= 7.50D-01 NAtFMM=   80 NAOKFM=F Big=F
 Leave Link  301 at Sun Dec 29 12:25:58 2019, MaxMem=   91750400 cpu:       0.1
 (Enter /opt/g09gh/gaussian/g09/l302.exe)
 NPDir=0 NMtPBC=     1 NCelOv=     1 NCel=       1 NClECP=     1 NCelD=      1
         NCelK=      1 NCelE2=     1 NClLst=     1 CellRange=     0.0.
 One-electron integrals computed using PRISM.
 NBasis=    48 RedAO= T  NBF=    48
 NBsUse=    48 1.00D-06 NBFU=    48
 Leave Link  302 at Sun Dec 29 12:25:59 2019, MaxMem=   91750400 cpu:       0.1
 (Enter /opt/g09gh/gaussian/g09/l303.exe)
 DipDrv:  MaxL=1.
 Leave Link  303 at Sun Dec 29 12:25:59 2019, MaxMem=   91750400 cpu:       0.0
 (Enter /opt/g09gh/gaussian/g09/l401.exe)
 Initial guess read from the read-write file.
 B after Tr=     0.000000    0.000000    0.000000
         Rot=    1.000000    0.000000    0.000000    0.000000 Ang=   0.00 deg.
 Guess basis will be translated and rotated to current coordinates.
 Initial guess orbital symmetries:
       Occupied  (A) (A) (A) (A) (A) (A) (A) (A) (A)
       Virtual   (A) (A) (A) (A) (A) (A) (A) (A) (A) (A) (A) (A)
                 (A) (A) (A) (A) (A) (A) (A) (A) (A) (A) (A) (A)
                 (A) (A) (A) (A) (A) (A) (A) (A) (A) (A) (A) (A)
                 (A) (A) (A)
 The electronic state of the initial guess is 1-A.
 Generating alternative initial guess.
 Harris functional with IExCor=  205 diagonalized for initial guess.
 ExpMin= 1.03D-01 ExpMax= 8.59D+03 ExpMxC= 1.30D+03 IAcc=1 IRadAn=         1 AccDes= 0.00D+00
 HarFok:  IExCor=  205 AccDes= 0.00D+00 IRadAn=         1 IDoV= 1
 ScaDFX=  1.000000  1.000000  1.000000  1.000000
 FoFCou: FMM=F IPFlag=           0 FMFlag=      100000 FMFlg1=           0
         NFxFlg=           0 DoJE=T BraDBF=F KetDBF=T FulRan=T
         Omega=  0.000000  0.000000  1.000000  0.000000  0.000000 ICntrl=     500 IOpCl=  0
         NMat0=    1 NMatS0=    1 NMatT0=    0 NMatD0=    1 NMtDS0=    0 NMtDT0=    0
         I1Cent=           4 NGrid=           0.
 Petite list used in FoFCou.
 Harris En= -115.247152462175    
 Leave Link  401 at Sun Dec 29 12:25:59 2019, MaxMem=   91750400 cpu:       0.3
 (Enter /opt/g09gh/gaussian/g09/l502.exe)
 Closed shell SCF:
 Requested convergence on RMS density matrix=1.00D-08 within 128 cycles.
 Requested convergence on MAX density matrix=1.00D-06.
 Requested convergence on             energy=1.00D-06.
 No special actions if energy rises.
 Using DIIS extrapolation, IDIIS=  1040.
 Integral symmetry usage will be decided dynamically.
 Keep R1 ints in memory in canonical form, NReq=1659792.
 IEnd=       26328 IEndB=       26328 NGot=    91750400 MDV=    90929785
 LenX=    90929785 LenY=    90926844
 Symmetry not used in FoFDir.
 MinBra= 0 MaxBra= 2 Meth= 1.
 IRaf=       0 NMat=   1 IRICut=       1 DoRegI=T DoRafI=F ISym2E= 0 JSym2E=0.

 Cycle   1  Pass 1  IDiag  1:
 E= -115.059891788485    
 DIIS: error= 5.10D-03 at cycle   1 NSaved=   1.
 NSaved= 1 IEnMin= 1 EnMin= -115.059891788485     IErMin= 1 ErrMin= 5.10D-03
 ErrMax= 5.10D-03 EMaxC= 1.00D-01 BMatC= 1.72D-03 BMatP= 1.72D-03
 IDIUse=3 WtCom= 9.49D-01 WtEn= 5.10D-02
 Coeff-Com:  0.100D+01
 Coeff-En:   0.100D+01
 Coeff:      0.100D+01
 Gap=     0.606 Goal=   None    Shift=    0.000
 GapD=    0.606 DampG=2.000 DampE=1.000 DampFc=2.0000 IDamp=-1.
 RMSDP=6.00D-04 MaxDP=7.31D-03              OVMax= 1.14D-02

 Cycle   2  Pass 1  IDiag  1:
 E= -115.061758673421     Delta-E=       -0.001866884937 Rises=F Damp=F
 DIIS: error= 1.53D-03 at cycle   2 NSaved=   2.
 NSaved= 2 IEnMin= 2 EnMin= -115.061758673421     IErMin= 2 ErrMin= 1.53D-03
 ErrMax= 1.53D-03 EMaxC= 1.00D-01 BMatC= 1.51D-04 BMatP= 1.72D-03
 IDIUse=3 WtCom= 9.85D-01 WtEn= 1.53D-02
 Coeff-Com: -0.270D-01 0.103D+01
 Coeff-En:   0.000D+00 0.100D+01
 Coeff:     -0.266D-01 0.103D+01
 Gap=     0.597 Goal=   None    Shift=    0.000
 RMSDP=2.31D-04 MaxDP=3.52D-03 DE=-1.87D-03 OVMax= 4.40D-03

 Cycle   3  Pass 1  IDiag  1:
 E= -115.061941802246     Delta-E=       -0.000183128824 Rises=F Damp=F
 DIIS: error= 9.48D-04 at cycle   3 NSaved=   3.
 NSaved= 3 IEnMin= 3 EnMin= -115.061941802246     IErMin= 3 ErrMin= 9.48D-04
 ErrMax= 9.48D-04 EMaxC= 1.00D-01 BMatC= 3.14D-05 BMatP= 1.51D-04
 IDIUse=3 WtCom= 9.91D-01 WtEn= 9.48D-03
 Coeff-Com: -0.854D-01 0.244D+00 0.841D+00
 Coeff-En:   0.000D+00 0.000D+00 0.100D+01
 Coeff:     -0.846D-01 0.242D+00 0.843D+00
 Gap=     0.599 Goal=   None    Shift=    0.000
 RMSDP=9.68D-05 MaxDP=1.29D-03 DE=-1.83D-04 OVMax= 1.82D-03

 Cycle   4  Pass 1  IDiag  1:
 E= -115.061976902608     Delta-E=       -0.000035100362 Rises=F Damp=F
 DIIS: error= 1.96D-04 at cycle   4 NSaved=   4.
 NSaved= 4 IEnMin= 4 EnMin= -115.061976902608     IErMin= 4 ErrMin= 1.96D-04
 ErrMax= 1.96D-04 EMaxC= 1.00D-01 BMatC= 2.04D-06 BMatP= 3.14D-05
 IDIUse=3 WtCom= 9.98D-01 WtEn= 1.96D-03
 Coeff-Com: -0.119D-02-0.897D-01 0.226D-01 0.107D+01
 Coeff-En:   0.000D+00 0.000D+00 0.000D+00 0.100D+01
 Coeff:     -0.119D-02-0.895D-01 0.226D-01 0.107D+01
 Gap=     0.598 Goal=   None    Shift=    0.000
 RMSDP=4.32D-05 MaxDP=3.71D-04 DE=-3.51D-05 OVMax= 8.50D-04

 Cycle   5  Pass 1  IDiag  1:
 E= -115.061980804550     Delta-E=       -0.000003901942 Rises=F Damp=F
 DIIS: error= 4.15D-05 at cycle   5 NSaved=   5.
 NSaved= 5 IEnMin= 5 EnMin= -115.061980804550     IErMin= 5 ErrMin= 4.15D-05
 ErrMax= 4.15D-05 EMaxC= 1.00D-01 BMatC= 1.18D-07 BMatP= 2.04D-06
 IDIUse=1 WtCom= 1.00D+00 WtEn= 0.00D+00
 Coeff-Com:  0.406D-02-0.127D-01-0.507D-01-0.126D-01 0.107D+01
 Coeff:      0.406D-02-0.127D-01-0.507D-01-0.126D-01 0.107D+01
 Gap=     0.598 Goal=   None    Shift=    0.000
 RMSDP=1.29D-05 MaxDP=9.46D-05 DE=-3.90D-06 OVMax= 2.48D-04

 Cycle   6  Pass 1  IDiag  1:
 E= -115.061981080175     Delta-E=       -0.000000275626 Rises=F Damp=F
 DIIS: error= 1.23D-05 at cycle   6 NSaved=   6.
 NSaved= 6 IEnMin= 6 EnMin= -115.061981080175     IErMin= 6 ErrMin= 1.23D-05
 ErrMax= 1.23D-05 EMaxC= 1.00D-01 BMatC= 1.13D-08 BMatP= 1.18D-07
 IDIUse=1 WtCom= 1.00D+00 WtEn= 0.00D+00
 Coeff-Com:  0.379D-03 0.549D-02-0.511D-02-0.836D-01 0.953D-01 0.988D+00
 Coeff:      0.379D-03 0.549D-02-0.511D-02-0.836D-01 0.953D-01 0.988D+00
 Gap=     0.598 Goal=   None    Shift=    0.000
 RMSDP=3.75D-06 MaxDP=3.09D-05 DE=-2.76D-07 OVMax= 7.90D-05

 Cycle   7  Pass 1  IDiag  1:
 E= -115.061981105438     Delta-E=       -0.000000025262 Rises=F Damp=F
 DIIS: error= 3.87D-06 at cycle   7 NSaved=   7.
 NSaved= 7 IEnMin= 7 EnMin= -115.061981105438     IErMin= 7 ErrMin= 3.87D-06
 ErrMax= 3.87D-06 EMaxC= 1.00D-01 BMatC= 1.00D-09 BMatP= 1.13D-08
 IDIUse=1 WtCom= 1.00D+00 WtEn= 0.00D+00
 Coeff-Com: -0.489D-03 0.681D-03 0.595D-02 0.101D-01-0.118D+00-0.146D+00
 Coeff-Com:  0.125D+01
 Coeff:     -0.489D-03 0.681D-03 0.595D-02 0.101D-01-0.118D+00-0.146D+00
 Coeff:      0.125D+01
 Gap=     0.598 Goal=   None    Shift=    0.000
 RMSDP=1.51D-06 MaxDP=1.56D-05 DE=-2.53D-08 OVMax= 3.87D-05

 Cycle   8  Pass 1  IDiag  1:
 E= -115.061981108408     Delta-E=       -0.000000002970 Rises=F Damp=F
 DIIS: error= 8.92D-07 at cycle   8 NSaved=   8.
 NSaved= 8 IEnMin= 8 EnMin= -115.061981108408     IErMin= 8 ErrMin= 8.92D-07
 ErrMax= 8.92D-07 EMaxC= 1.00D-01 BMatC= 4.69D-11 BMatP= 1.00D-09
 IDIUse=1 WtCom= 1.00D+00 WtEn= 0.00D+00
 Coeff-Com:  0.112D-03-0.403D-03-0.149D-02 0.158D-02 0.286D-01-0.250D-02
 Coeff-Com: -0.359D+00 0.133D+01
 Coeff:      0.112D-03-0.403D-03-0.149D-02 0.158D-02 0.286D-01-0.250D-02
 Coeff:     -0.359D+00 0.133D+01
 Gap=     0.598 Goal=   None    Shift=    0.000
 RMSDP=3.49D-07 MaxDP=3.64D-06 DE=-2.97D-09 OVMax= 9.26D-06

 Cycle   9  Pass 1  IDiag  1:
 E= -115.061981108562     Delta-E=       -0.000000000154 Rises=F Damp=F
 DIIS: error= 2.11D-07 at cycle   9 NSaved=   9.
 NSaved= 9 IEnMin= 9 EnMin= -115.061981108562     IErMin= 9 ErrMin= 2.11D-07
 ErrMax= 2.11D-07 EMaxC= 1.00D-01 BMatC= 2.43D-12 BMatP= 4.69D-11
 IDIUse=1 WtCom= 1.00D+00 WtEn= 0.00D+00
 Coeff-Com: -0.481D-05 0.412D-04 0.123D-03-0.638D-03-0.251D-02 0.513D-02
 Coeff-Com:  0.460D-01-0.394D+00 0.135D+01
 Coeff:     -0.481D-05 0.412D-04 0.123D-03-0.638D-03-0.251D-02 0.513D-02
 Coeff:      0.460D-01-0.394D+00 0.135D+01
 Gap=     0.598 Goal=   None    Shift=    0.000
 RMSDP=8.29D-08 MaxDP=8.79D-07 DE=-1.54D-10 OVMax= 2.22D-06

 Cycle  10  Pass 1  IDiag  1:
 E= -115.061981108570     Delta-E=       -0.000000000008 Rises=F Damp=F
 DIIS: error= 3.44D-08 at cycle  10 NSaved=  10.
 NSaved=10 IEnMin=10 EnMin= -115.061981108570     IErMin=10 ErrMin= 3.44D-08
 ErrMax= 3.44D-08 EMaxC= 1.00D-01 BMatC= 9.76D-14 BMatP= 2.43D-12
 IDIUse=1 WtCom= 1.00D+00 WtEn= 0.00D+00
 Coeff-Com: -0.238D-05-0.563D-05 0.306D-04 0.205D-03-0.651D-03-0.242D-02
 Coeff-Com:  0.563D-02 0.461D-01-0.359D+00 0.131D+01
 Coeff:     -0.238D-05-0.563D-05 0.306D-04 0.205D-03-0.651D-03-0.242D-02
 Coeff:      0.563D-02 0.461D-01-0.359D+00 0.131D+01
 Gap=     0.598 Goal=   None    Shift=    0.000
 RMSDP=1.53D-08 MaxDP=1.55D-07 DE=-8.27D-12 OVMax= 3.76D-07

 Cycle  11  Pass 1  IDiag  1:
 E= -115.061981108570     Delta-E=        0.000000000000 Rises=F Damp=F
 DIIS: error= 8.69D-09 at cycle  11 NSaved=  11.
 NSaved=11 IEnMin=10 EnMin= -115.061981108570     IErMin=11 ErrMin= 8.69D-09
 ErrMax= 8.69D-09 EMaxC= 1.00D-01 BMatC= 3.68D-15 BMatP= 9.76D-14
 IDIUse=1 WtCom= 1.00D+00 WtEn= 0.00D+00
 Coeff-Com:  0.307D-06-0.935D-06-0.759D-05 0.153D-04 0.143D-03-0.858D-04
 Coeff-Com: -0.222D-02 0.133D-01-0.205D-01-0.159D+00 0.117D+01
 Coeff:      0.307D-06-0.935D-06-0.759D-05 0.153D-04 0.143D-03-0.858D-04
 Coeff:     -0.222D-02 0.133D-01-0.205D-01-0.159D+00 0.117D+01
 Gap=     0.598 Goal=   None    Shift=    0.000
 RMSDP=2.81D-09 MaxDP=1.80D-08 DE= 8.53D-14 OVMax= 5.06D-08

 SCF Done:  E(RHF) =  -115.061981109     A.U. after   11 cycles
             Convg  =    0.2812D-08             -V/T =  1.9993
 KE= 1.151462278472D+02 PE=-3.525869544847D+02 EE= 8.177565054183D+01
 Leave Link  502 at Sun Dec 29 12:25:59 2019, MaxMem=   91750400 cpu:       0.2
 (Enter /opt/g09gh/gaussian/g09/l701.exe)
 Compute integral first derivatives.
 ... and contract with generalized density number  0.
 Leave Link  701 at Sun Dec 29 12:25:59 2019, MaxMem=   91750400 cpu:       0.1
 (Enter /opt/g09gh/gaussian/g09/l702.exe)
 L702 exits ... SP integral derivatives will be done elsewhere.
 Leave Link  702 at Sun Dec 29 12:25:59 2019, MaxMem=   91750400 cpu:       0.0
 (Enter /opt/g09gh/gaussian/g09/l703.exe)
 Compute integral first derivatives, UseDBF=F ICtDFT=           0.
 Integral derivatives from FoFDir, PRISM(SPDF).
 Calling FoFJK, ICntrl=      2127 FMM=F ISym2X=0 I1Cent= 0 IOpClX= 0 NMat=1 NMatS=1 NMatT=0.
 FoFCou: FMM=F IPFlag=           0 FMFlag=      100000 FMFlg1=         800
         NFxFlg=           0 DoJE=F BraDBF=F KetDBF=F FulRan=T
         Omega=  0.000000  0.000000  1.000000  0.000000  0.000000 ICntrl=    2127 IOpCl=  0
         NMat0=    1 NMatS0=    1 NMatT0=    0 NMatD0=    1 NMtDS0=    0 NMtDT0=    0
         I1Cent=           0 NGrid=           0.
 Symmetry not used in FoFCou.
 Leave Link  703 at Sun Dec 29 12:26:00 2019, MaxMem=   91750400 cpu:       0.3
 (Enter /opt/g09gh/gaussian/g09/l716.exe)
 Dipole        = 3.70280163D-01 7.02228939D-01-1.31674255D-02
 ***** Axes restored to original set *****
 -------------------------------------------------------------------
 Center     Atomic                   Forces (Hartrees/Bohr)
 Number     Number              X              Y              Z
 -------------------------------------------------------------------
      1        8          -0.011280587   -0.000408404   -0.001440409
      2        6           0.011367985    0.002805467    0.000075663
      3        1           0.000290521   -0.001665930   -0.001330918
      4        1          -0.001433270    0.001255884   -0.000774819
      5        1           0.000452451   -0.000475441    0.001490971
      6        1           0.000602900   -0.001511576    0.001979512
 -------------------------------------------------------------------
 Cartesian Forces:  Max     0.011367985 RMS     0.003976907
 Leave Link  716 at Sun Dec 29 12:26:00 2019, MaxMem=   91750400 cpu:       0.0
 (Enter /opt/g09gh/gaussian/g09/l103.exe)

 GradGradGradGradGradGradGradGradGradGradGradGradGradGradGradGradGradGrad
 Berny optimization.
 Using GEDIIS/GDIIS optimizer.
 Internal  Forces:  Max     0.010813469 RMS     0.003050805
 Search for a local minimum.
 Step number   2 out of a maximum of  100
 All quantities printed in internal units (Hartrees-Bohrs-Radians)
 RMS Force = .30508D-02 SwitMx=.10000D-02 MixMth= 1
 Mixed Optimization -- RFO/linear search
 Update second derivatives using D2CorX and points    1    2
 DE= -3.41D-03 DEPred=-3.45D-03 R= 9.88D-01
 SS=  1.41D+00  RLast= 1.80D-01 DXNew= 5.0454D-01 5.3926D-01
 Trust test= 9.88D-01 RLast= 1.80D-01 DXMaxT set to 5.05D-01
 The second derivative matrix:
                          R1        R2        R3        R4        R5
           R1           0.37224
           R2          -0.06094   0.54474
           R3          -0.01107   0.01294   0.34804
           R4          -0.01531   0.01410   0.00557   0.35011
           R5          -0.01132   0.00894   0.00375   0.00434   0.34579
           A1           0.01783  -0.00653  -0.00403  -0.00444  -0.00283
           A2           0.01429  -0.01439  -0.00551  -0.00646  -0.00432
           A3          -0.00309   0.00633   0.00199   0.00242   0.00166
           A4           0.01479  -0.00744  -0.00385  -0.00432  -0.00280
           A5          -0.01587  -0.00551   0.00077   0.00036  -0.00001
           A6          -0.00432   0.01330   0.00389   0.00479   0.00331
           A7          -0.00620   0.00315   0.00162   0.00182   0.00118
           D1          -0.00015   0.01508   0.00377   0.00480   0.00339
           D2          -0.00174  -0.01043  -0.00236  -0.00308  -0.00220
           D3          -0.00236  -0.01768  -0.00408  -0.00529  -0.00378
                          A1        A2        A3        A4        A5
           A1           0.16220
           A2           0.00451   0.16640
           A3          -0.00194  -0.00236   0.16080
           A4           0.00243   0.00436  -0.00179   0.16255
           A5           0.00143  -0.00057   0.00072   0.00081   0.15661
           A6          -0.00404  -0.00466   0.00151  -0.00367   0.00184
           A7          -0.00103  -0.00184   0.00075  -0.00108  -0.00033
           D1          -0.00452  -0.00461   0.00135  -0.00397   0.00280
           D2           0.00310   0.00293  -0.00079   0.00267  -0.00221
           D3           0.00526   0.00505  -0.00139   0.00455  -0.00365
                          A6        A7        D1        D2        D3
           A6           0.16280
           A7           0.00154   0.16046
           D1           0.00236   0.00167   0.01392
           D2          -0.00132  -0.00112  -0.00076   0.01249
           D3          -0.00234  -0.00191  -0.00141   0.00049   0.01325
 Use linear search instead of GDIIS.
     Eigenvalues ---    0.01184   0.10157   0.10351   0.15706   0.16000
     Eigenvalues ---    0.16000   0.17252   0.33908   0.34329   0.34374
     Eigenvalues ---    0.37099   0.570561000.000001000.000001000.00000
 RFO step:  Lambda=-6.43917807D-04 EMin= 1.18437508D-02
 Quartic linear search produced a step of  0.00783.
 Iteration  1 RMS(Cart)=  0.02778634 RMS(Int)=  0.00112027
 Iteration  2 RMS(Cart)=  0.00094658 RMS(Int)=  0.00001605
 Iteration  3 RMS(Cart)=  0.00000123 RMS(Int)=  0.00001603
 Iteration  4 RMS(Cart)=  0.00000000 RMS(Int)=  0.00001603
 Variable       Old X    -DE/DX   Delta X   Delta X   Delta X     New X
                                 (Linear)    (Quad)   (Total)
    R1        2.67636  -0.01081  -0.00028  -0.02984  -0.03012   2.64624
    R2        1.76946   0.00169  -0.00056  -0.00242  -0.00298   1.76649
    R3        2.04635   0.00182  -0.00017   0.00364   0.00347   2.04982
    R4        2.03836   0.00190  -0.00023   0.00325   0.00303   2.04139
    R5        2.04726   0.00116  -0.00017   0.00171   0.00155   2.04881
    A1        1.92734  -0.00034   0.00054   0.00330   0.00383   1.93117
    A2        1.96009  -0.00158   0.00046  -0.00645  -0.00601   1.95407
    A3        1.87795   0.00174  -0.00011   0.01107   0.01096   1.88891
    A4        1.93809  -0.00114   0.00045  -0.00301  -0.00258   1.93551
    A5        1.89365  -0.00002  -0.00045  -0.00414  -0.00457   1.88908
    A6        1.89590   0.00069  -0.00016   0.00020   0.00001   1.89591
    A7        1.89672   0.00039  -0.00019   0.00261   0.00240   1.89913
    D1       -0.41181  -0.00065  -0.00062  -0.08442  -0.08507  -0.49689
    D2       -2.49457  -0.00082  -0.00027  -0.08267  -0.08293  -2.57750
    D3        1.71493  -0.00171  -0.00024  -0.09090  -0.09113   1.62381
         Item               Value     Threshold  Converged?
 Maximum Force            0.010813     0.000450     NO 
 RMS     Force            0.003051     0.000300     NO 
 Maximum Displacement     0.068459     0.001800     NO 
 RMS     Displacement     0.027716     0.001200     NO 
 Predicted change in Energy=-3.306803D-04
 GradGradGradGradGradGradGradGradGradGradGradGradGradGradGradGradGradGrad

 Leave Link  103 at Sun Dec 29 12:26:00 2019, MaxMem=   91750400 cpu:       0.0
 (Enter /opt/g09gh/gaussian/g09/l202.exe)
                          Input orientation:                          
 ---------------------------------------------------------------------
 Center     Atomic      Atomic             Coordinates (Angstroms)
 Number     Number       Type             X           Y           Z
 ---------------------------------------------------------------------
      1          8           0        0.729940    0.091038   -0.053657
      2          6           0       -0.664439   -0.021627    0.009142
      3          1           0       -1.009476   -0.988462   -0.341266
      4          1           0       -1.093884    0.740568   -0.624568
      5          1           0       -1.019066    0.126011    1.022995
      6          1           0        1.132832   -0.747544    0.037350
 ---------------------------------------------------------------------
                    Distance matrix (angstroms):
                    1          2          3          4          5
     1  O    0.000000
     2  C    1.400331   0.000000
     3  H    2.067270   1.084715   0.000000
     4  H    2.018456   1.080256   1.754118   0.000000
     5  H    2.054124   1.084184   1.761632   1.760040   0.000000
     6  H    0.934785   1.938539   2.188807   2.758782   2.522947
                    6
     6  H    0.000000
 Stoichiometry    CH4O
 Framework group  C1[X(CH4O)]
 Deg. of freedom    12
 Full point group                 C1      NOp   1
 Largest Abelian subgroup         C1      NOp   1
 Largest concise Abelian subgroup C1      NOp   1
                         Standard orientation:                         
 ---------------------------------------------------------------------
 Center     Atomic      Atomic             Coordinates (Angstroms)
 Number     Number       Type             X           Y           Z
 ---------------------------------------------------------------------
      1          8           0       -0.736330   -0.120338    0.000595
      2          6           0        0.657071    0.018807    0.000951
      3          1           0        0.972807    0.940559   -0.475798
      4          1           0        1.079409   -0.808735   -0.550191
      5          1           0        1.047250    0.000729    1.012331
      6          1           0       -1.151248    0.717313    0.003185
 ---------------------------------------------------------------------
 Rotational constants (GHZ):    132.4263068     25.3898119     24.5461649
 Leave Link  202 at Sun Dec 29 12:26:00 2019, MaxMem=   91750400 cpu:       0.0
 (Enter /opt/g09gh/gaussian/g09/l301.exe)
 Standard basis: 6-311G(d) (5D, 7F)
 Ernie: Thresh=  0.10000D-02 Tol=  0.10000D-05 Strict=F.
 There are    48 symmetry adapted basis functions of A   symmetry.
 Integral buffers will be    131072 words long.
 Raffenetti 1 integral format.
 Two-electron integral symmetry is turned on.
    48 basis functions,    84 primitive gaussians,    50 cartesian basis functions
     9 alpha electrons        9 beta electrons
       nuclear repulsion energy        40.8525241146 Hartrees.
 IExCor=    0 DFT=F Ex=HF Corr=None ExCW=0 ScaHFX=  1.000000
 ScaDFX=  1.000000  1.000000  1.000000  1.000000 ScalE2=  1.000000  1.000000
 IRadAn=      0 IRanWt=     -1 IRanGd=            0 ICorTp=0
 NAtoms=    6 NActive=    6 NUniq=    6 SFac= 7.50D-01 NAtFMM=   80 NAOKFM=F Big=F
 Leave Link  301 at Sun Dec 29 12:26:00 2019, MaxMem=   91750400 cpu:       0.1
 (Enter /opt/g09gh/gaussian/g09/l302.exe)
 NPDir=0 NMtPBC=     1 NCelOv=     1 NCel=       1 NClECP=     1 NCelD=      1
         NCelK=      1 NCelE2=     1 NClLst=     1 CellRange=     0.0.
 One-electron integrals computed using PRISM.
 NBasis=    48 RedAO= T  NBF=    48
 NBsUse=    48 1.00D-06 NBFU=    48
 Leave Link  302 at Sun Dec 29 12:26:00 2019, MaxMem=   91750400 cpu:       0.1
 (Enter /opt/g09gh/gaussian/g09/l303.exe)
 DipDrv:  MaxL=1.
 Leave Link  303 at Sun Dec 29 12:26:00 2019, MaxMem=   91750400 cpu:       0.0
 (Enter /opt/g09gh/gaussian/g09/l401.exe)
 Initial guess read from the read-write file.
 B after Tr=     0.000000    0.000000    0.000000
         Rot=    1.000000    0.000000    0.000000    0.000000 Ang=   0.00 deg.
 Guess basis will be translated and rotated to current coordinates.
 Initial guess orbital symmetries:
       Occupied  (A) (A) (A) (A) (A) (A) (A) (A) (A)
       Virtual   (A) (A) (A) (A) (A) (A) (A) (A) (A) (A) (A) (A)
                 (A) (A) (A) (A) (A) (A) (A) (A) (A) (A) (A) (A)
                 (A) (A) (A) (A) (A) (A) (A) (A) (A) (A) (A) (A)
                 (A) (A) (A)
 The electronic state of the initial guess is 1-A.
 Generating alternative initial guess.
 Harris functional with IExCor=  205 diagonalized for initial guess.
 ExpMin= 1.03D-01 ExpMax= 8.59D+03 ExpMxC= 1.30D+03 IAcc=1 IRadAn=         1 AccDes= 0.00D+00
 HarFok:  IExCor=  205 AccDes= 0.00D+00 IRadAn=         1 IDoV= 1
 ScaDFX=  1.000000  1.000000  1.000000  1.000000
 FoFCou: FMM=F IPFlag=           0 FMFlag=      100000 FMFlg1=           0
         NFxFlg=           0 DoJE=T BraDBF=F KetDBF=T FulRan=T
         Omega=  0.000000  0.000000  1.000000  0.000000  0.000000 ICntrl=     500 IOpCl=  0
         NMat0=    1 NMatS0=    1 NMatT0=    0 NMatD0=    1 NMtDS0=    0 NMtDT0=    0
         I1Cent=           4 NGrid=           0.
 Petite list used in FoFCou.
 Harris En= -115.248117262554    
 Leave Link  401 at Sun Dec 29 12:26:00 2019, MaxMem=   91750400 cpu:       0.3
 (Enter /opt/g09gh/gaussian/g09/l502.exe)
 Closed shell SCF:
 Requested convergence on RMS density matrix=1.00D-08 within 128 cycles.
 Requested convergence on MAX density matrix=1.00D-06.
 Requested convergence on             energy=1.00D-06.
 No special actions if energy rises.
 Using DIIS extrapolation, IDIIS=  1040.
 Integral symmetry usage will be decided dynamically.
 Keep R1 ints in memory in canonical form, NReq=1659792.
 IEnd=       26328 IEndB=       26328 NGot=    91750400 MDV=    90929785
 LenX=    90929785 LenY=    90926844
 Symmetry not used in FoFDir.
 MinBra= 0 MaxBra= 2 Meth= 1.
 IRaf=       0 NMat=   1 IRICut=       1 DoRegI=T DoRafI=F ISym2E= 0 JSym2E=0.

 Cycle   1  Pass 1  IDiag  1:
 E= -115.060256552676    
 DIIS: error= 6.36D-03 at cycle   1 NSaved=   1.
 NSaved= 1 IEnMin= 1 EnMin= -115.060256552676     IErMin= 1 ErrMin= 6.36D-03
 ErrMax= 6.36D-03 EMaxC= 1.00D-01 BMatC= 1.22D-03 BMatP= 1.22D-03
 IDIUse=3 WtCom= 9.36D-01 WtEn= 6.36D-02
 Coeff-Com:  0.100D+01
 Coeff-En:   0.100D+01
 Coeff:      0.100D+01
 Gap=     0.598 Goal=   None    Shift=    0.000
 GapD=    0.598 DampG=2.000 DampE=1.000 DampFc=2.0000 IDamp=-1.
 RMSDP=4.37D-04 MaxDP=3.76D-03              OVMax= 1.20D-02

 Cycle   2  Pass 1  IDiag  1:
 E= -115.062170159708     Delta-E=       -0.001913607032 Rises=F Damp=F
 DIIS: error= 2.16D-03 at cycle   2 NSaved=   2.
 NSaved= 2 IEnMin= 2 EnMin= -115.062170159708     IErMin= 2 ErrMin= 2.16D-03
 ErrMax= 2.16D-03 EMaxC= 1.00D-01 BMatC= 1.10D-04 BMatP= 1.22D-03
 IDIUse=3 WtCom= 9.78D-01 WtEn= 2.16D-02
 Coeff-Com: -0.342D+00 0.134D+01
 Coeff-En:   0.000D+00 0.100D+01
 Coeff:     -0.334D+00 0.133D+01
 Gap=     0.597 Goal=   None    Shift=    0.000
 RMSDP=2.71D-04 MaxDP=2.74D-03 DE=-1.91D-03 OVMax= 6.00D-03

 Cycle   3  Pass 1  IDiag  1:
 E= -115.062424368026     Delta-E=       -0.000254208317 Rises=F Damp=F
 DIIS: error= 3.12D-04 at cycle   3 NSaved=   3.
 NSaved= 3 IEnMin= 3 EnMin= -115.062424368026     IErMin= 3 ErrMin= 3.12D-04
 ErrMax= 3.12D-04 EMaxC= 1.00D-01 BMatC= 4.20D-06 BMatP= 1.10D-04
 IDIUse=3 WtCom= 9.97D-01 WtEn= 3.12D-03
 Coeff-Com: -0.290D-01-0.456D-02 0.103D+01
 Coeff-En:   0.000D+00 0.000D+00 0.100D+01
 Coeff:     -0.289D-01-0.455D-02 0.103D+01
 Gap=     0.598 Goal=   None    Shift=    0.000
 RMSDP=7.70D-05 MaxDP=6.70D-04 DE=-2.54D-04 OVMax= 1.16D-03

 Cycle   4  Pass 1  IDiag  1:
 E= -115.062432646744     Delta-E=       -0.000008278718 Rises=F Damp=F
 DIIS: error= 1.05D-04 at cycle   4 NSaved=   4.
 NSaved= 4 IEnMin= 4 EnMin= -115.062432646744     IErMin= 4 ErrMin= 1.05D-04
 ErrMax= 1.05D-04 EMaxC= 1.00D-01 BMatC= 7.39D-07 BMatP= 4.20D-06
 IDIUse=3 WtCom= 9.99D-01 WtEn= 1.05D-03
 Coeff-Com:  0.270D-01-0.142D+00 0.286D+00 0.828D+00
 Coeff-En:   0.000D+00 0.000D+00 0.000D+00 0.100D+01
 Coeff:      0.269D-01-0.141D+00 0.286D+00 0.829D+00
 Gap=     0.597 Goal=   None    Shift=    0.000
 RMSDP=2.59D-05 MaxDP=2.19D-04 DE=-8.28D-06 OVMax= 3.66D-04

 Cycle   5  Pass 1  IDiag  1:
 E= -115.062433480043     Delta-E=       -0.000000833299 Rises=F Damp=F
 DIIS: error= 1.35D-05 at cycle   5 NSaved=   5.
 NSaved= 5 IEnMin= 5 EnMin= -115.062433480043     IErMin= 5 ErrMin= 1.35D-05
 ErrMax= 1.35D-05 EMaxC= 1.00D-01 BMatC= 1.10D-08 BMatP= 7.39D-07
 IDIUse=1 WtCom= 1.00D+00 WtEn= 0.00D+00
 Coeff-Com:  0.106D-02-0.764D-03-0.381D-01 0.460D-02 0.103D+01
 Coeff:      0.106D-02-0.764D-03-0.381D-01 0.460D-02 0.103D+01
 Gap=     0.597 Goal=   None    Shift=    0.000
 RMSDP=6.15D-06 MaxDP=4.87D-05 DE=-8.33D-07 OVMax= 7.79D-05

 Cycle   6  Pass 1  IDiag  1:
 E= -115.062433502283     Delta-E=       -0.000000022240 Rises=F Damp=F
 DIIS: error= 4.93D-06 at cycle   6 NSaved=   6.
 NSaved= 6 IEnMin= 6 EnMin= -115.062433502283     IErMin= 6 ErrMin= 4.93D-06
 ErrMax= 4.93D-06 EMaxC= 1.00D-01 BMatC= 8.15D-10 BMatP= 1.10D-08
 IDIUse=1 WtCom= 1.00D+00 WtEn= 0.00D+00
 Coeff-Com: -0.146D-02 0.803D-02-0.204D-01-0.471D-01 0.105D+00 0.956D+00
 Coeff:     -0.146D-02 0.803D-02-0.204D-01-0.471D-01 0.105D+00 0.956D+00
 Gap=     0.597 Goal=   None    Shift=    0.000
 RMSDP=1.26D-06 MaxDP=9.09D-06 DE=-2.22D-08 OVMax= 1.90D-05

 Cycle   7  Pass 1  IDiag  1:
 E= -115.062433503696     Delta-E=       -0.000000001413 Rises=F Damp=F
 DIIS: error= 1.82D-06 at cycle   7 NSaved=   7.
 NSaved= 7 IEnMin= 7 EnMin= -115.062433503696     IErMin= 7 ErrMin= 1.82D-06
 ErrMax= 1.82D-06 EMaxC= 1.00D-01 BMatC= 5.94D-11 BMatP= 8.15D-10
 IDIUse=1 WtCom= 1.00D+00 WtEn= 0.00D+00
 Coeff-Com:  0.569D-04-0.534D-03 0.377D-02 0.264D-02-0.708D-01-0.379D-01
 Coeff-Com:  0.110D+01
 Coeff:      0.569D-04-0.534D-03 0.377D-02 0.264D-02-0.708D-01-0.379D-01
 Coeff:      0.110D+01
 Gap=     0.597 Goal=   None    Shift=    0.000
 RMSDP=2.90D-07 MaxDP=2.22D-06 DE=-1.41D-09 OVMax= 5.88D-06

 Cycle   8  Pass 1  IDiag  1:
 E= -115.062433503839     Delta-E=       -0.000000000143 Rises=F Damp=F
 DIIS: error= 5.92D-07 at cycle   8 NSaved=   8.
 NSaved= 8 IEnMin= 8 EnMin= -115.062433503839     IErMin= 8 ErrMin= 5.92D-07
 ErrMax= 5.92D-07 EMaxC= 1.00D-01 BMatC= 6.15D-12 BMatP= 5.94D-11
 IDIUse=1 WtCom= 1.00D+00 WtEn= 0.00D+00
 Coeff-Com:  0.141D-03-0.728D-03 0.134D-02 0.425D-02 0.652D-02-0.935D-01
 Coeff-Com: -0.260D+00 0.134D+01
 Coeff:      0.141D-03-0.728D-03 0.134D-02 0.425D-02 0.652D-02-0.935D-01
 Coeff:     -0.260D+00 0.134D+01
 Gap=     0.597 Goal=   None    Shift=    0.000
 RMSDP=1.29D-07 MaxDP=1.11D-06 DE=-1.43D-10 OVMax= 2.66D-06

 Cycle   9  Pass 1  IDiag  1:
 E= -115.062433503857     Delta-E=       -0.000000000018 Rises=F Damp=F
 DIIS: error= 9.63D-08 at cycle   9 NSaved=   9.
 NSaved= 9 IEnMin= 9 EnMin= -115.062433503857     IErMin= 9 ErrMin= 9.63D-08
 ErrMax= 9.63D-08 EMaxC= 1.00D-01 BMatC= 1.62D-13 BMatP= 6.15D-12
 IDIUse=1 WtCom= 1.00D+00 WtEn= 0.00D+00
 Coeff-Com: -0.280D-04 0.154D-03-0.394D-03-0.897D-03 0.172D-02 0.191D-01
 Coeff-Com:  0.103D-01-0.269D+00 0.124D+01
 Coeff:     -0.280D-04 0.154D-03-0.394D-03-0.897D-03 0.172D-02 0.191D-01
 Coeff:      0.103D-01-0.269D+00 0.124D+01
 Gap=     0.597 Goal=   None    Shift=    0.000
 RMSDP=2.08D-08 MaxDP=1.76D-07 DE=-1.78D-11 OVMax= 4.54D-07

 Cycle  10  Pass 1  IDiag  1:
 E= -115.062433503858     Delta-E=       -0.000000000001 Rises=F Damp=F
 DIIS: error= 2.08D-08 at cycle  10 NSaved=  10.
 NSaved=10 IEnMin=10 EnMin= -115.062433503858     IErMin=10 ErrMin= 2.08D-08
 ErrMax= 2.08D-08 EMaxC= 1.00D-01 BMatC= 7.16D-15 BMatP= 1.62D-13
 IDIUse=1 WtCom= 1.00D+00 WtEn= 0.00D+00
 Coeff-Com:  0.598D-06-0.524D-05 0.339D-04 0.209D-04-0.645D-03-0.588D-03
 Coeff-Com:  0.739D-02 0.799D-02-0.293D+00 0.128D+01
 Coeff:      0.598D-06-0.524D-05 0.339D-04 0.209D-04-0.645D-03-0.588D-03
 Coeff:      0.739D-02 0.799D-02-0.293D+00 0.128D+01
 Gap=     0.597 Goal=   None    Shift=    0.000
 RMSDP=4.47D-09 MaxDP=3.83D-08 DE=-7.67D-13 OVMax= 9.65D-08

 SCF Done:  E(RHF) =  -115.062433504     A.U. after   10 cycles
             Convg  =    0.4470D-08             -V/T =  1.9990
 KE= 1.151755650405D+02 PE=-3.530945244856D+02 EE= 8.200400182666D+01
 Leave Link  502 at Sun Dec 29 12:26:01 2019, MaxMem=   91750400 cpu:       0.2
 (Enter /opt/g09gh/gaussian/g09/l701.exe)
 Compute integral first derivatives.
 ... and contract with generalized density number  0.
 Leave Link  701 at Sun Dec 29 12:26:01 2019, MaxMem=   91750400 cpu:       0.1
 (Enter /opt/g09gh/gaussian/g09/l702.exe)
 L702 exits ... SP integral derivatives will be done elsewhere.
 Leave Link  702 at Sun Dec 29 12:26:01 2019, MaxMem=   91750400 cpu:       0.0
 (Enter /opt/g09gh/gaussian/g09/l703.exe)
 Compute integral first derivatives, UseDBF=F ICtDFT=           0.
 Integral derivatives from FoFDir, PRISM(SPDF).
 Calling FoFJK, ICntrl=      2127 FMM=F ISym2X=0 I1Cent= 0 IOpClX= 0 NMat=1 NMatS=1 NMatT=0.
 FoFCou: FMM=F IPFlag=           0 FMFlag=      100000 FMFlg1=         800
         NFxFlg=           0 DoJE=F BraDBF=F KetDBF=F FulRan=T
         Omega=  0.000000  0.000000  1.000000  0.000000  0.000000 ICntrl=    2127 IOpCl=  0
         NMat0=    1 NMatS0=    1 NMatT0=    0 NMatD0=    1 NMtDS0=    0 NMtDT0=    0
         I1Cent=           0 NGrid=           0.
 Symmetry not used in FoFCou.
 Leave Link  703 at Sun Dec 29 12:26:01 2019, MaxMem=   91750400 cpu:       0.3
 (Enter /opt/g09gh/gaussian/g09/l716.exe)
 Dipole        = 3.44684779D-01 6.95147403D-01-1.61186274D-02
 ***** Axes restored to original set *****
 -------------------------------------------------------------------
 Center     Atomic                   Forces (Hartrees/Bohr)
 Number     Number              X              Y              Z
 -------------------------------------------------------------------
      1        8          -0.001088816    0.003476965   -0.003460081
      2        6           0.001916653   -0.000396974    0.000896323
      3        1          -0.000759118   -0.000765879   -0.000897100
      4        1          -0.000191740    0.001027371    0.000086514
      5        1          -0.001230049   -0.000295367    0.001052731
      6        1           0.001353070   -0.003046116    0.002321614
 -------------------------------------------------------------------
 Cartesian Forces:  Max     0.003476965 RMS     0.001702235
 Leave Link  716 at Sun Dec 29 12:26:01 2019, MaxMem=   91750400 cpu:       0.1
 (Enter /opt/g09gh/gaussian/g09/l103.exe)

 GradGradGradGradGradGradGradGradGradGradGradGradGradGradGradGradGradGrad
 Berny optimization.
 Using GEDIIS/GDIIS optimizer.
 Internal  Forces:  Max     0.003541820 RMS     0.001242264
 Search for a local minimum.
 Step number   3 out of a maximum of  100
 All quantities printed in internal units (Hartrees-Bohrs-Radians)
 RMS Force = .12423D-02 SwitMx=.10000D-02 MixMth= 1
 Mixed Optimization -- RFO/linear search
 Update second derivatives using D2CorX and points    1    2    3
 DE= -4.52D-04 DEPred=-3.31D-04 R= 1.37D+00
 SS=  1.41D+00  RLast= 1.54D-01 DXNew= 8.4853D-01 4.6050D-01
 Trust test= 1.37D+00 RLast= 1.54D-01 DXMaxT set to 5.05D-01
 The second derivative matrix:
                          R1        R2        R3        R4        R5
           R1           0.51075
           R2           0.04903   0.58526
           R3           0.00944   0.01282   0.34530
           R4          -0.00756   0.00955   0.00299   0.34808
           R5           0.02035   0.01631   0.00217   0.00208   0.34622
           A1           0.00017  -0.01394  -0.00437  -0.00388  -0.00443
           A2           0.03391  -0.00040  -0.00325  -0.00565  -0.00058
           A3          -0.03555  -0.01528  -0.00131   0.00151  -0.00411
           A4           0.05784   0.01245  -0.00263  -0.00505   0.00138
           A5          -0.01312  -0.00300   0.00135   0.00054   0.00082
           A6          -0.02930   0.00395   0.00396   0.00571   0.00173
           A7          -0.01805  -0.00406   0.00068   0.00163  -0.00063
           D1          -0.03718   0.00762   0.00612   0.00762   0.00348
           D2          -0.02726  -0.01485  -0.00050  -0.00095  -0.00190
           D3           0.00409  -0.01018  -0.00229  -0.00438  -0.00141
                          A1        A2        A3        A4        A5
           A1           0.16346
           A2           0.00210   0.16884
           A3           0.00169  -0.00666   0.16795
           A4          -0.00127   0.00947  -0.01033   0.17072
           A5           0.00112   0.00001  -0.00005   0.00206   0.15656
           A6          -0.00219  -0.00753   0.00626  -0.00770   0.00108
           A7           0.00024  -0.00330   0.00326  -0.00385  -0.00067
           D1          -0.00268  -0.00864   0.00781  -0.00797   0.00162
           D2           0.00423   0.00011   0.00364   0.00001  -0.00298
           D3           0.00409   0.00603  -0.00310   0.00725  -0.00353
                          A6        A7        D1        D2        D3
           A6           0.16461
           A7           0.00304   0.16130
           D1           0.00362   0.00358   0.01277
           D2          -0.00055   0.00020  -0.00178   0.01160
           D3          -0.00402  -0.00256  -0.00422  -0.00148   0.01343
 Use linear search instead of GDIIS.
     Eigenvalues ---    0.00477   0.10206   0.10420   0.15758   0.16000
     Eigenvalues ---    0.16401   0.17417   0.34206   0.34324   0.35082
     Eigenvalues ---    0.50594   0.620801000.000001000.000001000.00000
 RFO step:  Lambda=-5.04140299D-04 EMin= 4.76759547D-03
 Quartic linear search produced a step of  0.58854.
 Iteration  1 RMS(Cart)=  0.05439632 RMS(Int)=  0.00566000
 Iteration  2 RMS(Cart)=  0.00487059 RMS(Int)=  0.00004181
 Iteration  3 RMS(Cart)=  0.00003641 RMS(Int)=  0.00003297
 Iteration  4 RMS(Cart)=  0.00000000 RMS(Int)=  0.00003297
 Variable       Old X    -DE/DX   Delta X   Delta X   Delta X     New X
                                 (Linear)    (Quad)   (Total)
    R1        2.64624   0.00035  -0.01772  -0.00786  -0.02558   2.62066
    R2        1.76649   0.00354  -0.00175   0.00379   0.00204   1.76853
    R3        2.04982   0.00121   0.00204   0.00433   0.00637   2.05619
    R4        2.04139   0.00075   0.00178   0.00157   0.00335   2.04474
    R5        2.04881   0.00135   0.00091   0.00455   0.00546   2.05427
    A1        1.93117  -0.00047   0.00226   0.00193   0.00418   1.93535
    A2        1.95407   0.00040  -0.00354   0.00788   0.00430   1.95838
    A3        1.88891  -0.00061   0.00645  -0.00594   0.00049   1.88940
    A4        1.93551   0.00128  -0.00152   0.01690   0.01532   1.95083
    A5        1.88908  -0.00014  -0.00269  -0.00818  -0.01088   1.87819
    A6        1.89591  -0.00045   0.00000  -0.00394  -0.00401   1.89190
    A7        1.89913  -0.00054   0.00142  -0.00774  -0.00636   1.89277
    D1       -0.49689  -0.00140  -0.05007  -0.14974  -0.19986  -0.69675
    D2       -2.57750  -0.00107  -0.04881  -0.14054  -0.18933  -2.76682
    D3        1.62381  -0.00079  -0.05363  -0.13738  -0.19098   1.43283
         Item               Value     Threshold  Converged?
 Maximum Force            0.003542     0.000450     NO 
 RMS     Force            0.001242     0.000300     NO 
 Maximum Displacement     0.137972     0.001800     NO 
 RMS     Displacement     0.054362     0.001200     NO 
 Predicted change in Energy=-3.809466D-04
 GradGradGradGradGradGradGradGradGradGradGradGradGradGradGradGradGradGrad

 Leave Link  103 at Sun Dec 29 12:26:01 2019, MaxMem=   91750400 cpu:       0.0
 (Enter /opt/g09gh/gaussian/g09/l202.exe)
                          Input orientation:                          
 ---------------------------------------------------------------------
 Center     Atomic      Atomic             Coordinates (Angstroms)
 Number     Number       Type             X           Y           Z
 ---------------------------------------------------------------------
      1          8           0        0.721195    0.078003   -0.114175
      2          6           0       -0.657194   -0.024545   -0.001364
      3          1           0       -1.029322   -0.981161   -0.362395
      4          1           0       -1.105556    0.751203   -0.607974
      5          1           0       -0.988652    0.107081    1.025542
      6          1           0        1.135435   -0.730597    0.110361
 ---------------------------------------------------------------------
                    Distance matrix (angstroms):
                    1          2          3          4          5
     1  O    0.000000
     2  C    1.386795   0.000000
     3  H    2.061008   1.088088   0.000000
     4  H    2.008496   1.082030   1.751344   0.000000
     5  H    2.055086   1.087073   1.764169   1.759811   0.000000
     6  H    0.935866   1.929899   2.229900   2.780967   2.459879
                    6
     6  H    0.000000
 Stoichiometry    CH4O
 Framework group  C1[X(CH4O)]
 Deg. of freedom    12
 Full point group                 C1      NOp   1
 Largest Abelian subgroup         C1      NOp   1
 Largest concise Abelian subgroup C1      NOp   1
                         Standard orientation:                         
 ---------------------------------------------------------------------
 Center     Atomic      Atomic             Coordinates (Angstroms)
 Number     Number       Type             X           Y           Z
 ---------------------------------------------------------------------
      1          8           0       -0.730557   -0.120179    0.000827
      2          6           0        0.649204    0.019313    0.001593
      3          1           0        0.980968    0.829748   -0.644212
      4          1           0        1.082792   -0.897769   -0.374907
      5          1           0        1.035952    0.197394    1.001813
      6          1           0       -1.150484    0.716186    0.001133
 ---------------------------------------------------------------------
 Rotational constants (GHZ):    132.4892961     25.7200197     24.8699390
 Leave Link  202 at Sun Dec 29 12:26:01 2019, MaxMem=   91750400 cpu:       0.0
 (Enter /opt/g09gh/gaussian/g09/l301.exe)
 Standard basis: 6-311G(d) (5D, 7F)
 Ernie: Thresh=  0.10000D-02 Tol=  0.10000D-05 Strict=F.
 There are    48 symmetry adapted basis functions of A   symmetry.
 Integral buffers will be    131072 words long.
 Raffenetti 1 integral format.
 Two-electron integral symmetry is turned on.
    48 basis functions,    84 primitive gaussians,    50 cartesian basis functions
     9 alpha electrons        9 beta electrons
       nuclear repulsion energy        41.0251399286 Hartrees.
 IExCor=    0 DFT=F Ex=HF Corr=None ExCW=0 ScaHFX=  1.000000
 ScaDFX=  1.000000  1.000000  1.000000  1.000000 ScalE2=  1.000000  1.000000
 IRadAn=      0 IRanWt=     -1 IRanGd=            0 ICorTp=0
 NAtoms=    6 NActive=    6 NUniq=    6 SFac= 7.50D-01 NAtFMM=   80 NAOKFM=F Big=F
 Leave Link  301 at Sun Dec 29 12:26:01 2019, MaxMem=   91750400 cpu:       0.0
 (Enter /opt/g09gh/gaussian/g09/l302.exe)
 NPDir=0 NMtPBC=     1 NCelOv=     1 NCel=       1 NClECP=     1 NCelD=      1
         NCelK=      1 NCelE2=     1 NClLst=     1 CellRange=     0.0.
 One-electron integrals computed using PRISM.
 NBasis=    48 RedAO= T  NBF=    48
 NBsUse=    48 1.00D-06 NBFU=    48
 Leave Link  302 at Sun Dec 29 12:26:01 2019, MaxMem=   91750400 cpu:       0.1
 (Enter /opt/g09gh/gaussian/g09/l303.exe)
 DipDrv:  MaxL=1.
 Leave Link  303 at Sun Dec 29 12:26:02 2019, MaxMem=   91750400 cpu:       0.0
 (Enter /opt/g09gh/gaussian/g09/l401.exe)
 Initial guess read from the read-write file.
 B after Tr=     0.000000    0.000000    0.000000
         Rot=    1.000000    0.000000    0.000000    0.000000 Ang=   0.00 deg.
 Guess basis will be translated and rotated to current coordinates.
 Initial guess orbital symmetries:
       Occupied  (A) (A) (A) (A) (A) (A) (A) (A) (A)
       Virtual   (A) (A) (A) (A) (A) (A) (A) (A) (A) (A) (A) (A)
                 (A) (A) (A) (A) (A) (A) (A) (A) (A) (A) (A) (A)
                 (A) (A) (A) (A) (A) (A) (A) (A) (A) (A) (A) (A)
                 (A) (A) (A)
 The electronic state of the initial guess is 1-A.
 Generating alternative initial guess.
 Harris functional with IExCor=  205 diagonalized for initial guess.
 ExpMin= 1.03D-01 ExpMax= 8.59D+03 ExpMxC= 1.30D+03 IAcc=1 IRadAn=         1 AccDes= 0.00D+00
 HarFok:  IExCor=  205 AccDes= 0.00D+00 IRadAn=         1 IDoV= 1
 ScaDFX=  1.000000  1.000000  1.000000  1.000000
 FoFCou: FMM=F IPFlag=           0 FMFlag=      100000 FMFlg1=           0
         NFxFlg=           0 DoJE=T BraDBF=F KetDBF=T FulRan=T
         Omega=  0.000000  0.000000  1.000000  0.000000  0.000000 ICntrl=     500 IOpCl=  0
         NMat0=    1 NMatS0=    1 NMatT0=    0 NMatD0=    1 NMtDS0=    0 NMtDT0=    0
         I1Cent=           4 NGrid=           0.
 Petite list used in FoFCou.
 Harris En= -115.248840973898    
 Leave Link  401 at Sun Dec 29 12:26:02 2019, MaxMem=   91750400 cpu:       0.3
 (Enter /opt/g09gh/gaussian/g09/l502.exe)
 Closed shell SCF:
 Requested convergence on RMS density matrix=1.00D-08 within 128 cycles.
 Requested convergence on MAX density matrix=1.00D-06.
 Requested convergence on             energy=1.00D-06.
 No special actions if energy rises.
 Using DIIS extrapolation, IDIIS=  1040.
 Integral symmetry usage will be decided dynamically.
 Keep R1 ints in memory in canonical form, NReq=1659792.
 IEnd=       26328 IEndB=       26328 NGot=    91750400 MDV=    90929785
 LenX=    90929785 LenY=    90926844
 Symmetry not used in FoFDir.
 MinBra= 0 MaxBra= 2 Meth= 1.
 IRaf=       0 NMat=   1 IRICut=       1 DoRegI=T DoRafI=F ISym2E= 0 JSym2E=0.

 Cycle   1  Pass 1  IDiag  1:
 E= -115.052865141200    
 DIIS: error= 1.43D-02 at cycle   1 NSaved=   1.
 NSaved= 1 IEnMin= 1 EnMin= -115.052865141200     IErMin= 1 ErrMin= 1.43D-02
 ErrMax= 1.43D-02 EMaxC= 1.00D-01 BMatC= 5.46D-03 BMatP= 5.46D-03
 IDIUse=3 WtCom= 8.57D-01 WtEn= 1.43D-01
 Coeff-Com:  0.100D+01
 Coeff-En:   0.100D+01
 Coeff:      0.100D+01
 Recover alternate guess density for next cycle.
 RMSDP=4.65D-03 MaxDP=5.08D-02              OVMax= 0.00D+00

 Cycle   2  Pass 1  IDiag  1:
 E= -114.935198272531     Delta-E=        0.117666868669 Rises=F Damp=F
 Switch densities from cycles 1 and 2 for lowest energy.
 DIIS: error= 5.94D-02 at cycle   2 NSaved=   2.
 NSaved= 2 IEnMin= 1 EnMin= -115.052865141200     IErMin= 1 ErrMin= 1.43D-02
 ErrMax= 5.94D-02 EMaxC= 1.00D+00 BMatC= 2.63D-01 BMatP= 5.46D-03
 IDIUse=1 WtCom= 1.00D+00 WtEn= 0.00D+00
 Coeff-Com:  0.979D+00 0.213D-01
 Coeff:      0.979D+00 0.213D-01
 Gap=     0.640 Goal=   None    Shift=    0.000
 RMSDP=9.31D-04 MaxDP=8.61D-03 DE= 1.18D-01 OVMax= 8.41D-02

 Cycle   3  Pass 1  IDiag  1:
 E= -115.061763395249     Delta-E=       -0.126565122717 Rises=F Damp=F
 DIIS: error= 4.66D-03 at cycle   3 NSaved=   3.
 NSaved= 3 IEnMin= 3 EnMin= -115.061763395249     IErMin= 3 ErrMin= 4.66D-03
 ErrMax= 4.66D-03 EMaxC= 1.00D+00 BMatC= 5.05D-04 BMatP= 5.46D-03
 IDIUse=1 WtCom= 1.00D+00 WtEn= 0.00D+00
 Coeff-Com: -0.355D+00 0.572D-02 0.135D+01
 Coeff:     -0.355D+00 0.572D-02 0.135D+01
[...]
 Gap=     0.600 Goal=   None    Shift=    0.000
 RMSDP=1.04D-06 MaxDP=1.02D-05 DE=-4.09D-08 OVMax= 2.10D-05

 Cycle   4  Pass 1  IDiag  1:
 E= -115.063728430643     Delta-E=       -0.000000003962 Rises=F Damp=F
 DIIS: error= 2.73D-06 at cycle   4 NSaved=   4.
 NSaved= 4 IEnMin= 4 EnMin= -115.063728430643     IErMin= 4 ErrMin= 2.73D-06
 ErrMax= 2.73D-06 EMaxC= 1.00D-01 BMatC= 2.18D-10 BMatP= 3.12D-09
 IDIUse=1 WtCom= 1.00D+00 WtEn= 0.00D+00
 Coeff-Com:  0.415D-02-0.722D-01 0.615D-01 0.101D+01
 Coeff:      0.415D-02-0.722D-01 0.615D-01 0.101D+01
 Gap=     0.600 Goal=   None    Shift=    0.000
 RMSDP=4.55D-07 MaxDP=4.53D-06 DE=-3.96D-09 OVMax= 1.03D-05

 Cycle   5  Pass 1  IDiag  1:
 E= -115.063728431048     Delta-E=       -0.000000000405 Rises=F Damp=F
 DIIS: error= 7.18D-07 at cycle   5 NSaved=   5.
 NSaved= 5 IEnMin= 5 EnMin= -115.063728431048     IErMin= 5 ErrMin= 7.18D-07
 ErrMax= 7.18D-07 EMaxC= 1.00D-01 BMatC= 2.18D-11 BMatP= 2.18D-10
 IDIUse=1 WtCom= 1.00D+00 WtEn= 0.00D+00
 Coeff-Com:  0.531D-02-0.226D-01-0.578D-01 0.149D+00 0.926D+00
 Coeff:      0.531D-02-0.226D-01-0.578D-01 0.149D+00 0.926D+00
 Gap=     0.600 Goal=   None    Shift=    0.000
 RMSDP=1.32D-07 MaxDP=1.16D-06 DE=-4.05D-10 OVMax= 2.98D-06

 Cycle   6  Pass 1  IDiag  1:
 E= -115.063728431085     Delta-E=       -0.000000000036 Rises=F Damp=F
 DIIS: error= 2.03D-07 at cycle   6 NSaved=   6.
 NSaved= 6 IEnMin= 6 EnMin= -115.063728431085     IErMin= 6 ErrMin= 2.03D-07
 ErrMax= 2.03D-07 EMaxC= 1.00D-01 BMatC= 1.80D-12 BMatP= 2.18D-11
 IDIUse=1 WtCom= 1.00D+00 WtEn= 0.00D+00
 Coeff-Com: -0.264D-03 0.616D-02-0.105D-01-0.890D-01 0.620D-01 0.103D+01
 Coeff:     -0.264D-03 0.616D-02-0.105D-01-0.890D-01 0.620D-01 0.103D+01
 Gap=     0.600 Goal=   None    Shift=    0.000
 RMSDP=5.04D-08 MaxDP=4.16D-07 DE=-3.63D-11 OVMax= 1.35D-06

 Cycle   7  Pass 1  IDiag  1:
 E= -115.063728431089     Delta-E=       -0.000000000004 Rises=F Damp=F
 DIIS: error= 5.05D-08 at cycle   7 NSaved=   7.
 NSaved= 7 IEnMin= 7 EnMin= -115.063728431089     IErMin= 7 ErrMin= 5.05D-08
 ErrMax= 5.05D-08 EMaxC= 1.00D-01 BMatC= 1.18D-13 BMatP= 1.80D-12
 IDIUse=1 WtCom= 1.00D+00 WtEn= 0.00D+00
 Coeff-Com: -0.374D-03 0.844D-03 0.612D-02 0.299D-02-0.929D-01-0.148D+00
 Coeff-Com:  0.123D+01
 Coeff:     -0.374D-03 0.844D-03 0.612D-02 0.299D-02-0.929D-01-0.148D+00
 Coeff:      0.123D+01
 Gap=     0.600 Goal=   None    Shift=    0.000
 RMSDP=1.57D-08 MaxDP=1.03D-07 DE=-4.09D-12 OVMax= 3.81D-07

 Cycle   8  Pass 1  IDiag  1:
 E= -115.063728431089     Delta-E=        0.000000000000 Rises=F Damp=F
 DIIS: error= 9.39D-09 at cycle   8 NSaved=   8.
 NSaved= 8 IEnMin= 8 EnMin= -115.063728431089     IErMin= 8 ErrMin= 9.39D-09
 ErrMax= 9.39D-09 EMaxC= 1.00D-01 BMatC= 4.69D-15 BMatP= 1.18D-13
 IDIUse=1 WtCom= 1.00D+00 WtEn= 0.00D+00
 Coeff-Com:  0.972D-04-0.429D-03-0.104D-02 0.307D-02 0.216D-01-0.451D-02
 Coeff-Com: -0.331D+00 0.131D+01
 Coeff:      0.972D-04-0.429D-03-0.104D-02 0.307D-02 0.216D-01-0.451D-02
 Coeff:     -0.331D+00 0.131D+01
 Gap=     0.600 Goal=   None    Shift=    0.000
 RMSDP=3.20D-09 MaxDP=2.24D-08 DE=-4.55D-13 OVMax= 5.90D-08

 SCF Done:  E(RHF) =  -115.063728431     A.U. after    8 cycles
             Convg  =    0.3204D-08             -V/T =  1.9991
 KE= 1.151618010613D+02 PE=-3.530747174909D+02 EE= 8.199757197292D+01
 Leave Link  502 at Sun Dec 29 12:26:09 2019, MaxMem=   91750400 cpu:       0.1
 (Enter /opt/g09gh/gaussian/g09/l701.exe)
 Compute integral first derivatives.
 ... and contract with generalized density number  0.
 Leave Link  701 at Sun Dec 29 12:26:09 2019, MaxMem=   91750400 cpu:       0.1
 (Enter /opt/g09gh/gaussian/g09/l702.exe)
 L702 exits ... SP integral derivatives will be done elsewhere.
 Leave Link  702 at Sun Dec 29 12:26:09 2019, MaxMem=   91750400 cpu:       0.0
 (Enter /opt/g09gh/gaussian/g09/l703.exe)
 Compute integral first derivatives, UseDBF=F ICtDFT=           0.
 Integral derivatives from FoFDir, PRISM(SPDF).
 Calling FoFJK, ICntrl=      2127 FMM=F ISym2X=0 I1Cent= 0 IOpClX= 0 NMat=1 NMatS=1 NMatT=0.
 FoFCou: FMM=F IPFlag=           0 FMFlag=      100000 FMFlg1=         800
         NFxFlg=           0 DoJE=F BraDBF=F KetDBF=F FulRan=T
         Omega=  0.000000  0.000000  1.000000  0.000000  0.000000 ICntrl=    2127 IOpCl=  0
         NMat0=    1 NMatS0=    1 NMatT0=    0 NMatD0=    1 NMtDS0=    0 NMtDT0=    0
         I1Cent=           0 NGrid=           0.
 Symmetry not used in FoFCou.
 Leave Link  703 at Sun Dec 29 12:26:09 2019, MaxMem=   91750400 cpu:       0.3
 (Enter /opt/g09gh/gaussian/g09/l716.exe)
 Dipole        = 3.48401494D-01-6.71598945D-01-6.78434960D-05
 ***** Axes restored to original set *****
 -------------------------------------------------------------------
 Center     Atomic                   Forces (Hartrees/Bohr)
 Number     Number              X              Y              Z
 -------------------------------------------------------------------
      1        8          -0.000064355   -0.000021576    0.000024624
      2        6           0.000074228    0.000034553   -0.000013957
      3        1          -0.000001849   -0.000005342   -0.000002123
      4        1          -0.000019480   -0.000003599   -0.000002986
      5        1          -0.000001824   -0.000002940    0.000000188
      6        1           0.000013279   -0.000001096   -0.000005747
 -------------------------------------------------------------------
 Cartesian Forces:  Max     0.000074228 RMS     0.000026638
 Leave Link  716 at Sun Dec 29 12:26:09 2019, MaxMem=   91750400 cpu:       0.0
 (Enter /opt/g09gh/gaussian/g09/l103.exe)

 GradGradGradGradGradGradGradGradGradGradGradGradGradGradGradGradGradGrad
 Berny optimization.
 Using GEDIIS/GDIIS optimizer.
 Internal  Forces:  Max     0.000054309 RMS     0.000017807
 Search for a local minimum.
 Step number   9 out of a maximum of  100
 All quantities printed in internal units (Hartrees-Bohrs-Radians)
 RMS Force = .17807D-04 SwitMx=.10000D-02 MixMth= 2
 Mixed Optimization -- En-DIIS/RFO-DIIS
 Swaping is turned off.
 Update second derivatives using D2CorX and points    5    6    7    8    9
 DE= -7.17D-07 DEPred=-7.52D-07 R= 9.54D-01
 Trust test= 9.54D-01 RLast= 2.75D-03 DXMaxT set to 1.26D+00
 The second derivative matrix:
                          R1        R2        R3        R4        R5
           R1           0.42299
           R2           0.00512   0.54643
           R3           0.01670   0.00718   0.34150
           R4           0.00723   0.00809  -0.00093   0.34661
           R5           0.01488   0.00580  -0.00097  -0.00135   0.34311
           A1           0.04433   0.00875  -0.00381   0.00429  -0.00361
           A2           0.03036  -0.00314  -0.00279  -0.00668   0.00001
           A3           0.02832   0.00618  -0.00561   0.00483  -0.00673
           A4           0.03067   0.00258  -0.00086  -0.00565   0.00236
           A5          -0.03734  -0.01675   0.00028  -0.00351  -0.00071
           A6          -0.02860   0.01109   0.00624   0.01023   0.00323
           A7          -0.02615  -0.00473   0.00186  -0.00041   0.00085
           D1           0.00892   0.02694   0.00560   0.01337   0.00345
           D2          -0.00945  -0.01056  -0.00261  -0.00302  -0.00225
           D3          -0.00019  -0.01728  -0.00355  -0.01137  -0.00116
                          A1        A2        A3        A4        A5
           A1           0.19175
           A2          -0.00034   0.17069
           A3           0.02687  -0.00907   0.18410
           A4          -0.00437   0.01135  -0.01166   0.17288
           A5          -0.01041   0.00129  -0.01180   0.00354   0.15919
           A6           0.00116  -0.01140   0.01637  -0.01419   0.00316
           A7          -0.01182  -0.00192  -0.00816  -0.00119   0.00379
           D1           0.01374  -0.01345   0.02792  -0.01662  -0.00013
           D2           0.00058   0.00080  -0.00283   0.00228  -0.00050
           D3          -0.01363   0.01161  -0.02600   0.01612   0.00141
                          A6        A7        D1        D2        D3
           A6           0.16240
           A7           0.00351   0.16361
           D1           0.00380  -0.00169   0.02144
           D2           0.00058  -0.00021  -0.00384   0.01032
           D3          -0.00296  -0.00040  -0.01249  -0.00260   0.01640
     Eigenvalues ---    0.00341   0.10407   0.10731   0.15306   0.16023
     Eigenvalues ---    0.17073   0.23280   0.33885   0.34331   0.34934
     Eigenvalues ---    0.45448   0.549151000.000001000.000001000.00000
 En-DIIS/RFO-DIIS IScMMF=        0 using points:     9    8    7
 RFO step:  Lambda= 0.00000000D+00.
 DIIS coeffs:      0.92362      0.05727      0.01912
 Iteration  1 RMS(Cart)=  0.00020541 RMS(Int)=  0.00000007
 Iteration  2 RMS(Cart)=  0.00000006 RMS(Int)=  0.00000001
 Variable       Old X    -DE/DX   Delta X   Delta X   Delta X     New X
                                  (DIIS)     (GDIIS)  (Total)
    R1        2.64193  -0.00005  -0.00004  -0.00013  -0.00017   2.64176
    R2        1.77424   0.00000   0.00002  -0.00002   0.00000   1.77424
    R3        2.05466   0.00001   0.00003   0.00001   0.00003   2.05469
    R4        2.04143   0.00001   0.00002   0.00000   0.00002   2.04145
    R5        2.05468   0.00000   0.00002   0.00000   0.00001   2.05469
    A1        1.92011   0.00002   0.00005   0.00008   0.00013   1.92023
    A2        1.95411  -0.00001  -0.00001   0.00000  -0.00001   1.95410
    A3        1.87158   0.00003   0.00010   0.00005   0.00015   1.87173
    A4        1.95408   0.00000  -0.00001   0.00005   0.00004   1.95412
    A5        1.89228  -0.00001  -0.00001  -0.00009  -0.00010   1.89218
    A6        1.89762   0.00000  -0.00004  -0.00003  -0.00007   1.89755
    A7        1.89219   0.00000  -0.00003   0.00001  -0.00002   1.89218
    D1       -1.06880   0.00001  -0.00026   0.00093   0.00067  -1.06814
    D2        3.14088   0.00001  -0.00031   0.00101   0.00070   3.14158
    D3        1.06750  -0.00001  -0.00033   0.00093   0.00060   1.06810
         Item               Value     Threshold  Converged?
 Maximum Force            0.000054     0.000450     YES
 RMS     Force            0.000018     0.000300     YES
 Maximum Displacement     0.000407     0.001800     YES
 RMS     Displacement     0.000205     0.001200     YES
 Predicted change in Energy=-1.189184D-08
 Optimization completed.
    -- Stationary point found.
                           ----------------------------
                           !   Optimized Parameters   !
                           ! (Angstroms and Degrees)  !
 --------------------------                            --------------------------
 ! Name  Definition              Value          Derivative Info.                !
 --------------------------------------------------------------------------------
 ! R1    R(1,2)                  1.398          -DE/DX =   -0.0001              !
 ! R2    R(1,6)                  0.9389         -DE/DX =    0.0                 !
 ! R3    R(2,3)                  1.0873         -DE/DX =    0.0                 !
 ! R4    R(2,4)                  1.0803         -DE/DX =    0.0                 !
 ! R5    R(2,5)                  1.0873         -DE/DX =    0.0                 !
 ! A1    A(2,1,6)              110.0139         -DE/DX =    0.0                 !
 ! A2    A(1,2,3)              111.9623         -DE/DX =    0.0                 !
 ! A3    A(1,2,4)              107.2334         -DE/DX =    0.0                 !
 ! A4    A(1,2,5)              111.9603         -DE/DX =    0.0                 !
 ! A5    A(3,2,4)              108.4197         -DE/DX =    0.0                 !
 ! A6    A(3,2,5)              108.7256         -DE/DX =    0.0                 !
 ! A7    A(4,2,5)              108.4148         -DE/DX =    0.0                 !
 ! D1    D(6,1,2,3)            -61.2379         -DE/DX =    0.0                 !
 ! D2    D(6,1,2,4)            179.959          -DE/DX =    0.0                 !
 ! D3    D(6,1,2,5)             61.163          -DE/DX =    0.0                 !
 --------------------------------------------------------------------------------
 GradGradGradGradGradGradGradGradGradGradGradGradGradGradGradGradGradGrad

 Largest change from initial coordinates is atom    3       1.496 Angstoms.
 Leave Link  103 at Sun Dec 29 12:26:09 2019, MaxMem=   91750400 cpu:       0.0
 (Enter /opt/g09gh/gaussian/g09/l202.exe)
                          Input orientation:                          
 ---------------------------------------------------------------------
 Center     Atomic      Atomic             Coordinates (Angstroms)
 Number     Number       Type             X           Y           Z
 ---------------------------------------------------------------------
      1          8           0        0.717524    0.030540   -0.222521
      2          6           0       -0.664563   -0.039338   -0.023810
      3          1           0       -1.082329   -0.971468   -0.396340
      4          1           0       -1.108670    0.777616   -0.573680
      5          1           0       -0.930493    0.067845    1.024994
      6          1           0        1.144438   -0.665212    0.241353
 ---------------------------------------------------------------------
                    Distance matrix (angstroms):
                    1          2          3          4          5
     1  O    0.000000
     2  C    1.398047   0.000000
     3  H    2.067294   1.087277   0.000000
     4  H    2.004101   1.080278   1.758248   0.000000
     5  H    2.067280   1.087289   1.767319   1.758203   0.000000
     6  H    0.938885   1.932490   2.336437   2.796878   2.335980
                    6
     6  H    0.000000
 Stoichiometry    CH4O
 Framework group  C1[X(CH4O)]
 Deg. of freedom    12
 Full point group                 C1      NOp   1
 Largest Abelian subgroup         C1      NOp   1
 Largest concise Abelian subgroup C1      NOp   1
                         Standard orientation:                         
 ---------------------------------------------------------------------
 Center     Atomic      Atomic             Coordinates (Angstroms)
 Number     Number       Type             X           Y           Z
 ---------------------------------------------------------------------
      1          8           0       -0.735893    0.119496    0.000009
      2          6           0        0.655213   -0.019640    0.000009
      3          1           0        1.011539   -0.542946    0.883951
      4          1           0        1.076356    0.975166   -0.000679
      5          1           0        1.011402   -0.544018   -0.883367
      6          1           0       -1.143427   -0.726330   -0.000034
 ---------------------------------------------------------------------
 Rotational constants (GHZ):    131.6762417     25.4592254     24.6037723
 Leave Link  202 at Sun Dec 29 12:26:09 2019, MaxMem=   91750400 cpu:       0.0
 (Enter /opt/g09gh/gaussian/g09/l601.exe)
 Copying SCF densities to generalized density rwf, IOpCl= 0 IROHF=0.

 **********************************************************************

            Population analysis using the SCF density.

 **********************************************************************

 Orbital symmetries:
       Occupied  (A) (A) (A) (A) (A) (A) (A) (A) (A)
       Virtual   (A) (A) (A) (A) (A) (A) (A) (A) (A) (A) (A) (A)
                 (A) (A) (A) (A) (A) (A) (A) (A) (A) (A) (A) (A)
                 (A) (A) (A) (A) (A) (A) (A) (A) (A) (A) (A) (A)
                 (A) (A) (A)
 The electronic state is 1-A.
 Alpha  occ. eigenvalues --  -20.54166 -11.26481  -1.36444  -0.92836  -0.69699
 Alpha  occ. eigenvalues --   -0.62229  -0.59731  -0.49811  -0.44493
 Alpha virt. eigenvalues --    0.15461   0.18912   0.22732   0.23398   0.34622
 Alpha virt. eigenvalues --    0.46133   0.48402   0.59619   0.70033   0.73724
 Alpha virt. eigenvalues --    0.79100   0.80580   0.94603   1.06462   1.07995
 Alpha virt. eigenvalues --    1.17524   1.54682   1.60220   1.69553   1.76419
 Alpha virt. eigenvalues --    1.77085   2.00234   2.36812   2.61912   2.70592
 Alpha virt. eigenvalues --    2.72487   3.16486   3.25764   3.37841   3.42114
 Alpha virt. eigenvalues --    3.51631   3.57719   3.82996   4.27330   5.38591
 Alpha virt. eigenvalues --    5.54227   5.93221  24.56793  51.52761
          Condensed to atoms (all electrons):
              1          2          3          4          5          6
     1  O    8.263058   0.217572  -0.034337  -0.028365  -0.034329   0.269345
     2  C    0.217572   4.979156   0.394311   0.391884   0.394318  -0.049605
     3  H   -0.034337   0.394311   0.538222  -0.032925  -0.040941  -0.004261
     4  H   -0.028365   0.391884  -0.032925   0.485561  -0.032920   0.007291
     5  H   -0.034329   0.394318  -0.040941  -0.032920   0.538237  -0.004275
     6  H    0.269345  -0.049605  -0.004261   0.007291  -0.004275   0.370239
 Mulliken atomic charges:
              1
     1  O   -0.652944
     2  C   -0.327636
     3  H    0.179931
     4  H    0.209473
     5  H    0.179910
     6  H    0.411266
 Sum of Mulliken atomic charges =   0.00000
 Mulliken charges with hydrogens summed into heavy atoms:
              1
     1  O   -0.241678
     2  C    0.241678
 Sum of Mulliken charges with hydrogens summed into heavy atoms =   0.00000
 Electronic spatial extent (au):  <R**2>=             82.6807
 Charge=              0.0000 electrons
 Dipole moment (field-independent basis, Debye):
    X=              0.8855    Y=             -1.7070    Z=             -0.0002  Tot=              1.9231
 Quadrupole moment (field-independent basis, Debye-Ang):
   XX=            -12.6398   YY=            -12.0941   ZZ=            -13.6206
   XY=              2.4349   XZ=              0.0000   YZ=             -0.0001
 Traceless Quadrupole moment (field-independent basis, Debye-Ang):
   XX=              0.1450   YY=              0.6907   ZZ=             -0.8357
   XY=              2.4349   XZ=              0.0000   YZ=             -0.0001
 Octapole moment (field-independent basis, Debye-Ang**2):
  XXX=             -4.4486  YYY=             -0.6271  ZZZ=              0.0007  XYY=             -1.7664
  XXY=             -2.5058  XXZ=             -0.0003  XZZ=             -0.5118  YZZ=             -0.6734
  YYZ=             -0.0010  XYZ=             -0.0003
 Hexadecapole moment (field-independent basis, Debye-Ang**3):
 XXXX=            -58.4062 YYYY=            -19.0656 ZZZZ=            -18.9897 XXXY=              4.0965
 XXXZ=              0.0000 YYYX=              2.9850 YYYZ=             -0.0002 ZZZX=              0.0010
 ZZZY=             -0.0001 XXYY=            -11.8877 XXZZ=            -13.5208 YYZZ=             -6.4466
 XXYZ=             -0.0003 YYXZ=             -0.0011 ZZXY=             -0.0525
 N-N= 4.085161602559D+01 E-N=-3.530747175182D+02  KE= 1.151618010613D+02
 No NMR shielding tensors so no spin-rotation constants.
 Leave Link  601 at Sun Dec 29 12:26:10 2019, MaxMem=   91750400 cpu:       0.1
 (Enter /opt/g09gh/gaussian/g09/l9999.exe)
 1\1\GINC-NODE36\FOpt\RHF\6-311G(d)\C1H4O1\BDW2292\29-Dec-2019\0\\#P op
 t=(,maxcycle=400) HF/6-311G* MaxDisk=100GB\\methanol Rotatable Bond Op
 timization on node36.bme.utexas.edu\\0,1\O,0.7175241589,0.0305399225,-
 0.2225213633\C,-0.6645634295,-0.0393380156,-0.0238102871\H,-1.08232883
 34,-0.9714676333,-0.3963399975\H,-1.1086703933,0.7776161558,-0.5736795
 498\H,-0.9304925376,0.0678450928,1.024993774\H,1.1444380351,-0.6652115
 222,0.2413534236\\Version=EM64L-G09RevA.02\State=1-A\HF=-115.0637284\R
 MSD=3.204e-09\RMSF=2.664e-05\Dipole=-0.3303229,-0.5318751,0.424764\Qua
 drupole=0.1922788,0.2094869,-0.4017658,-1.5029361,1.0135355,-0.4477844
 \PG=C01 [X(C1H4O1)]\\@


 OPTIMIST - A PESSIMIST WHO LACKS EXPERIENCE
 Job cpu time:  0 days  0 hours  0 minutes 11.7 seconds.
 File lengths (MBytes):  RWF=      5 Int=      0 D2E=      0 Chk=      1 Scr=      1
 Normal termination of Gaussian 09 at Sun Dec 29 12:26:10 2019.
