 Entering Gaussian System, Link 0=g09
 Input=methanol-opt-6-1-2-3-313.com
 Output=methanol-opt-6-1-2-3-313.log
 Initial command:
 /opt/g09gh/gaussian/g09/l1.exe /scratch/bdw2292/Gau-methanol/Gau-40303.inp -scrdir=/scratch/bdw2292/Gau-methanol/
 Entering Link 1 = /opt/g09gh/gaussian/g09/l1.exe PID=     40304.
  
 Copyright (c) 1988,1990,1992,1993,1995,1998,2003,2009, Gaussian, Inc.
                  All Rights Reserved.
  
 This is part of the Gaussian(R) 09 program.  It is based on
 the Gaussian(R) 03 system (copyright 2003, Gaussian, Inc.),
 the Gaussian(R) 98 system (copyright 1998, Gaussian, Inc.),
 the Gaussian(R) 94 system (copyright 1995, Gaussian, Inc.),
 the Gaussian 92(TM) system (copyright 1992, Gaussian, Inc.),
 the Gaussian 90(TM) system (copyright 1990, Gaussian, Inc.),
 the Gaussian 88(TM) system (copyright 1988, Gaussian, Inc.),
 the Gaussian 86(TM) system (copyright 1986, Carnegie Mellon
 University), and the Gaussian 82(TM) system (copyright 1983,
 Carnegie Mellon University). Gaussian is a federally registered
 trademark of Gaussian, Inc.
  
 This software contains proprietary and confidential information,
 including trade secrets, belonging to Gaussian, Inc.
  
 This software is provided under written license and may be
 used, copied, transmitted, or stored only in accord with that
 written license.
  
 The following legend is applicable only to US Government
 contracts under FAR:
  
                    RESTRICTED RIGHTS LEGEND
  
 Use, reproduction and disclosure by the US Government is
 subject to restrictions as set forth in subparagraphs (a)
 and (c) of the Commercial Computer Software - Restricted
 Rights clause in FAR 52.227-19.
  
 Gaussian, Inc.
 340 Quinnipiac St., Bldg. 40, Wallingford CT 06492
  
  
 ---------------------------------------------------------------
 Warning -- This program may not be used in any manner that
 competes with the business of Gaussian, Inc. or will provide
 assistance to any competitor of Gaussian, Inc.  The licensee
 of this program is prohibited from giving any competitor of
 Gaussian, Inc. access to this program.  By using this program,
 the user acknowledges that Gaussian, Inc. is engaged in the
 business of creating and licensing software in the field of
 computational chemistry and represents and warrants to the
 licensee that it is not a competitor of Gaussian, Inc. and that
 it will not use this program in any manner prohibited above.
 ---------------------------------------------------------------
  

 Cite this work as:
 Gaussian 09, Revision A.02,
 M. J. Frisch, G. W. Trucks, H. B. Schlegel, G. E. Scuseria, 
 M. A. Robb, J. R. Cheeseman, G. Scalmani, V. Barone, B. Mennucci, 
 G. A. Petersson, H. Nakatsuji, M. Caricato, X. Li, H. P. Hratchian, 
 A. F. Izmaylov, J. Bloino, G. Zheng, J. L. Sonnenberg, M. Hada, 
 M. Ehara, K. Toyota, R. Fukuda, J. Hasegawa, M. Ishida, T. Nakajima, 
 Y. Honda, O. Kitao, H. Nakai, T. Vreven, J. A. Montgomery, Jr., 
 J. E. Peralta, F. Ogliaro, M. Bearpark, J. J. Heyd, E. Brothers, 
 K. N. Kudin, V. N. Staroverov, R. Kobayashi, J. Normand, 
 K. Raghavachari, A. Rendell, J. C. Burant, S. S. Iyengar, J. Tomasi, 
 M. Cossi, N. Rega, J. M. Millam, M. Klene, J. E. Knox, J. B. Cross, 
 V. Bakken, C. Adamo, J. Jaramillo, R. Gomperts, R. E. Stratmann, 
 O. Yazyev, A. J. Austin, R. Cammi, C. Pomelli, J. W. Ochterski, 
 R. L. Martin, K. Morokuma, V. G. Zakrzewski, G. A. Voth, 
 P. Salvador, J. J. Dannenberg, S. Dapprich, A. D. Daniels, 
 O. Farkas, J. B. Foresman, J. V. Ortiz, J. Cioslowski, 
 and D. J. Fox, Gaussian, Inc., Wallingford CT, 2009.
 
 ******************************************
 Gaussian 09:  EM64L-G09RevA.02 11-Jun-2009
                29-Dec-2019 
 ******************************************
 %RWF=/scratch/bdw2292/Gau-methanol/,100GB
 %Nosave
 %Chk=methanol-opt-6-1-2-3-313.chk
 %Mem=700MB
 %Nproc=1
 Will use up to    1 processors via shared memory.
 -----------------------------------------------
 #P opt=(,maxcycle=400) HF/6-311G* MaxDisk=100GB
 -----------------------------------------------
 1/6=400,18=20,19=15,38=1/1,3;
 2/9=110,12=2,17=6,18=5,40=1/2;
 3/5=4,6=6,7=1,11=9,16=1,25=1,30=1,71=1/1,2,3;
 4//1;
 5/5=2,38=5/2;
 6/7=2,8=2,9=2,10=2,28=1/1;
 7//1,2,3,16;
 1/6=400,18=20,19=15/3(2);
 2/9=110/2;
 99//99;
 2/9=110/2;
 3/5=4,6=6,7=1,11=9,16=1,25=1,30=1,71=1/1,2,3;
 4/5=5,16=3/1;
 5/5=2,38=5/2;
 7//1,2,3,16;
 1/6=400,18=20,19=15/3(-5);
 2/9=110/2;
 6/7=2,8=2,9=2,10=2,19=2,28=1/1;
 99/9=1/99;
 Leave Link    1 at Sun Dec 29 12:26:10 2019, MaxMem=   91750400 cpu:       0.0
 (Enter /opt/g09gh/gaussian/g09/l101.exe)
 -------------------------------------------------------------
 methanol Rotatable Bond Optimization on node36.bme.utexas.edu
 -------------------------------------------------------------
 Symbolic Z-matrix:
 Charge =  0 Multiplicity = 1
 O                     0.7437    0.1176   -0.0084 
 C                    -0.68508  -0.01097   0.00622 
 H                    -0.97794  -0.74789  -0.74773 
 H                    -1.12242   0.97184  -0.19238 
 H                    -0.9801   -0.35827   1.0015 
 H                     1.09924  -0.7893   -0.00881 
 
 NAtoms=      6 NQM=      6 NQMF=      0 NMic=      0 NMicF=      0 NTot=      6.
                    Isotopes and Nuclear Properties:
 (Nuclear quadrupole moments (NQMom) in fm**2, nuclear magnetic moments (NMagM)
  in nuclear magnetons)

  Atom         1           2           3           4           5           6
 IAtWgt=          16          12           1           1           1           1
 AtmWgt=  15.9949146  12.0000000   1.0078250   1.0078250   1.0078250   1.0078250
 NucSpn=           0           0           1           1           1           1
 AtZEff=   0.0000000   0.0000000   0.0000000   0.0000000   0.0000000   0.0000000
 NQMom=    0.0000000   0.0000000   0.0000000   0.0000000   0.0000000   0.0000000
 NMagM=    0.0000000   0.0000000   2.7928460   2.7928460   2.7928460   2.7928460
 Leave Link  101 at Sun Dec 29 12:26:10 2019, MaxMem=   91750400 cpu:       0.1
 (Enter /opt/g09gh/gaussian/g09/l103.exe)

 GradGradGradGradGradGradGradGradGradGradGradGradGradGradGradGradGradGrad
 Berny optimization.
 Initialization pass.
                           ----------------------------
                           !    Initial Parameters    !
                           ! (Angstroms and Degrees)  !
 --------------------------                            --------------------------
 ! Name  Definition              Value          Derivative Info.                !
 --------------------------------------------------------------------------------
 ! R1    R(1,2)                  1.4346         estimate D2E/DX2                !
 ! R2    R(1,6)                  0.9741         estimate D2E/DX2                !
 ! R3    R(2,3)                  1.0942         estimate D2E/DX2                !
 ! R4    R(2,4)                  1.0939         estimate D2E/DX2                !
 ! R5    R(2,5)                  1.0946         estimate D2E/DX2                !
 ! A1    A(2,1,6)              106.2641         estimate D2E/DX2                !
 ! A2    A(1,2,3)              108.6571         estimate D2E/DX2                !
 ! A3    A(1,2,4)              108.4094         estimate D2E/DX2                !
 ! A4    A(1,2,5)              107.825          estimate D2E/DX2                !
 ! A5    A(3,2,4)              111.8993         estimate D2E/DX2                !
 ! A6    A(3,2,5)              109.9188         estimate D2E/DX2                !
 ! A7    A(4,2,5)              110.0214         estimate D2E/DX2                !
 ! D1    D(6,1,2,3)            -47.0935         estimate D2E/DX2                !
 ! D2    D(6,1,2,4)           -168.9152         estimate D2E/DX2                !
 ! D3    D(6,1,2,5)             72.0031         estimate D2E/DX2                !
 --------------------------------------------------------------------------------
 Trust Radius=3.00D-01 FncErr=1.00D-07 GrdErr=1.00D-07
 Number of steps in this run= 100 maximum allowed number of steps= 100.
 GradGradGradGradGradGradGradGradGradGradGradGradGradGradGradGradGradGrad

 Leave Link  103 at Sun Dec 29 12:26:10 2019, MaxMem=   91750400 cpu:       0.0
 (Enter /opt/g09gh/gaussian/g09/l202.exe)
                          Input orientation:                          
 ---------------------------------------------------------------------
 Center     Atomic      Atomic             Coordinates (Angstroms)
 Number     Number       Type             X           Y           Z
 ---------------------------------------------------------------------
      1          8           0        0.743702    0.117599   -0.008398
      2          6           0       -0.685076   -0.010972    0.006216
      3          1           0       -0.977942   -0.747885   -0.747730
      4          1           0       -1.122423    0.971843   -0.192384
      5          1           0       -0.980097   -0.358274    1.001499
      6          1           0        1.099236   -0.789303   -0.008812
 ---------------------------------------------------------------------
                    Distance matrix (angstroms):
                    1          2          3          4          5
     1  O    0.000000
     2  C    1.434626   0.000000
     3  H    2.063912   1.094187   0.000000
     4  H    2.060584   1.093910   1.812939   0.000000
     5  H    2.053736   1.094643   1.792095   1.792993   0.000000
     6  H    0.974103   1.946739   2.205081   2.840969   2.351625
                    6
     6  H    0.000000
 Stoichiometry    CH4O
 Framework group  C1[X(CH4O)]
 Deg. of freedom    12
 Full point group                 C1      NOp   1
 Largest Abelian subgroup         C1      NOp   1
 Largest concise Abelian subgroup C1      NOp   1
                         Standard orientation:                         
 ---------------------------------------------------------------------
 Center     Atomic      Atomic             Coordinates (Angstroms)
 Number     Number       Type             X           Y           Z
 ---------------------------------------------------------------------
      1          8           0       -0.749870   -0.130953   -0.002503
      2          6           0        0.677008    0.017936   -0.002872
      3          1           0        0.950359    0.769193   -0.749958
      4          1           0        1.125883   -0.955691   -0.220134
      5          1           0        0.978909    0.355842    0.993581
      6          1           0       -1.118240    0.770665    0.013770
 ---------------------------------------------------------------------
 Rotational constants (GHZ):    124.2870253     24.7217167     23.7411611
 Leave Link  202 at Sun Dec 29 12:26:10 2019, MaxMem=   91750400 cpu:       0.0
 (Enter /opt/g09gh/gaussian/g09/l301.exe)
 Standard basis: 6-311G(d) (5D, 7F)
 Ernie: Thresh=  0.10000D-02 Tol=  0.10000D-05 Strict=F.
 There are    48 symmetry adapted basis functions of A   symmetry.
 Integral buffers will be    131072 words long.
 Raffenetti 1 integral format.
 Two-electron integral symmetry is turned on.
    48 basis functions,    84 primitive gaussians,    50 cartesian basis functions
     9 alpha electrons        9 beta electrons
       nuclear repulsion energy        40.0875873117 Hartrees.
 IExCor=    0 DFT=F Ex=HF Corr=None ExCW=0 ScaHFX=  1.000000
 ScaDFX=  1.000000  1.000000  1.000000  1.000000 ScalE2=  1.000000  1.000000
 IRadAn=      0 IRanWt=     -1 IRanGd=            0 ICorTp=0
 NAtoms=    6 NActive=    6 NUniq=    6 SFac= 7.50D-01 NAtFMM=   80 NAOKFM=F Big=F
 Leave Link  301 at Sun Dec 29 12:26:10 2019, MaxMem=   91750400 cpu:       0.1
 (Enter /opt/g09gh/gaussian/g09/l302.exe)
 NPDir=0 NMtPBC=     1 NCelOv=     1 NCel=       1 NClECP=     1 NCelD=      1
         NCelK=      1 NCelE2=     1 NClLst=     1 CellRange=     0.0.
 One-electron integrals computed using PRISM.
 NBasis=    48 RedAO= T  NBF=    48
 NBsUse=    48 1.00D-06 NBFU=    48
 Leave Link  302 at Sun Dec 29 12:26:10 2019, MaxMem=   91750400 cpu:       0.1
 (Enter /opt/g09gh/gaussian/g09/l303.exe)
 DipDrv:  MaxL=1.
 Leave Link  303 at Sun Dec 29 12:26:10 2019, MaxMem=   91750400 cpu:       0.0
 (Enter /opt/g09gh/gaussian/g09/l401.exe)
 Harris functional with IExCor=  205 diagonalized for initial guess.
 ExpMin= 1.03D-01 ExpMax= 8.59D+03 ExpMxC= 1.30D+03 IAcc=1 IRadAn=         1 AccDes= 0.00D+00
 HarFok:  IExCor=  205 AccDes= 0.00D+00 IRadAn=         1 IDoV= 1
 ScaDFX=  1.000000  1.000000  1.000000  1.000000
 FoFCou: FMM=F IPFlag=           0 FMFlag=      100000 FMFlg1=           0
         NFxFlg=           0 DoJE=T BraDBF=F KetDBF=T FulRan=T
         Omega=  0.000000  0.000000  1.000000  0.000000  0.000000 ICntrl=     500 IOpCl=  0
         NMat0=    1 NMatS0=    1 NMatT0=    0 NMatD0=    1 NMtDS0=    0 NMtDT0=    0
         I1Cent=           4 NGrid=           0.
 Petite list used in FoFCou.
 Harris En= -115.242977118140    
 Initial guess orbital symmetries:
       Occupied  (A) (A) (A) (A) (A) (A) (A) (A) (A)
       Virtual   (A) (A) (A) (A) (A) (A) (A) (A) (A) (A) (A) (A)
                 (A) (A) (A) (A) (A) (A) (A) (A) (A) (A) (A) (A)
                 (A) (A) (A) (A) (A) (A) (A) (A) (A) (A) (A) (A)
                 (A) (A) (A)
 The electronic state of the initial guess is 1-A.
 Leave Link  401 at Sun Dec 29 12:26:10 2019, MaxMem=   91750400 cpu:       0.2
 (Enter /opt/g09gh/gaussian/g09/l502.exe)
 Closed shell SCF:
 Requested convergence on RMS density matrix=1.00D-08 within 128 cycles.
 Requested convergence on MAX density matrix=1.00D-06.
 Requested convergence on             energy=1.00D-06.
 No special actions if energy rises.
 Using DIIS extrapolation, IDIIS=  1040.
 Integral symmetry usage will be decided dynamically.
 Keep R1 ints in memory in canonical form, NReq=1659792.
 IEnd=       26328 IEndB=       26328 NGot=    91750400 MDV=    90929785
 LenX=    90929785 LenY=    90926844
 Symmetry not used in FoFDir.
 MinBra= 0 MaxBra= 2 Meth= 1.
 IRaf=       0 NMat=   1 IRICut=       1 DoRegI=T DoRafI=F ISym2E= 0 JSym2E=0.

 Cycle   1  Pass 1  IDiag  1:
 E= -114.938895355365    
 DIIS: error= 5.86D-02 at cycle   1 NSaved=   1.
 NSaved= 1 IEnMin= 1 EnMin= -114.938895355365     IErMin= 1 ErrMin= 5.86D-02
 ErrMax= 5.86D-02 EMaxC= 1.00D-01 BMatC= 2.53D-01 BMatP= 2.53D-01
 IDIUse=3 WtCom= 4.14D-01 WtEn= 5.86D-01
 Coeff-Com:  0.100D+01
 Coeff-En:   0.100D+01
 Coeff:      0.100D+01
 Gap=     0.573 Goal=   None    Shift=    0.000
 GapD=    0.573 DampG=2.000 DampE=0.500 DampFc=1.0000 IDamp=-1.
 RMSDP=5.98D-03 MaxDP=8.21D-02              OVMax= 1.04D-01

 Cycle   2  Pass 1  IDiag  1:
 E= -115.035661079474     Delta-E=       -0.096765724109 Rises=F Damp=F
 DIIS: error= 2.69D-02 at cycle   2 NSaved=   2.
 NSaved= 2 IEnMin= 2 EnMin= -115.035661079474     IErMin= 2 ErrMin= 2.69D-02
 ErrMax= 2.69D-02 EMaxC= 1.00D-01 BMatC= 3.51D-02 BMatP= 2.53D-01
 IDIUse=3 WtCom= 7.31D-01 WtEn= 2.69D-01
 Coeff-Com:  0.218D+00 0.782D+00
 Coeff-En:   0.000D+00 0.100D+01
 Coeff:      0.159D+00 0.841D+00
 Gap=     0.630 Goal=   None    Shift=    0.000
 RMSDP=2.89D-03 MaxDP=4.57D-02 DE=-9.68D-02 OVMax= 4.10D-02

 Cycle   3  Pass 1  IDiag  1:
 E= -115.057399747918     Delta-E=       -0.021738668444 Rises=F Damp=F
 DIIS: error= 8.33D-03 at cycle   3 NSaved=   3.
 NSaved= 3 IEnMin= 3 EnMin= -115.057399747918     IErMin= 3 ErrMin= 8.33D-03
 ErrMax= 8.33D-03 EMaxC= 1.00D-01 BMatC= 3.78D-03 BMatP= 3.51D-02
 IDIUse=3 WtCom= 9.17D-01 WtEn= 8.33D-02
 Coeff-Com: -0.140D-01 0.223D+00 0.791D+00
 Coeff-En:   0.000D+00 0.000D+00 0.100D+01
 Coeff:     -0.129D-01 0.205D+00 0.808D+00
 Gap=     0.594 Goal=   None    Shift=    0.000
 RMSDP=6.60D-04 MaxDP=1.05D-02 DE=-2.17D-02 OVMax= 1.27D-02

 Cycle   4  Pass 1  IDiag  1:
 E= -115.059805374820     Delta-E=       -0.002405626902 Rises=F Damp=F
 DIIS: error= 1.42D-03 at cycle   4 NSaved=   4.
 NSaved= 4 IEnMin= 4 EnMin= -115.059805374820     IErMin= 4 ErrMin= 1.42D-03
 ErrMax= 1.42D-03 EMaxC= 1.00D-01 BMatC= 9.80D-05 BMatP= 3.78D-03
 IDIUse=3 WtCom= 9.86D-01 WtEn= 1.42D-02
 Coeff-Com: -0.675D-02 0.290D-01 0.200D+00 0.778D+00
 Coeff-En:   0.000D+00 0.000D+00 0.000D+00 0.100D+01
 Coeff:     -0.666D-02 0.286D-01 0.197D+00 0.781D+00
 Gap=     0.594 Goal=   None    Shift=    0.000
 RMSDP=1.33D-04 MaxDP=2.06D-03 DE=-2.41D-03 OVMax= 2.58D-03

 Cycle   5  Pass 1  IDiag  1:
 E= -115.059884843870     Delta-E=       -0.000079469050 Rises=F Damp=F
 DIIS: error= 3.45D-04 at cycle   5 NSaved=   5.
 NSaved= 5 IEnMin= 5 EnMin= -115.059884843870     IErMin= 5 ErrMin= 3.45D-04
 ErrMax= 3.45D-04 EMaxC= 1.00D-01 BMatC= 4.34D-06 BMatP= 9.80D-05
 IDIUse=3 WtCom= 9.97D-01 WtEn= 3.45D-03
 Coeff-Com:  0.123D-02-0.206D-01-0.736D-01-0.153D-01 0.111D+01
 Coeff-En:   0.000D+00 0.000D+00 0.000D+00 0.000D+00 0.100D+01
 Coeff:      0.123D-02-0.206D-01-0.733D-01-0.152D-01 0.111D+01
 Gap=     0.595 Goal=   None    Shift=    0.000
 RMSDP=5.66D-05 MaxDP=7.78D-04 DE=-7.95D-05 OVMax= 8.73D-04

 Cycle   6  Pass 1  IDiag  1:
 E= -115.059891703560     Delta-E=       -0.000006859689 Rises=F Damp=F
 DIIS: error= 5.11D-05 at cycle   6 NSaved=   6.
 NSaved= 6 IEnMin= 6 EnMin= -115.059891703560     IErMin= 6 ErrMin= 5.11D-05
 ErrMax= 5.11D-05 EMaxC= 1.00D-01 BMatC= 1.34D-07 BMatP= 4.34D-06
 IDIUse=1 WtCom= 1.00D+00 WtEn= 0.00D+00
 Coeff-Com:  0.241D-03-0.631D-03-0.384D-02-0.332D-01-0.942D-01 0.113D+01
 Coeff:      0.241D-03-0.631D-03-0.384D-02-0.332D-01-0.942D-01 0.113D+01
 Gap=     0.595 Goal=   None    Shift=    0.000
 RMSDP=1.31D-05 MaxDP=1.20D-04 DE=-6.86D-06 OVMax= 2.44D-04

 Cycle   7  Pass 1  IDiag  1:
 E= -115.059892010686     Delta-E=       -0.000000307127 Rises=F Damp=F
 DIIS: error= 1.10D-05 at cycle   7 NSaved=   7.
 NSaved= 7 IEnMin= 7 EnMin= -115.059892010686     IErMin= 7 ErrMin= 1.10D-05
 ErrMax= 1.10D-05 EMaxC= 1.00D-01 BMatC= 5.90D-09 BMatP= 1.34D-07
 IDIUse=1 WtCom= 1.00D+00 WtEn= 0.00D+00
 Coeff-Com: -0.108D-03 0.951D-03 0.407D-02 0.808D-02-0.164D-01-0.302D+00
 Coeff-Com:  0.131D+01
 Coeff:     -0.108D-03 0.951D-03 0.407D-02 0.808D-02-0.164D-01-0.302D+00
 Coeff:      0.131D+01
 Gap=     0.595 Goal=   None    Shift=    0.000
 RMSDP=3.02D-06 MaxDP=3.73D-05 DE=-3.07D-07 OVMax= 7.77D-05

 Cycle   8  Pass 1  IDiag  1:
 E= -115.059892026516     Delta-E=       -0.000000015829 Rises=F Damp=F
 DIIS: error= 1.87D-06 at cycle   8 NSaved=   8.
 NSaved= 8 IEnMin= 8 EnMin= -115.059892026516     IErMin= 8 ErrMin= 1.87D-06
 ErrMax= 1.87D-06 EMaxC= 1.00D-01 BMatC= 2.19D-10 BMatP= 5.90D-09
 IDIUse=1 WtCom= 1.00D+00 WtEn= 0.00D+00
 Coeff-Com:  0.175D-04-0.209D-03-0.938D-03-0.129D-02 0.636D-02 0.588D-01
 Coeff-Com: -0.412D+00 0.135D+01
 Coeff:      0.175D-04-0.209D-03-0.938D-03-0.129D-02 0.636D-02 0.588D-01
 Coeff:     -0.412D+00 0.135D+01
 Gap=     0.595 Goal=   None    Shift=    0.000
 RMSDP=7.02D-07 MaxDP=6.21D-06 DE=-1.58D-08 OVMax= 1.74D-05

 Cycle   9  Pass 1  IDiag  1:
 E= -115.059892027161     Delta-E=       -0.000000000645 Rises=F Damp=F
 DIIS: error= 5.66D-07 at cycle   9 NSaved=   9.
 NSaved= 9 IEnMin= 9 EnMin= -115.059892027161     IErMin= 9 ErrMin= 5.66D-07
 ErrMax= 5.66D-07 EMaxC= 1.00D-01 BMatC= 6.98D-12 BMatP= 2.19D-10
 IDIUse=1 WtCom= 1.00D+00 WtEn= 0.00D+00
 Coeff-Com: -0.204D-05 0.363D-04 0.179D-03 0.787D-04-0.194D-02-0.506D-02
 Coeff-Com:  0.759D-01-0.392D+00 0.132D+01
 Coeff:     -0.204D-05 0.363D-04 0.179D-03 0.787D-04-0.194D-02-0.506D-02
 Coeff:      0.759D-01-0.392D+00 0.132D+01
 Gap=     0.595 Goal=   None    Shift=    0.000
 RMSDP=1.04D-07 MaxDP=6.54D-07 DE=-6.45D-10 OVMax= 2.41D-06

 Cycle  10  Pass 1  IDiag  1:
 E= -115.059892027179     Delta-E=       -0.000000000018 Rises=F Damp=F
 DIIS: error= 1.02D-07 at cycle  10 NSaved=  10.
 NSaved=10 IEnMin=10 EnMin= -115.059892027179     IErMin=10 ErrMin= 1.02D-07
 ErrMax= 1.02D-07 EMaxC= 1.00D-01 BMatC= 2.60D-13 BMatP= 6.98D-12
 IDIUse=1 WtCom= 1.00D+00 WtEn= 0.00D+00
 Coeff-Com:  0.178D-07-0.343D-05-0.218D-04 0.248D-04 0.318D-03-0.196D-03
 Coeff-Com: -0.892D-02 0.661D-01-0.367D+00 0.131D+01
 Coeff:      0.178D-07-0.343D-05-0.218D-04 0.248D-04 0.318D-03-0.196D-03
 Coeff:     -0.892D-02 0.661D-01-0.367D+00 0.131D+01
 Gap=     0.595 Goal=   None    Shift=    0.000
 RMSDP=1.86D-08 MaxDP=1.78D-07 DE=-1.82D-11 OVMax= 4.02D-07

 Cycle  11  Pass 1  IDiag  1:
 E= -115.059892027180     Delta-E=       -0.000000000001 Rises=F Damp=F
 DIIS: error= 1.79D-08 at cycle  11 NSaved=  11.
 NSaved=11 IEnMin=11 EnMin= -115.059892027180     IErMin=11 ErrMin= 1.79D-08
 ErrMax= 1.79D-08 EMaxC= 1.00D-01 BMatC= 1.02D-14 BMatP= 2.60D-13
 IDIUse=1 WtCom= 1.00D+00 WtEn= 0.00D+00
 Coeff-Com:  0.896D-07-0.150D-05-0.643D-05-0.630D-05 0.613D-04 0.267D-03
 Coeff-Com: -0.291D-02 0.141D-01-0.301D-01-0.155D+00 0.117D+01
 Coeff:      0.896D-07-0.150D-05-0.643D-05-0.630D-05 0.613D-04 0.267D-03
 Coeff:     -0.291D-02 0.141D-01-0.301D-01-0.155D+00 0.117D+01
 Gap=     0.595 Goal=   None    Shift=    0.000
 RMSDP=4.48D-09 MaxDP=2.97D-08 DE=-7.39D-13 OVMax= 6.66D-08

 SCF Done:  E(RHF) =  -115.059892027     A.U. after   11 cycles
             Convg  =    0.4476D-08             -V/T =  2.0005
 KE= 1.149983500304D+02 PE=-3.514703984492D+02 EE= 8.132456907999D+01
 Leave Link  502 at Sun Dec 29 12:26:11 2019, MaxMem=   91750400 cpu:       0.1
 (Enter /opt/g09gh/gaussian/g09/l601.exe)
 Copying SCF densities to generalized density rwf, IOpCl= 0 IROHF=0.

 **********************************************************************

            Population analysis using the SCF density.

 **********************************************************************

 Orbital symmetries:
       Occupied  (A) (A) (A) (A) (A) (A) (A) (A) (A)
       Virtual   (A) (A) (A) (A) (A) (A) (A) (A) (A) (A) (A) (A)
                 (A) (A) (A) (A) (A) (A) (A) (A) (A) (A) (A) (A)
                 (A) (A) (A) (A) (A) (A) (A) (A) (A) (A) (A) (A)
                 (A) (A) (A)
 The electronic state is 1-A.
 Alpha  occ. eigenvalues --  -20.54339 -11.27191  -1.34476  -0.92010  -0.67983
 Alpha  occ. eigenvalues --   -0.61827  -0.58773  -0.50095  -0.44450
 Alpha virt. eigenvalues --    0.15039   0.18722   0.22445   0.23195   0.33362
 Alpha virt. eigenvalues --    0.46313   0.47310   0.57719   0.67654   0.72565
 Alpha virt. eigenvalues --    0.78775   0.79722   0.94720   1.07126   1.07532
 Alpha virt. eigenvalues --    1.18145   1.55061   1.58635   1.69489   1.76967
 Alpha virt. eigenvalues --    1.77154   1.96649   2.37882   2.63257   2.69497
 Alpha virt. eigenvalues --    2.70864   3.16855   3.18671   3.35153   3.35879
 Alpha virt. eigenvalues --    3.53043   3.58116   3.73658   4.25582   5.37705
 Alpha virt. eigenvalues --    5.52099   5.86449  24.53523  51.52019
          Condensed to atoms (all electrons):
              1          2          3          4          5          6
     1  O    8.281926   0.203673  -0.032887  -0.024746  -0.037241   0.266724
     2  C    0.203673   5.002544   0.392231   0.387273   0.391955  -0.050189
     3  H   -0.032887   0.392231   0.527833  -0.027127  -0.036480  -0.006679
     4  H   -0.024746   0.387273  -0.027127   0.477332  -0.031829   0.006806
     5  H   -0.037241   0.391955  -0.036480  -0.031829   0.527878  -0.002217
     6  H    0.266724  -0.050189  -0.006679   0.006806  -0.002217   0.383952
 Mulliken atomic charges:
              1
     1  O   -0.657449
     2  C   -0.327488
     3  H    0.183109
     4  H    0.212291
     5  H    0.187933
     6  H    0.401603
 Sum of Mulliken atomic charges =   0.00000
 Mulliken charges with hydrogens summed into heavy atoms:
              1
     1  O   -0.255845
     2  C    0.255845
 Sum of Mulliken charges with hydrogens summed into heavy atoms =   0.00000
 Electronic spatial extent (au):  <R**2>=             84.3488
 Charge=              0.0000 electrons
 Dipole moment (field-independent basis, Debye):
    X=              1.0912    Y=              1.7652    Z=              0.0102  Tot=              2.0753
 Quadrupole moment (field-independent basis, Debye-Ang):
   XX=            -12.9897   YY=            -11.9331   ZZ=            -13.6421
   XY=             -2.5005   XZ=             -0.0854   YZ=              0.0309
 Traceless Quadrupole moment (field-independent basis, Debye-Ang):
   XX=             -0.1347   YY=              0.9219   ZZ=             -0.7871
   XY=             -2.5005   XZ=             -0.0854   YZ=              0.0309
 Octapole moment (field-independent basis, Debye-Ang**2):
  XXX=             -4.0196  YYY=              0.8453  ZZZ=              0.3443  XYY=             -1.6911
  XXY=              2.3392  XXZ=             -0.0110  XZZ=             -0.4323  YZZ=              0.6457
  YYZ=             -0.3633  XYZ=              0.0208
 Hexadecapole moment (field-independent basis, Debye-Ang**3):
 XXXX=            -60.8343 YYYY=            -19.4760 ZZZZ=            -19.0345 XXXY=             -4.1657
 XXXZ=             -0.1862 YYYX=             -2.9565 YYYZ=             -0.0187 ZZZX=              0.3347
 ZZZY=              0.0625 XXYY=            -12.0877 XXZZ=            -13.9244 YYZZ=             -6.5229
 XXYZ=              0.1383 YYXZ=             -0.4559 ZZXY=             -0.0125
 N-N= 4.008758731170D+01 E-N=-3.514703985086D+02  KE= 1.149983500304D+02
 No NMR shielding tensors so no spin-rotation constants.
 Leave Link  601 at Sun Dec 29 12:26:11 2019, MaxMem=   91750400 cpu:       0.1
 (Enter /opt/g09gh/gaussian/g09/l701.exe)
 Compute integral first derivatives.
 ... and contract with generalized density number  0.
 Leave Link  701 at Sun Dec 29 12:26:11 2019, MaxMem=   91750400 cpu:       0.1
 (Enter /opt/g09gh/gaussian/g09/l702.exe)
 L702 exits ... SP integral derivatives will be done elsewhere.
 Leave Link  702 at Sun Dec 29 12:26:11 2019, MaxMem=   91750400 cpu:       0.1
 (Enter /opt/g09gh/gaussian/g09/l703.exe)
 Compute integral first derivatives, UseDBF=F ICtDFT=           0.
 Integral derivatives from FoFDir, PRISM(SPDF).
 Calling FoFJK, ICntrl=      2127 FMM=F ISym2X=0 I1Cent= 0 IOpClX= 0 NMat=1 NMatS=1 NMatT=0.
 FoFCou: FMM=F IPFlag=           0 FMFlag=      100000 FMFlg1=         800
         NFxFlg=           0 DoJE=F BraDBF=F KetDBF=F FulRan=T
         Omega=  0.000000  0.000000  1.000000  0.000000  0.000000 ICntrl=    2127 IOpCl=  0
         NMat0=    1 NMatS0=    1 NMatT0=    0 NMatD0=    1 NMtDS0=    0 NMtDT0=    0
         I1Cent=           0 NGrid=           0.
 Symmetry not used in FoFCou.
 Leave Link  703 at Sun Dec 29 12:26:11 2019, MaxMem=   91750400 cpu:       0.3
 (Enter /opt/g09gh/gaussian/g09/l716.exe)
 Dipole        = 4.29293011D-01 6.94495350D-01 3.99781458D-03
 ***** Axes restored to original set *****
 -------------------------------------------------------------------
 Center     Atomic                   Forces (Hartrees/Bohr)
 Number     Number              X              Y              Z
 -------------------------------------------------------------------
      1        8          -0.008233102   -0.033816907   -0.003413702
      2        6           0.024142927   -0.002545211    0.006005324
      3        1          -0.005833344    0.008361165    0.004021030
      4        1           0.004557984   -0.010486250    0.000068661
      5        1          -0.005671213    0.002802810   -0.007747669
      6        1          -0.008963252    0.035684394    0.001066356
 -------------------------------------------------------------------
 Cartesian Forces:  Max     0.035684394 RMS     0.014051865
 Leave Link  716 at Sun Dec 29 12:26:11 2019, MaxMem=   91750400 cpu:       0.0
 (Enter /opt/g09gh/gaussian/g09/l103.exe)

 GradGradGradGradGradGradGradGradGradGradGradGradGradGradGradGradGradGrad
 Berny optimization.
 Internal  Forces:  Max     0.036494545 RMS     0.012389223
 Search for a local minimum.
 Step number   1 out of a maximum of  100
 All quantities printed in internal units (Hartrees-Bohrs-Radians)
 RMS Force = .12389D-01 SwitMx=.10000D-02 MixMth= 1
 Mixed Optimization -- RFO/linear search
 Second derivative matrix not updated -- first step.
 The second derivative matrix:
                          R1        R2        R3        R4        R5
           R1           0.40332
           R2           0.00000   0.52547
           R3           0.00000   0.00000   0.34333
           R4           0.00000   0.00000   0.00000   0.34365
           R5           0.00000   0.00000   0.00000   0.00000   0.34281
           A1           0.00000   0.00000   0.00000   0.00000   0.00000
           A2           0.00000   0.00000   0.00000   0.00000   0.00000
           A3           0.00000   0.00000   0.00000   0.00000   0.00000
           A4           0.00000   0.00000   0.00000   0.00000   0.00000
           A5           0.00000   0.00000   0.00000   0.00000   0.00000
           A6           0.00000   0.00000   0.00000   0.00000   0.00000
           A7           0.00000   0.00000   0.00000   0.00000   0.00000
           D1           0.00000   0.00000   0.00000   0.00000   0.00000
           D2           0.00000   0.00000   0.00000   0.00000   0.00000
           D3           0.00000   0.00000   0.00000   0.00000   0.00000
                          A1        A2        A3        A4        A5
           A1           0.16000
           A2           0.00000   0.16000
           A3           0.00000   0.00000   0.16000
           A4           0.00000   0.00000   0.00000   0.16000
           A5           0.00000   0.00000   0.00000   0.00000   0.16000
           A6           0.00000   0.00000   0.00000   0.00000   0.00000
           A7           0.00000   0.00000   0.00000   0.00000   0.00000
           D1           0.00000   0.00000   0.00000   0.00000   0.00000
           D2           0.00000   0.00000   0.00000   0.00000   0.00000
           D3           0.00000   0.00000   0.00000   0.00000   0.00000
                          A6        A7        D1        D2        D3
           A6           0.16000
           A7           0.00000   0.16000
           D1           0.00000   0.00000   0.01234
           D2           0.00000   0.00000   0.00000   0.01234
           D3           0.00000   0.00000   0.00000   0.00000   0.01234
     Eigenvalues ---    0.01234   0.10450   0.10605   0.16000   0.16000
     Eigenvalues ---    0.16000   0.16000   0.34281   0.34333   0.34365
     Eigenvalues ---    0.40332   0.525471000.000001000.000001000.00000
 RFO step:  Lambda=-6.91547530D-03 EMin= 1.23374985D-02
 Linear search not attempted -- first point.
 Iteration  1 RMS(Cart)=  0.05612471 RMS(Int)=  0.00316622
 Iteration  2 RMS(Cart)=  0.00256721 RMS(Int)=  0.00144239
 Iteration  3 RMS(Cart)=  0.00000433 RMS(Int)=  0.00144239
 Iteration  4 RMS(Cart)=  0.00000000 RMS(Int)=  0.00144239
 Variable       Old X    -DE/DX   Delta X   Delta X   Delta X     New X
                                 (Linear)    (Quad)   (Total)
    R1        2.71105  -0.01693   0.00000  -0.04128  -0.04128   2.66977
    R2        1.84079  -0.03649   0.00000  -0.06855  -0.06855   1.77224
    R3        2.06771  -0.00684   0.00000  -0.01953  -0.01953   2.04818
    R4        2.06719  -0.01126   0.00000  -0.03211  -0.03211   2.03508
    R5        2.06858  -0.00641   0.00000  -0.01831  -0.01831   2.05026
    A1        1.85466   0.00859   0.00000   0.05148   0.05148   1.90614
    A2        1.89642   0.01019   0.00000   0.06167   0.05984   1.95627
    A3        1.89210  -0.00552   0.00000  -0.03984  -0.03970   1.85240
    A4        1.88190   0.01191   0.00000   0.07731   0.07551   1.95741
    A5        1.95301  -0.00735   0.00000  -0.05613  -0.05602   1.89699
    A6        1.91844  -0.00447   0.00000  -0.01256  -0.01586   1.90259
    A7        1.92024  -0.00381   0.00000  -0.02443  -0.02427   1.89596
    D1       -0.82194  -0.00505   0.00000  -0.07304  -0.07564  -0.89757
    D2       -2.94813   0.00109   0.00000  -0.01788  -0.01792  -2.96604
    D3        1.25669   0.00202   0.00000  -0.01004  -0.00740   1.24929
         Item               Value     Threshold  Converged?
 Maximum Force            0.036495     0.000450     NO 
 RMS     Force            0.012389     0.000300     NO 
 Maximum Displacement     0.097481     0.001800     NO 
 RMS     Displacement     0.055548     0.001200     NO 
 Predicted change in Energy=-3.591337D-03
 GradGradGradGradGradGradGradGradGradGradGradGradGradGradGradGradGradGrad

 Leave Link  103 at Sun Dec 29 12:26:11 2019, MaxMem=   91750400 cpu:       0.0
 (Enter /opt/g09gh/gaussian/g09/l202.exe)
                          Input orientation:                          
 ---------------------------------------------------------------------
 Center     Atomic      Atomic             Coordinates (Angstroms)
 Number     Number       Type             X           Y           Z
 ---------------------------------------------------------------------
      1          8           0        0.736511    0.106155   -0.023786
      2          6           0       -0.668612   -0.035457    0.015245
      3          1           0       -1.029527   -0.727294   -0.736977
      4          1           0       -1.073639    0.940825   -0.191108
      5          1           0       -1.020373   -0.357764    0.989669
      6          1           0        1.133039   -0.743457   -0.002652
 ---------------------------------------------------------------------
                    Distance matrix (angstroms):
                    1          2          3          4          5
     1  O    0.000000
     2  C    1.412780   0.000000
     3  H    2.078982   1.083852   0.000000
     4  H    2.000329   1.076919   1.755716   0.000000
     5  H    2.080614   1.084952   1.765770   1.755963   0.000000
     6  H    0.937828   1.935855   2.283897   2.782401   2.402217
                    6
     6  H    0.000000
 Stoichiometry    CH4O
 Framework group  C1[X(CH4O)]
 Deg. of freedom    12
 Full point group                 C1      NOp   1
 Largest Abelian subgroup         C1      NOp   1
 Largest concise Abelian subgroup C1      NOp   1
                         Standard orientation:                         
 ---------------------------------------------------------------------
 Center     Atomic      Atomic             Coordinates (Angstroms)
 Number     Number       Type             X           Y           Z
 ---------------------------------------------------------------------
      1          8           0        0.743290    0.117925    0.000623
      2          6           0       -0.662787   -0.019538    0.000269
      3          1           0       -1.006815   -0.686878   -0.781420
      4          1           0       -1.059601    0.964065   -0.186325
      5          1           0       -1.039804   -0.369940    0.955359
      6          1           0        1.136624   -0.733417    0.005784
 ---------------------------------------------------------------------
 Rotational constants (GHZ):    131.7299776     25.0973910     24.2590031
 Leave Link  202 at Sun Dec 29 12:26:11 2019, MaxMem=   91750400 cpu:       0.0
 (Enter /opt/g09gh/gaussian/g09/l301.exe)
 Standard basis: 6-311G(d) (5D, 7F)
 Ernie: Thresh=  0.10000D-02 Tol=  0.10000D-05 Strict=F.
 There are    48 symmetry adapted basis functions of A   symmetry.
 Integral buffers will be    131072 words long.
 Raffenetti 1 integral format.
 Two-electron integral symmetry is turned on.
    48 basis functions,    84 primitive gaussians,    50 cartesian basis functions
     9 alpha electrons        9 beta electrons
       nuclear repulsion energy        40.6694253548 Hartrees.
 IExCor=    0 DFT=F Ex=HF Corr=None ExCW=0 ScaHFX=  1.000000
 ScaDFX=  1.000000  1.000000  1.000000  1.000000 ScalE2=  1.000000  1.000000
 IRadAn=      0 IRanWt=     -1 IRanGd=            0 ICorTp=0
 NAtoms=    6 NActive=    6 NUniq=    6 SFac= 7.50D-01 NAtFMM=   80 NAOKFM=F Big=F
 Leave Link  301 at Sun Dec 29 12:26:11 2019, MaxMem=   91750400 cpu:       0.1
 (Enter /opt/g09gh/gaussian/g09/l302.exe)
 NPDir=0 NMtPBC=     1 NCelOv=     1 NCel=       1 NClECP=     1 NCelD=      1
         NCelK=      1 NCelE2=     1 NClLst=     1 CellRange=     0.0.
 One-electron integrals computed using PRISM.
 NBasis=    48 RedAO= T  NBF=    48
 NBsUse=    48 1.00D-06 NBFU=    48
 Leave Link  302 at Sun Dec 29 12:26:12 2019, MaxMem=   91750400 cpu:       0.1
 (Enter /opt/g09gh/gaussian/g09/l303.exe)
 DipDrv:  MaxL=1.
 Leave Link  303 at Sun Dec 29 12:26:12 2019, MaxMem=   91750400 cpu:       0.0
 (Enter /opt/g09gh/gaussian/g09/l401.exe)
 Initial guess read from the read-write file.
 B after Tr=     0.000000    0.000000    0.000000
         Rot=    1.000000    0.000000    0.000000    0.000000 Ang=   0.00 deg.
 Guess basis will be translated and rotated to current coordinates.
 Initial guess orbital symmetries:
       Occupied  (A) (A) (A) (A) (A) (A) (A) (A) (A)
       Virtual   (A) (A) (A) (A) (A) (A) (A) (A) (A) (A) (A) (A)
                 (A) (A) (A) (A) (A) (A) (A) (A) (A) (A) (A) (A)
                 (A) (A) (A) (A) (A) (A) (A) (A) (A) (A) (A) (A)
                 (A) (A) (A)
 The electronic state of the initial guess is 1-A.
 Generating alternative initial guess.
 Harris functional with IExCor=  205 diagonalized for initial guess.
 ExpMin= 1.03D-01 ExpMax= 8.59D+03 ExpMxC= 1.30D+03 IAcc=1 IRadAn=         1 AccDes= 0.00D+00
 HarFok:  IExCor=  205 AccDes= 0.00D+00 IRadAn=         1 IDoV= 1
 ScaDFX=  1.000000  1.000000  1.000000  1.000000
 FoFCou: FMM=F IPFlag=           0 FMFlag=      100000 FMFlg1=           0
         NFxFlg=           0 DoJE=T BraDBF=F KetDBF=T FulRan=T
         Omega=  0.000000  0.000000  1.000000  0.000000  0.000000 ICntrl=     500 IOpCl=  0
         NMat0=    1 NMatS0=    1 NMatT0=    0 NMatD0=    1 NMtDS0=    0 NMtDT0=    0
         I1Cent=           4 NGrid=           0.
 Petite list used in FoFCou.
 Harris En= -115.248112659751    
 Leave Link  401 at Sun Dec 29 12:26:12 2019, MaxMem=   91750400 cpu:       0.3
 (Enter /opt/g09gh/gaussian/g09/l502.exe)
 Closed shell SCF:
 Requested convergence on RMS density matrix=1.00D-08 within 128 cycles.
 Requested convergence on MAX density matrix=1.00D-06.
 Requested convergence on             energy=1.00D-06.
 No special actions if energy rises.
 Using DIIS extrapolation, IDIIS=  1040.
 Integral symmetry usage will be decided dynamically.
 Keep R1 ints in memory in canonical form, NReq=1659792.
 IEnd=       26328 IEndB=       26328 NGot=    91750400 MDV=    90929785
 LenX=    90929785 LenY=    90926844
 Symmetry not used in FoFDir.
 MinBra= 0 MaxBra= 2 Meth= 1.
 IRaf=       0 NMat=   1 IRICut=       1 DoRegI=T DoRafI=F ISym2E= 0 JSym2E=0.

 Cycle   1  Pass 1  IDiag  1:
 E= -111.873724163907    
 DIIS: error= 1.15D-01 at cycle   1 NSaved=   1.
 NSaved= 1 IEnMin= 1 EnMin= -111.873724163907     IErMin= 1 ErrMin= 1.15D-01
 ErrMax= 1.15D-01 EMaxC= 1.00D-01 BMatC= 1.17D+00 BMatP= 1.17D+00
 IDIUse=3 WtCom= 0.00D+00 WtEn= 1.00D+00
 Coeff-Com:  0.100D+01
 Coeff-En:   0.100D+01
 Coeff:      0.100D+01
 Recover alternate guess density for next cycle.
 RMSDP=3.77D-02 MaxDP=3.84D-01              OVMax= 0.00D+00

 Cycle   2  Pass 1  IDiag  1:
 E= -114.938469970142     Delta-E=       -3.064745806236 Rises=F Damp=F
 DIIS: error= 6.00D-02 at cycle   2 NSaved=   2.
 NSaved= 2 IEnMin= 2 EnMin= -114.938469970142     IErMin= 2 ErrMin= 6.00D-02
 ErrMax= 6.00D-02 EMaxC= 1.00D-01 BMatC= 2.59D-01 BMatP= 1.17D+00
 IDIUse=3 WtCom= 4.00D-01 WtEn= 6.00D-01
 Coeff-Com:  0.876D-01 0.912D+00
 Coeff-En:   0.000D+00 0.100D+01
 Coeff:      0.351D-01 0.965D+00
 Gap=     0.574 Goal=   None    Shift=    0.000
 RMSDP=6.17D-03 MaxDP=8.52D-02 DE=-3.06D+00 OVMax= 1.02D-01

 Cycle   3  Pass 1  IDiag  1:
 E= -115.036964399521     Delta-E=       -0.098494429379 Rises=F Damp=F
 DIIS: error= 2.74D-02 at cycle   3 NSaved=   3.
 NSaved= 3 IEnMin= 3 EnMin= -115.036964399521     IErMin= 3 ErrMin= 2.74D-02
 ErrMax= 2.74D-02 EMaxC= 1.00D-01 BMatC= 3.81D-02 BMatP= 2.59D-01
 IDIUse=3 WtCom= 7.26D-01 WtEn= 2.74D-01
 Coeff-Com:  0.356D-01 0.196D+00 0.768D+00
 Coeff-En:   0.000D+00 0.000D+00 0.100D+01
 Coeff:      0.258D-01 0.142D+00 0.832D+00
 Gap=     0.632 Goal=   None    Shift=    0.000
 RMSDP=2.90D-03 MaxDP=4.52D-02 DE=-9.85D-02 OVMax= 4.14D-02

 Cycle   4  Pass 1  IDiag  1:
 E= -115.061055915295     Delta-E=       -0.024091515774 Rises=F Damp=F
 DIIS: error= 7.21D-03 at cycle   4 NSaved=   4.
 NSaved= 4 IEnMin= 4 EnMin= -115.061055915295     IErMin= 4 ErrMin= 7.21D-03
 ErrMax= 7.21D-03 EMaxC= 1.00D-01 BMatC= 3.30D-03 BMatP= 3.81D-02
 IDIUse=3 WtCom= 9.28D-01 WtEn= 7.21D-02
 Coeff-Com: -0.584D-02-0.132D-01 0.190D+00 0.829D+00
 Coeff-En:   0.000D+00 0.000D+00 0.000D+00 0.100D+01
 Coeff:     -0.542D-02-0.123D-01 0.176D+00 0.842D+00
 Gap=     0.601 Goal=   None    Shift=    0.000
 RMSDP=6.30D-04 MaxDP=9.24D-03 DE=-2.41D-02 OVMax= 1.39D-02

 Cycle   5  Pass 1  IDiag  1:
 E= -115.063260434363     Delta-E=       -0.002204519068 Rises=F Damp=F
 DIIS: error= 1.45D-03 at cycle   5 NSaved=   5.
 NSaved= 5 IEnMin= 5 EnMin= -115.063260434363     IErMin= 5 ErrMin= 1.45D-03
 ErrMax= 1.45D-03 EMaxC= 1.00D-01 BMatC= 1.00D-04 BMatP= 3.30D-03
 IDIUse=3 WtCom= 9.86D-01 WtEn= 1.45D-02
 Coeff-Com: -0.123D-02-0.647D-02 0.212D-01 0.191D+00 0.795D+00
 Coeff-En:   0.000D+00 0.000D+00 0.000D+00 0.000D+00 0.100D+01
 Coeff:     -0.121D-02-0.638D-02 0.208D-01 0.188D+00 0.798D+00
 Gap=     0.601 Goal=   None    Shift=    0.000
 RMSDP=1.39D-04 MaxDP=1.93D-03 DE=-2.20D-03 OVMax= 2.86D-03

 Cycle   6  Pass 1  IDiag  1:
 E= -115.063346826918     Delta-E=       -0.000086392555 Rises=F Damp=F
 DIIS: error= 3.35D-04 at cycle   6 NSaved=   6.
 NSaved= 6 IEnMin= 6 EnMin= -115.063346826918     IErMin= 6 ErrMin= 3.35D-04
 ErrMax= 3.35D-04 EMaxC= 1.00D-01 BMatC= 5.70D-06 BMatP= 1.00D-04
 IDIUse=3 WtCom= 9.97D-01 WtEn= 3.35D-03
 Coeff-Com:  0.159D-03 0.123D-02-0.173D-01-0.749D-01 0.735D-02 0.108D+01
 Coeff-En:   0.000D+00 0.000D+00 0.000D+00 0.000D+00 0.000D+00 0.100D+01
 Coeff:      0.158D-03 0.122D-02-0.173D-01-0.747D-01 0.733D-02 0.108D+01
 Gap=     0.601 Goal=   None    Shift=    0.000
 RMSDP=6.30D-05 MaxDP=7.59D-04 DE=-8.64D-05 OVMax= 1.04D-03

 Cycle   7  Pass 1  IDiag  1:
 E= -115.063355546930     Delta-E=       -0.000008720012 Rises=F Damp=F
 DIIS: error= 4.93D-05 at cycle   7 NSaved=   7.
 NSaved= 7 IEnMin= 7 EnMin= -115.063355546930     IErMin= 7 ErrMin= 4.93D-05
 ErrMax= 4.93D-05 EMaxC= 1.00D-01 BMatC= 1.56D-07 BMatP= 5.70D-06
 IDIUse=1 WtCom= 1.00D+00 WtEn= 0.00D+00
 Coeff-Com:  0.373D-04 0.162D-03-0.214D-03-0.140D-02-0.279D-01-0.103D+00
 Coeff-Com:  0.113D+01
 Coeff:      0.373D-04 0.162D-03-0.214D-03-0.140D-02-0.279D-01-0.103D+00
 Coeff:      0.113D+01
 Gap=     0.601 Goal=   None    Shift=    0.000
 RMSDP=1.43D-05 MaxDP=1.24D-04 DE=-8.72D-06 OVMax= 2.88D-04

 Cycle   8  Pass 1  IDiag  1:
 E= -115.063355912351     Delta-E=       -0.000000365422 Rises=F Damp=F
 DIIS: error= 1.10D-05 at cycle   8 NSaved=   8.
 NSaved= 8 IEnMin= 8 EnMin= -115.063355912351     IErMin= 8 ErrMin= 1.10D-05
 ErrMax= 1.10D-05 EMaxC= 1.00D-01 BMatC= 7.96D-09 BMatP= 1.56D-07
 IDIUse=1 WtCom= 1.00D+00 WtEn= 0.00D+00
 Coeff-Com: -0.693D-05-0.743D-04 0.660D-03 0.328D-02 0.310D-02-0.259D-01
 Coeff-Com: -0.202D+00 0.122D+01
 Coeff:     -0.693D-05-0.743D-04 0.660D-03 0.328D-02 0.310D-02-0.259D-01
 Coeff:     -0.202D+00 0.122D+01
 Gap=     0.601 Goal=   None    Shift=    0.000
 RMSDP=3.59D-06 MaxDP=4.37D-05 DE=-3.65D-07 OVMax= 9.42D-05

 Cycle   9  Pass 1  IDiag  1:
 E= -115.063355934112     Delta-E=       -0.000000021761 Rises=F Damp=F
 DIIS: error= 2.42D-06 at cycle   9 NSaved=   9.
 NSaved= 9 IEnMin= 9 EnMin= -115.063355934112     IErMin= 9 ErrMin= 2.42D-06
 ErrMax= 2.42D-06 EMaxC= 1.00D-01 BMatC= 3.80D-10 BMatP= 7.96D-09
 IDIUse=1 WtCom= 1.00D+00 WtEn= 0.00D+00
 Coeff-Com: -0.194D-05 0.654D-05-0.897D-04-0.508D-03-0.158D-03 0.684D-02
 Coeff-Com:  0.230D-01-0.353D+00 0.132D+01
 Coeff:     -0.194D-05 0.654D-05-0.897D-04-0.508D-03-0.158D-03 0.684D-02
 Coeff:      0.230D-01-0.353D+00 0.132D+01
 Gap=     0.601 Goal=   None    Shift=    0.000
 RMSDP=9.27D-07 MaxDP=9.05D-06 DE=-2.18D-08 OVMax= 2.40D-05

 Cycle  10  Pass 1  IDiag  1:
 E= -115.063355935264     Delta-E=       -0.000000001151 Rises=F Damp=F
 DIIS: error= 5.89D-07 at cycle  10 NSaved=  10.
 NSaved=10 IEnMin=10 EnMin= -115.063355935264     IErMin=10 ErrMin= 5.89D-07
 ErrMax= 5.89D-07 EMaxC= 1.00D-01 BMatC= 1.30D-11 BMatP= 3.80D-10
 IDIUse=1 WtCom= 1.00D+00 WtEn= 0.00D+00
 Coeff-Com:  0.600D-06 0.522D-06 0.657D-05 0.406D-04-0.132D-03-0.116D-02
 Coeff-Com:  0.575D-02 0.311D-01-0.308D+00 0.127D+01
 Coeff:      0.600D-06 0.522D-06 0.657D-05 0.406D-04-0.132D-03-0.116D-02
 Coeff:      0.575D-02 0.311D-01-0.308D+00 0.127D+01
 Gap=     0.601 Goal=   None    Shift=    0.000
 RMSDP=1.58D-07 MaxDP=1.32D-06 DE=-1.15D-09 OVMax= 3.24D-06

 Cycle  11  Pass 1  IDiag  1:
 E= -115.063355935297     Delta-E=       -0.000000000034 Rises=F Damp=F
 DIIS: error= 9.27D-08 at cycle  11 NSaved=  11.
 NSaved=11 IEnMin=11 EnMin= -115.063355935297     IErMin=11 ErrMin= 9.27D-08
 ErrMax= 9.27D-08 EMaxC= 1.00D-01 BMatC= 4.55D-13 BMatP= 1.30D-11
 IDIUse=1 WtCom= 1.00D+00 WtEn= 0.00D+00
 Coeff-Com: -0.927D-07-0.588D-06 0.402D-05 0.249D-04 0.399D-04-0.240D-03
 Coeff-Com: -0.210D-02 0.124D-01-0.136D-01-0.159D+00 0.116D+01
 Coeff:     -0.927D-07-0.588D-06 0.402D-05 0.249D-04 0.399D-04-0.240D-03
 Coeff:     -0.210D-02 0.124D-01-0.136D-01-0.159D+00 0.116D+01
 Gap=     0.601 Goal=   None    Shift=    0.000
 RMSDP=2.16D-08 MaxDP=1.85D-07 DE=-3.35D-11 OVMax= 4.77D-07

 Cycle  12  Pass 1  IDiag  1:
 E= -115.063355935298     Delta-E=       -0.000000000001 Rises=F Damp=F
 DIIS: error= 2.81D-08 at cycle  12 NSaved=  12.
 NSaved=12 IEnMin=12 EnMin= -115.063355935298     IErMin=12 ErrMin= 2.81D-08
 ErrMax= 2.81D-08 EMaxC= 1.00D-01 BMatC= 2.40D-14 BMatP= 4.55D-13
 IDIUse=1 WtCom= 1.00D+00 WtEn= 0.00D+00
 Coeff-Com: -0.143D-08 0.120D-06-0.135D-05-0.872D-05-0.241D-05 0.126D-03
 Coeff-Com:  0.159D-03-0.460D-02 0.205D-01-0.388D-01-0.248D+00 0.127D+01
 Coeff:     -0.143D-08 0.120D-06-0.135D-05-0.872D-05-0.241D-05 0.126D-03
 Coeff:      0.159D-03-0.460D-02 0.205D-01-0.388D-01-0.248D+00 0.127D+01
 Gap=     0.601 Goal=   None    Shift=    0.000
 RMSDP=6.58D-09 MaxDP=5.78D-08 DE=-1.08D-12 OVMax= 1.14D-07

 SCF Done:  E(RHF) =  -115.063355935     A.U. after   12 cycles
             Convg  =    0.6580D-08             -V/T =  1.9992
 KE= 1.151501033168D+02 PE=-3.527118162078D+02 EE= 8.182893160092D+01
 Leave Link  502 at Sun Dec 29 12:26:12 2019, MaxMem=   91750400 cpu:       0.1
 (Enter /opt/g09gh/gaussian/g09/l701.exe)
 Compute integral first derivatives.
 ... and contract with generalized density number  0.
 Leave Link  701 at Sun Dec 29 12:26:12 2019, MaxMem=   91750400 cpu:       0.1
 (Enter /opt/g09gh/gaussian/g09/l702.exe)
 L702 exits ... SP integral derivatives will be done elsewhere.
 Leave Link  702 at Sun Dec 29 12:26:12 2019, MaxMem=   91750400 cpu:       0.0
 (Enter /opt/g09gh/gaussian/g09/l703.exe)
 Compute integral first derivatives, UseDBF=F ICtDFT=           0.
 Integral derivatives from FoFDir, PRISM(SPDF).
 Calling FoFJK, ICntrl=      2127 FMM=F ISym2X=0 I1Cent= 0 IOpClX= 0 NMat=1 NMatS=1 NMatT=0.
 FoFCou: FMM=F IPFlag=           0 FMFlag=      100000 FMFlg1=         800
         NFxFlg=           0 DoJE=F BraDBF=F KetDBF=F FulRan=T
         Omega=  0.000000  0.000000  1.000000  0.000000  0.000000 ICntrl=    2127 IOpCl=  0
         NMat0=    1 NMatS0=    1 NMatT0=    0 NMatD0=    1 NMtDS0=    0 NMtDT0=    0
         I1Cent=           0 NGrid=           0.
 Symmetry not used in FoFCou.
 Leave Link  703 at Sun Dec 29 12:26:13 2019, MaxMem=   91750400 cpu:       0.3
 (Enter /opt/g09gh/gaussian/g09/l716.exe)
 Dipole        =-3.79032614D-01-6.77527656D-01-5.43697006D-03
 ***** Axes restored to original set *****
 -------------------------------------------------------------------
 Center     Atomic                   Forces (Hartrees/Bohr)
 Number     Number              X              Y              Z
 -------------------------------------------------------------------
      1        8          -0.010938566   -0.003368250   -0.000235964
      2        6           0.010722928    0.004596101   -0.000208362
      3        1           0.000050568   -0.001037746   -0.001459597
      4        1          -0.002725797    0.001487095   -0.000201971
      5        1           0.000898408   -0.000945908    0.001058767
      6        1           0.001992459   -0.000731293    0.001047127
 -------------------------------------------------------------------
 Cartesian Forces:  Max     0.010938566 RMS     0.004003595
 Leave Link  716 at Sun Dec 29 12:26:13 2019, MaxMem=   91750400 cpu:       0.0
 (Enter /opt/g09gh/gaussian/g09/l103.exe)

 GradGradGradGradGradGradGradGradGradGradGradGradGradGradGradGradGradGrad
 Berny optimization.
 Using GEDIIS/GDIIS optimizer.
 Internal  Forces:  Max     0.009330951 RMS     0.002943254
 Search for a local minimum.
 Step number   2 out of a maximum of  100
 All quantities printed in internal units (Hartrees-Bohrs-Radians)
 RMS Force = .29433D-02 SwitMx=.10000D-02 MixMth= 1
 Mixed Optimization -- RFO/linear search
 Update second derivatives using D2CorX and points    1    2
 DE= -3.46D-03 DEPred=-3.59D-03 R= 9.65D-01
 SS=  1.41D+00  RLast= 1.78D-01 DXNew= 5.0454D-01 5.3443D-01
 Trust test= 9.65D-01 RLast= 1.78D-01 DXMaxT set to 5.05D-01
 The second derivative matrix:
                          R1        R2        R3        R4        R5
           R1           0.36976
           R2          -0.04919   0.53612
           R3          -0.00762   0.00969   0.34686
           R4          -0.01288   0.01423   0.00542   0.35195
           R5          -0.00779   0.00575   0.00256   0.00388   0.34457
           A1           0.01416   0.01214   0.00104   0.00198   0.00150
           A2           0.01156  -0.01040  -0.00427  -0.00650  -0.00299
           A3          -0.00590   0.01577   0.00481   0.00750   0.00370
           A4           0.01498  -0.01115  -0.00495  -0.00750  -0.00339
           A5          -0.01505  -0.01141  -0.00073  -0.00151  -0.00128
           A6          -0.00104   0.01286   0.00339   0.00536   0.00274
           A7          -0.00563  -0.00050   0.00068   0.00094   0.00030
           D1           0.00361   0.02470   0.00571   0.00915   0.00487
           D2          -0.00236  -0.01025  -0.00225  -0.00362  -0.00196
           D3          -0.00420  -0.02037  -0.00453  -0.00730  -0.00393
                          A1        A2        A3        A4        A5
           A1           0.15492
           A2          -0.00203   0.16505
           A3          -0.00006  -0.00604   0.16617
           A4          -0.00287   0.00578  -0.00714   0.16656
           A5           0.00524   0.00166   0.00050   0.00246   0.15462
           A6          -0.00106  -0.00440   0.00406  -0.00529   0.00138
           A7           0.00157  -0.00062   0.00130  -0.00059  -0.00153
           D1          -0.00355  -0.00766   0.00636  -0.00938   0.00412
           D2           0.00170   0.00306  -0.00242   0.00377  -0.00193
           D3           0.00325   0.00614  -0.00493   0.00756  -0.00371
                          A6        A7        D1        D2        D3
           A6           0.16247
           A7           0.00117   0.15978
           D1           0.00349   0.00243   0.01650
           D2          -0.00125  -0.00103  -0.00134   0.01273
           D3          -0.00260  -0.00204  -0.00288   0.00087   0.01425
 Use linear search instead of GDIIS.
     Eigenvalues ---    0.01220   0.10332   0.10586   0.14947   0.16000
     Eigenvalues ---    0.16000   0.17913   0.34219   0.34342   0.34628
     Eigenvalues ---    0.36947   0.555941000.000001000.000001000.00000
 RFO step:  Lambda=-5.20684100D-04 EMin= 1.21974877D-02
 Quartic linear search produced a step of -0.01359.
 Iteration  1 RMS(Cart)=  0.01842063 RMS(Int)=  0.00040137
 Iteration  2 RMS(Cart)=  0.00033282 RMS(Int)=  0.00000971
 Iteration  3 RMS(Cart)=  0.00000012 RMS(Int)=  0.00000971
 Variable       Old X    -DE/DX   Delta X   Delta X   Delta X     New X
                                 (Linear)    (Quad)   (Total)
    R1        2.66977  -0.00933   0.00056  -0.02642  -0.02586   2.64391
    R2        1.77224   0.00153   0.00093  -0.00321  -0.00228   1.76996
    R3        2.04818   0.00166   0.00027   0.00302   0.00328   2.05146
    R4        2.03508   0.00241   0.00044   0.00405   0.00449   2.03957
    R5        2.05026   0.00094   0.00025   0.00107   0.00132   2.05158
    A1        1.90614   0.00258  -0.00070   0.02046   0.01976   1.92590
    A2        1.95627  -0.00131  -0.00081  -0.00420  -0.00503   1.95124
    A3        1.85240   0.00374   0.00054   0.02190   0.02244   1.87484
    A4        1.95741  -0.00224  -0.00103  -0.00842  -0.00946   1.94795
    A5        1.89699  -0.00048   0.00076  -0.00561  -0.00486   1.89213
    A6        1.90259   0.00044   0.00022  -0.00325  -0.00306   1.89953
    A7        1.89596  -0.00001   0.00033   0.00026   0.00059   1.89655
    D1       -0.89757   0.00043   0.00103  -0.04310  -0.04207  -0.93964
    D2       -2.96604  -0.00058   0.00024  -0.04755  -0.04732  -3.01337
    D3        1.24929  -0.00165   0.00010  -0.05681  -0.05670   1.19260
         Item               Value     Threshold  Converged?
 Maximum Force            0.009331     0.000450     NO 
 RMS     Force            0.002943     0.000300     NO 
 Maximum Displacement     0.040729     0.001800     NO 
 RMS     Displacement     0.018365     0.001200     NO 
 Predicted change in Energy=-2.625725D-04
 GradGradGradGradGradGradGradGradGradGradGradGradGradGradGradGradGradGrad

 Leave Link  103 at Sun Dec 29 12:26:13 2019, MaxMem=   91750400 cpu:       0.0
 (Enter /opt/g09gh/gaussian/g09/l202.exe)
                          Input orientation:                          
 ---------------------------------------------------------------------
 Center     Atomic      Atomic             Coordinates (Angstroms)
 Number     Number       Type             X           Y           Z
 ---------------------------------------------------------------------
      1          8           0        0.727879    0.097300   -0.036825
      2          6           0       -0.664615   -0.029966    0.010446
      3          1           0       -1.031999   -0.721199   -0.741703
      4          1           0       -1.085013    0.944183   -0.187471
      5          1           0       -1.002789   -0.362429    0.987044
      6          1           0        1.133938   -0.744880    0.018901
 ---------------------------------------------------------------------
                    Distance matrix (angstroms):
                    1          2          3          4          5
     1  O    0.000000
     2  C    1.399096   0.000000
     3  H    2.064937   1.085588   0.000000
     4  H    2.006610   1.079293   1.755984   0.000000
     5  H    2.062734   1.085650   1.765823   1.758829   0.000000
     6  H    0.936620   1.935449   2.295727   2.796295   2.376799
                    6
     6  H    0.000000
 Stoichiometry    CH4O
 Framework group  C1[X(CH4O)]
 Deg. of freedom    12
 Full point group                 C1      NOp   1
 Largest Abelian subgroup         C1      NOp   1
 Largest concise Abelian subgroup C1      NOp   1
                         Standard orientation:                         
 ---------------------------------------------------------------------
 Center     Atomic      Atomic             Coordinates (Angstroms)
 Number     Number       Type             X           Y           Z
 ---------------------------------------------------------------------
      1          8           0        0.735766    0.119597    0.000449
      2          6           0       -0.656387   -0.019612    0.000434
      3          1           0       -0.998361   -0.651062   -0.813708
      4          1           0       -1.079529    0.964585   -0.130643
      5          1           0       -1.017092   -0.430802    0.938224
      6          1           0        1.147181   -0.721827   -0.000073
 ---------------------------------------------------------------------
 Rotational constants (GHZ):    132.0318352     25.4404076     24.5931391
 Leave Link  202 at Sun Dec 29 12:26:13 2019, MaxMem=   91750400 cpu:       0.0
 (Enter /opt/g09gh/gaussian/g09/l301.exe)
 Standard basis: 6-311G(d) (5D, 7F)
 Ernie: Thresh=  0.10000D-02 Tol=  0.10000D-05 Strict=F.
 There are    48 symmetry adapted basis functions of A   symmetry.
 Integral buffers will be    131072 words long.
 Raffenetti 1 integral format.
 Two-electron integral symmetry is turned on.
    48 basis functions,    84 primitive gaussians,    50 cartesian basis functions
     9 alpha electrons        9 beta electrons
       nuclear repulsion energy        40.8629290285 Hartrees.
 IExCor=    0 DFT=F Ex=HF Corr=None ExCW=0 ScaHFX=  1.000000
 ScaDFX=  1.000000  1.000000  1.000000  1.000000 ScalE2=  1.000000  1.000000
 IRadAn=      0 IRanWt=     -1 IRanGd=            0 ICorTp=0
 NAtoms=    6 NActive=    6 NUniq=    6 SFac= 7.50D-01 NAtFMM=   80 NAOKFM=F Big=F
 Leave Link  301 at Sun Dec 29 12:26:13 2019, MaxMem=   91750400 cpu:       0.0
 (Enter /opt/g09gh/gaussian/g09/l302.exe)
 NPDir=0 NMtPBC=     1 NCelOv=     1 NCel=       1 NClECP=     1 NCelD=      1
         NCelK=      1 NCelE2=     1 NClLst=     1 CellRange=     0.0.
 One-electron integrals computed using PRISM.
 NBasis=    48 RedAO= T  NBF=    48
 NBsUse=    48 1.00D-06 NBFU=    48
 Leave Link  302 at Sun Dec 29 12:26:13 2019, MaxMem=   91750400 cpu:       0.1
 (Enter /opt/g09gh/gaussian/g09/l303.exe)
 DipDrv:  MaxL=1.
 Leave Link  303 at Sun Dec 29 12:26:13 2019, MaxMem=   91750400 cpu:       0.0
 (Enter /opt/g09gh/gaussian/g09/l401.exe)
 Initial guess read from the read-write file.
 B after Tr=     0.000000    0.000000    0.000000
         Rot=    1.000000    0.000000    0.000000    0.000000 Ang=   0.00 deg.
 Guess basis will be translated and rotated to current coordinates.
 Initial guess orbital symmetries:
       Occupied  (A) (A) (A) (A) (A) (A) (A) (A) (A)
       Virtual   (A) (A) (A) (A) (A) (A) (A) (A) (A) (A) (A) (A)
                 (A) (A) (A) (A) (A) (A) (A) (A) (A) (A) (A) (A)
                 (A) (A) (A) (A) (A) (A) (A) (A) (A) (A) (A) (A)
                 (A) (A) (A)
 The electronic state of the initial guess is 1-A.
 Generating alternative initial guess.
 Harris functional with IExCor=  205 diagonalized for initial guess.
 ExpMin= 1.03D-01 ExpMax= 8.59D+03 ExpMxC= 1.30D+03 IAcc=1 IRadAn=         1 AccDes= 0.00D+00
 HarFok:  IExCor=  205 AccDes= 0.00D+00 IRadAn=         1 IDoV= 1
 ScaDFX=  1.000000  1.000000  1.000000  1.000000
 FoFCou: FMM=F IPFlag=           0 FMFlag=      100000 FMFlg1=           0
         NFxFlg=           0 DoJE=T BraDBF=F KetDBF=T FulRan=T
         Omega=  0.000000  0.000000  1.000000  0.000000  0.000000 ICntrl=     500 IOpCl=  0
         NMat0=    1 NMatS0=    1 NMatT0=    0 NMatD0=    1 NMtDS0=    0 NMtDT0=    0
         I1Cent=           4 NGrid=           0.
 Petite list used in FoFCou.
 Harris En= -115.248888403034    
 Leave Link  401 at Sun Dec 29 12:26:13 2019, MaxMem=   91750400 cpu:       0.3
 (Enter /opt/g09gh/gaussian/g09/l502.exe)
 Closed shell SCF:
 Requested convergence on RMS density matrix=1.00D-08 within 128 cycles.
 Requested convergence on MAX density matrix=1.00D-06.
 Requested convergence on             energy=1.00D-06.
 No special actions if energy rises.
 Using DIIS extrapolation, IDIIS=  1040.
 Integral symmetry usage will be decided dynamically.
 Keep R1 ints in memory in canonical form, NReq=1659792.
 IEnd=       26328 IEndB=       26328 NGot=    91750400 MDV=    90929785
 LenX=    90929785 LenY=    90926844
 Symmetry not used in FoFDir.
 MinBra= 0 MaxBra= 2 Meth= 1.
 IRaf=       0 NMat=   1 IRICut=       1 DoRegI=T DoRafI=F ISym2E= 0 JSym2E=0.

 Cycle   1  Pass 1  IDiag  1:
 E= -115.062642367639    
 DIIS: error= 4.05D-03 at cycle   1 NSaved=   1.
 NSaved= 1 IEnMin= 1 EnMin= -115.062642367639     IErMin= 1 ErrMin= 4.05D-03
 ErrMax= 4.05D-03 EMaxC= 1.00D-01 BMatC= 5.87D-04 BMatP= 5.87D-04
 IDIUse=3 WtCom= 9.59D-01 WtEn= 4.05D-02
 Coeff-Com:  0.100D+01
 Coeff-En:   0.100D+01
 Coeff:      0.100D+01
 Gap=     0.600 Goal=   None    Shift=    0.000
 GapD=    0.600 DampG=2.000 DampE=1.000 DampFc=2.0000 IDamp=-1.
 RMSDP=3.16D-04 MaxDP=2.40D-03              OVMax= 7.93D-03

 Cycle   2  Pass 1  IDiag  1:
 E= -115.063513938992     Delta-E=       -0.000871571353 Rises=F Damp=F
 DIIS: error= 1.32D-03 at cycle   2 NSaved=   2.
 NSaved= 2 IEnMin= 2 EnMin= -115.063513938992     IErMin= 2 ErrMin= 1.32D-03
 ErrMax= 1.32D-03 EMaxC= 1.00D-01 BMatC= 4.95D-05 BMatP= 5.87D-04
 IDIUse=3 WtCom= 9.87D-01 WtEn= 1.32D-02
 Coeff-Com: -0.319D+00 0.132D+01
 Coeff-En:   0.000D+00 0.100D+01
 Coeff:     -0.315D+00 0.131D+01
 Gap=     0.599 Goal=   None    Shift=    0.000
 RMSDP=1.81D-04 MaxDP=1.67D-03 DE=-8.72D-04 OVMax= 3.84D-03

 Cycle   3  Pass 1  IDiag  1:
 E= -115.063623871433     Delta-E=       -0.000109932441 Rises=F Damp=F
 DIIS: error= 2.13D-04 at cycle   3 NSaved=   3.
 NSaved= 3 IEnMin= 3 EnMin= -115.063623871433     IErMin= 3 ErrMin= 2.13D-04
 ErrMax= 2.13D-04 EMaxC= 1.00D-01 BMatC= 2.02D-06 BMatP= 4.95D-05
 IDIUse=3 WtCom= 9.98D-01 WtEn= 2.13D-03
 Coeff-Com: -0.248D-01-0.150D-01 0.104D+01
 Coeff-En:   0.000D+00 0.000D+00 0.100D+01
 Coeff:     -0.248D-01-0.150D-01 0.104D+01
 Gap=     0.600 Goal=   None    Shift=    0.000
 RMSDP=5.22D-05 MaxDP=4.19D-04 DE=-1.10D-04 OVMax= 8.38D-04

 Cycle   4  Pass 1  IDiag  1:
 E= -115.063627861519     Delta-E=       -0.000003990086 Rises=F Damp=F
 DIIS: error= 7.67D-05 at cycle   4 NSaved=   4.
 NSaved= 4 IEnMin= 4 EnMin= -115.063627861519     IErMin= 4 ErrMin= 7.67D-05
 ErrMax= 7.67D-05 EMaxC= 1.00D-01 BMatC= 4.08D-07 BMatP= 2.02D-06
 IDIUse=1 WtCom= 1.00D+00 WtEn= 0.00D+00
 Coeff-Com:  0.277D-01-0.152D+00 0.300D+00 0.824D+00
 Coeff:      0.277D-01-0.152D+00 0.300D+00 0.824D+00
 Gap=     0.600 Goal=   None    Shift=    0.000
 RMSDP=1.79D-05 MaxDP=1.41D-04 DE=-3.99D-06 OVMax= 2.62D-04

 Cycle   5  Pass 1  IDiag  1:
 E= -115.063628325826     Delta-E=       -0.000000464307 Rises=F Damp=F
 DIIS: error= 1.01D-05 at cycle   5 NSaved=   5.
 NSaved= 5 IEnMin= 5 EnMin= -115.063628325826     IErMin= 5 ErrMin= 1.01D-05
 ErrMax= 1.01D-05 EMaxC= 1.00D-01 BMatC= 7.03D-09 BMatP= 4.08D-07
 IDIUse=1 WtCom= 1.00D+00 WtEn= 0.00D+00
 Coeff-Com: -0.223D-02 0.177D-01-0.793D-01-0.996D-01 0.116D+01
 Coeff:     -0.223D-02 0.177D-01-0.793D-01-0.996D-01 0.116D+01
 Gap=     0.600 Goal=   None    Shift=    0.000
 RMSDP=5.05D-06 MaxDP=3.51D-05 DE=-4.64D-07 OVMax= 7.34D-05

 Cycle   6  Pass 1  IDiag  1:
 E= -115.063628344929     Delta-E=       -0.000000019103 Rises=F Damp=F
 DIIS: error= 2.51D-06 at cycle   6 NSaved=   6.
 NSaved= 6 IEnMin= 6 EnMin= -115.063628344929     IErMin= 6 ErrMin= 2.51D-06
 ErrMax= 2.51D-06 EMaxC= 1.00D-01 BMatC= 4.88D-10 BMatP= 7.03D-09
 IDIUse=1 WtCom= 1.00D+00 WtEn= 0.00D+00
 Coeff-Com: -0.109D-02 0.570D-02-0.800D-02-0.343D-01-0.758D-01 0.111D+01
 Coeff:     -0.109D-02 0.570D-02-0.800D-02-0.343D-01-0.758D-01 0.111D+01
 Gap=     0.600 Goal=   None    Shift=    0.000
 RMSDP=9.48D-07 MaxDP=8.01D-06 DE=-1.91D-08 OVMax= 2.10D-05

 Cycle   7  Pass 1  IDiag  1:
 E= -115.063628346300     Delta-E=       -0.000000001371 Rises=F Damp=F
 DIIS: error= 9.77D-07 at cycle   7 NSaved=   7.
 NSaved= 7 IEnMin= 7 EnMin= -115.063628346300     IErMin= 7 ErrMin= 9.77D-07
 ErrMax= 9.77D-07 EMaxC= 1.00D-01 BMatC= 6.56D-11 BMatP= 4.88D-10
 IDIUse=1 WtCom= 1.00D+00 WtEn= 0.00D+00
 Coeff-Com:  0.285D-03-0.202D-02 0.843D-02 0.107D-01-0.113D+00-0.253D-01
 Coeff-Com:  0.112D+01
 Coeff:      0.285D-03-0.202D-02 0.843D-02 0.107D-01-0.113D+00-0.253D-01
 Coeff:      0.112D+01
 Gap=     0.600 Goal=   None    Shift=    0.000
 RMSDP=3.38D-07 MaxDP=3.26D-06 DE=-1.37D-09 OVMax= 8.46D-06

 Cycle   8  Pass 1  IDiag  1:
 E= -115.063628346482     Delta-E=       -0.000000000181 Rises=F Damp=F
 DIIS: error= 3.06D-07 at cycle   8 NSaved=   8.
 NSaved= 8 IEnMin= 8 EnMin= -115.063628346482     IErMin= 8 ErrMin= 3.06D-07
 ErrMax= 3.06D-07 EMaxC= 1.00D-01 BMatC= 5.45D-12 BMatP= 6.56D-11
 IDIUse=1 WtCom= 1.00D+00 WtEn= 0.00D+00
 Coeff-Com:  0.126D-03-0.680D-03 0.116D-02 0.395D-02 0.614D-02-0.123D+00
 Coeff-Com: -0.149D-01 0.113D+01
 Coeff:      0.126D-03-0.680D-03 0.116D-02 0.395D-02 0.614D-02-0.123D+00
 Coeff:     -0.149D-01 0.113D+01
 Gap=     0.600 Goal=   None    Shift=    0.000
 RMSDP=1.23D-07 MaxDP=1.13D-06 DE=-1.81D-10 OVMax= 3.01D-06

 Cycle   9  Pass 1  IDiag  1:
 E= -115.063628346498     Delta-E=       -0.000000000016 Rises=F Damp=F
 DIIS: error= 6.23D-08 at cycle   9 NSaved=   9.
 NSaved= 9 IEnMin= 9 EnMin= -115.063628346498     IErMin= 9 ErrMin= 6.23D-08
 ErrMax= 6.23D-08 EMaxC= 1.00D-01 BMatC= 1.82D-13 BMatP= 5.45D-12
 IDIUse=1 WtCom= 1.00D+00 WtEn= 0.00D+00
 Coeff-Com: -0.245D-04 0.153D-03-0.484D-03-0.888D-03 0.467D-02 0.160D-01
 Coeff-Com: -0.475D-01-0.126D+00 0.115D+01
 Coeff:     -0.245D-04 0.153D-03-0.484D-03-0.888D-03 0.467D-02 0.160D-01
 Coeff:     -0.475D-01-0.126D+00 0.115D+01
 Gap=     0.600 Goal=   None    Shift=    0.000
 RMSDP=2.04D-08 MaxDP=1.84D-07 DE=-1.60D-11 OVMax= 4.83D-07

 Cycle  10  Pass 1  IDiag  1:
 E= -115.063628346498     Delta-E=       -0.000000000001 Rises=F Damp=F
 DIIS: error= 1.53D-08 at cycle  10 NSaved=  10.
 NSaved=10 IEnMin=10 EnMin= -115.063628346498     IErMin=10 ErrMin= 1.53D-08
 ErrMax= 1.53D-08 EMaxC= 1.00D-01 BMatC= 1.44D-14 BMatP= 1.82D-13
 IDIUse=1 WtCom= 1.00D+00 WtEn= 0.00D+00
 Coeff-Com:  0.579D-06-0.967D-05 0.786D-04 0.602D-04-0.174D-02 0.113D-02
 Coeff-Com:  0.147D-01-0.209D-01-0.348D+00 0.135D+01
 Coeff:      0.579D-06-0.967D-05 0.786D-04 0.602D-04-0.174D-02 0.113D-02
 Coeff:      0.147D-01-0.209D-01-0.348D+00 0.135D+01
 Gap=     0.600 Goal=   None    Shift=    0.000
 RMSDP=6.38D-09 MaxDP=6.66D-08 DE=-5.68D-13 OVMax= 1.61D-07

 SCF Done:  E(RHF) =  -115.063628346     A.U. after   10 cycles
             Convg  =    0.6379D-08             -V/T =  1.9991
 KE= 1.151707247434D+02 PE=-3.531074077535D+02 EE= 8.201012563506D+01
 Leave Link  502 at Sun Dec 29 12:26:14 2019, MaxMem=   91750400 cpu:       0.2
 (Enter /opt/g09gh/gaussian/g09/l701.exe)
 Compute integral first derivatives.
 ... and contract with generalized density number  0.
 Leave Link  701 at Sun Dec 29 12:26:14 2019, MaxMem=   91750400 cpu:       0.1
 (Enter /opt/g09gh/gaussian/g09/l702.exe)
 L702 exits ... SP integral derivatives will be done elsewhere.
 Leave Link  702 at Sun Dec 29 12:26:14 2019, MaxMem=   91750400 cpu:       0.0
 (Enter /opt/g09gh/gaussian/g09/l703.exe)
 Compute integral first derivatives, UseDBF=F ICtDFT=           0.
 Integral derivatives from FoFDir, PRISM(SPDF).
 Calling FoFJK, ICntrl=      2127 FMM=F ISym2X=0 I1Cent= 0 IOpClX= 0 NMat=1 NMatS=1 NMatT=0.
 FoFCou: FMM=F IPFlag=           0 FMFlag=      100000 FMFlg1=         800
         NFxFlg=           0 DoJE=F BraDBF=F KetDBF=F FulRan=T
         Omega=  0.000000  0.000000  1.000000  0.000000  0.000000 ICntrl=    2127 IOpCl=  0
         NMat0=    1 NMatS0=    1 NMatT0=    0 NMatD0=    1 NMtDS0=    0 NMtDT0=    0
         I1Cent=           0 NGrid=           0.
 Symmetry not used in FoFCou.
 Leave Link  703 at Sun Dec 29 12:26:14 2019, MaxMem=   91750400 cpu:       0.3
 (Enter /opt/g09gh/gaussian/g09/l716.exe)
 Dipole        =-3.48739091D-01-6.72551499D-01-7.33704112D-03
 ***** Axes restored to original set *****
 -------------------------------------------------------------------
 Center     Atomic                   Forces (Hartrees/Bohr)
 Number     Number              X              Y              Z
 -------------------------------------------------------------------
      1        8          -0.001116937    0.003450744   -0.001331753
      2        6           0.002399162   -0.000923520    0.000251442
      3        1          -0.000827860   -0.000470889   -0.000761690
      4        1          -0.000015503    0.000752378    0.000217582
      5        1          -0.000950407   -0.000353367    0.000702384
      6        1           0.000511544   -0.002455347    0.000922035
 -------------------------------------------------------------------
 Cartesian Forces:  Max     0.003450744 RMS     0.001340891
 Leave Link  716 at Sun Dec 29 12:26:14 2019, MaxMem=   91750400 cpu:       0.0
 (Enter /opt/g09gh/gaussian/g09/l103.exe)

 GradGradGradGradGradGradGradGradGradGradGradGradGradGradGradGradGradGrad
 Berny optimization.
 Using GEDIIS/GDIIS optimizer.
 Internal  Forces:  Max     0.002484406 RMS     0.000944745
 Search for a local minimum.
 Step number   3 out of a maximum of  100
 All quantities printed in internal units (Hartrees-Bohrs-Radians)
 RMS Force = .94475D-03 SwitMx=.10000D-02 MixMth= 2
 Mixed Optimization -- En-DIIS/RFO-DIIS
 Update second derivatives using D2CorX and points    1    2    3
 DE= -2.72D-04 DEPred=-2.63D-04 R= 1.04D+00
 SS=  1.41D+00  RLast= 9.47D-02 DXNew= 8.4853D-01 2.8417D-01
 Trust test= 1.04D+00 RLast= 9.47D-02 DXMaxT set to 5.05D-01
 The second derivative matrix:
                          R1        R2        R3        R4        R5
           R1           0.35685
           R2          -0.00317   0.55820
           R3           0.01353   0.01201   0.34462
           R4          -0.00041   0.01088   0.00219   0.34894
           R5           0.01180   0.01084   0.00170   0.00155   0.34494
           A1          -0.00647  -0.01128  -0.00554   0.00040  -0.00611
           A2           0.01953  -0.00287  -0.00244  -0.00614  -0.00075
           A3          -0.01203  -0.00511  -0.00286   0.00386  -0.00406
           A4           0.02854   0.00241  -0.00149  -0.00675   0.00075
           A5          -0.01056  -0.00675   0.00056  -0.00130   0.00024
           A6          -0.02293   0.00726   0.00446   0.00790   0.00245
           A7          -0.00534  -0.00118   0.00037   0.00071   0.00003
           D1          -0.02481   0.01734   0.00706   0.01243   0.00445
           D2          -0.01185  -0.01137  -0.00126  -0.00220  -0.00159
           D3           0.01106  -0.01167  -0.00329  -0.00800  -0.00180
                          A1        A2        A3        A4        A5
           A1           0.17222
           A2          -0.00772   0.16671
           A3           0.01210  -0.01012   0.17266
           A4          -0.01303   0.00885  -0.01436   0.17216
           A5           0.00162   0.00293  -0.00216   0.00467   0.15535
           A6           0.00720  -0.00664   0.01245  -0.00954  -0.00033
           A7           0.00179  -0.00066   0.00128  -0.00067  -0.00160
           D1           0.00724  -0.01060   0.01728  -0.01495   0.00188
           D2           0.00467   0.00226   0.00100   0.00225  -0.00252
           D3          -0.00497   0.00860  -0.01184   0.01207  -0.00198
                          A6        A7        D1        D2        D3
           A6           0.16250
           A7           0.00143   0.15976
           D1           0.00358   0.00276   0.01669
           D2          -0.00174  -0.00090  -0.00195   0.01229
           D3          -0.00473  -0.00220  -0.00569   0.00032   0.01733
 Use linear search instead of GDIIS.
     Eigenvalues ---    0.00965   0.10419   0.10604   0.15146   0.16000
     Eigenvalues ---    0.16201   0.20528   0.33626   0.34312   0.35062
     Eigenvalues ---    0.38033   0.560541000.000001000.000001000.00000
 RFO step:  Lambda=-9.01797225D-05 EMin= 9.65087224D-03
 Quartic linear search produced a step of  0.03909.
 Iteration  1 RMS(Cart)=  0.01226027 RMS(Int)=  0.00027750
 Iteration  2 RMS(Cart)=  0.00023419 RMS(Int)=  0.00000863
 Iteration  3 RMS(Cart)=  0.00000008 RMS(Int)=  0.00000863
 Variable       Old X    -DE/DX   Delta X   Delta X   Delta X     New X
                                 (Linear)    (Quad)   (Total)
    R1        2.64391  -0.00050  -0.00101  -0.00496  -0.00597   2.63794
    R2        1.76996   0.00248  -0.00009   0.00390   0.00381   1.77376
    R3        2.05146   0.00111   0.00013   0.00354   0.00367   2.05514
    R4        2.03957   0.00065   0.00018   0.00218   0.00235   2.04192
    R5        2.05158   0.00104   0.00005   0.00310   0.00315   2.05473
    A1        1.92590  -0.00115   0.00077  -0.00439  -0.00362   1.92228
    A2        1.95124   0.00066  -0.00020   0.00478   0.00457   1.95581
    A3        1.87484  -0.00075   0.00088  -0.00325  -0.00237   1.87247
    A4        1.94795   0.00094  -0.00037   0.00597   0.00559   1.95354
    A5        1.89213  -0.00009  -0.00019  -0.00233  -0.00252   1.88961
    A6        1.89953  -0.00044  -0.00012  -0.00199  -0.00213   1.89740
    A7        1.89655  -0.00038   0.00002  -0.00365  -0.00363   1.89293
    D1       -0.93964  -0.00067  -0.00164  -0.04271  -0.04437  -0.98401
    D2       -3.01337  -0.00047  -0.00185  -0.04058  -0.04243  -3.05580
    D3        1.19260  -0.00008  -0.00222  -0.03754  -0.03974   1.15286
         Item               Value     Threshold  Converged?
 Maximum Force            0.002484     0.000450     NO 
 RMS     Force            0.000945     0.000300     NO 
 Maximum Displacement     0.031401     0.001800     NO 
 RMS     Displacement     0.012302     0.001200     NO 
 Predicted change in Energy=-4.600625D-05
 GradGradGradGradGradGradGradGradGradGradGradGradGradGradGradGradGradGrad

 Leave Link  103 at Sun Dec 29 12:26:14 2019, MaxMem=   91750400 cpu:       0.0
 (Enter /opt/g09gh/gaussian/g09/l202.exe)
                          Input orientation:                          
 ---------------------------------------------------------------------
 Center     Atomic      Atomic             Coordinates (Angstroms)
 Number     Number       Type             X           Y           Z
 ---------------------------------------------------------------------
      1          8           0        0.726796    0.098278   -0.050518
      2          6           0       -0.661883   -0.031441    0.007684
      3          1           0       -1.039812   -0.718921   -0.745487
      4          1           0       -1.083791    0.944920   -0.182770
      5          1           0       -0.997762   -0.366716    0.985965
      6          1           0        1.133852   -0.743112    0.035517
 ---------------------------------------------------------------------
                    Distance matrix (angstroms):
                    1          2          3          4          5
     1  O    0.000000
     2  C    1.395938   0.000000
     3  H    2.066809   1.087532   0.000000
     4  H    2.003126   1.080537   1.756973   0.000000
     5  H    2.065095   1.087317   1.767412   1.758901   0.000000
     6  H    0.938635   1.931816   2.309842   2.795540   2.364065
                    6
     6  H    0.000000
 Stoichiometry    CH4O
 Framework group  C1[X(CH4O)]
 Deg. of freedom    12
 Full point group                 C1      NOp   1
 Largest Abelian subgroup         C1      NOp   1
 Largest concise Abelian subgroup C1      NOp   1
                         Standard orientation:                         
 ---------------------------------------------------------------------
 Center     Atomic      Atomic             Coordinates (Angstroms)
 Number     Number       Type             X           Y           Z
 ---------------------------------------------------------------------
      1          8           0        0.734845    0.119513    0.000285
      2          6           0       -0.654127   -0.019767    0.000374
      3          1           0       -1.004917   -0.615720   -0.838978
      4          1           0       -1.076138    0.971028   -0.087904
      5          1           0       -1.017263   -0.467717    0.922183
      6          1           0        1.144324   -0.725095    0.000172
 ---------------------------------------------------------------------
 Rotational constants (GHZ):    131.7550740     25.5119280     24.6565441
 Leave Link  202 at Sun Dec 29 12:26:14 2019, MaxMem=   91750400 cpu:       0.0
 (Enter /opt/g09gh/gaussian/g09/l301.exe)
 Standard basis: 6-311G(d) (5D, 7F)
 Ernie: Thresh=  0.10000D-02 Tol=  0.10000D-05 Strict=F.
 There are    48 symmetry adapted basis functions of A   symmetry.
 Integral buffers will be    131072 words long.
 Raffenetti 1 integral format.
 Two-electron integral symmetry is turned on.
    48 basis functions,    84 primitive gaussians,    50 cartesian basis functions
     9 alpha electrons        9 beta electrons
       nuclear repulsion energy        40.8831409704 Hartrees.
 IExCor=    0 DFT=F Ex=HF Corr=None ExCW=0 ScaHFX=  1.000000
 ScaDFX=  1.000000  1.000000  1.000000  1.000000 ScalE2=  1.000000  1.000000
 IRadAn=      0 IRanWt=     -1 IRanGd=            0 ICorTp=0
 NAtoms=    6 NActive=    6 NUniq=    6 SFac= 7.50D-01 NAtFMM=   80 NAOKFM=F Big=F
 Leave Link  301 at Sun Dec 29 12:26:14 2019, MaxMem=   91750400 cpu:       0.1
 (Enter /opt/g09gh/gaussian/g09/l302.exe)
 NPDir=0 NMtPBC=     1 NCelOv=     1 NCel=       1 NClECP=     1 NCelD=      1
         NCelK=      1 NCelE2=     1 NClLst=     1 CellRange=     0.0.
 One-electron integrals computed using PRISM.
 NBasis=    48 RedAO= T  NBF=    48
 NBsUse=    48 1.00D-06 NBFU=    48
 Leave Link  302 at Sun Dec 29 12:26:14 2019, MaxMem=   91750400 cpu:       0.1
 (Enter /opt/g09gh/gaussian/g09/l303.exe)
 DipDrv:  MaxL=1.
 Leave Link  303 at Sun Dec 29 12:26:15 2019, MaxMem=   91750400 cpu:       0.0
 (Enter /opt/g09gh/gaussian/g09/l401.exe)
 Initial guess read from the read-write file.
 B after Tr=     0.000000    0.000000    0.000000
         Rot=    1.000000    0.000000    0.000000    0.000000 Ang=   0.00 deg.
 Guess basis will be translated and rotated to current coordinates.
 Initial guess orbital symmetries:
       Occupied  (A) (A) (A) (A) (A) (A) (A) (A) (A)
       Virtual   (A) (A) (A) (A) (A) (A) (A) (A) (A) (A) (A) (A)
                 (A) (A) (A) (A) (A) (A) (A) (A) (A) (A) (A) (A)
                 (A) (A) (A) (A) (A) (A) (A) (A) (A) (A) (A) (A)
                 (A) (A) (A)
 The electronic state of the initial guess is 1-A.
 Generating alternative initial guess.
 Harris functional with IExCor=  205 diagonalized for initial guess.
 ExpMin= 1.03D-01 ExpMax= 8.59D+03 ExpMxC= 1.30D+03 IAcc=1 IRadAn=         1 AccDes= 0.00D+00
 HarFok:  IExCor=  205 AccDes= 0.00D+00 IRadAn=         1 IDoV= 1
 ScaDFX=  1.000000  1.000000  1.000000  1.000000
 FoFCou: FMM=F IPFlag=           0 FMFlag=      100000 FMFlg1=           0
         NFxFlg=           0 DoJE=T BraDBF=F KetDBF=T FulRan=T
         Omega=  0.000000  0.000000  1.000000  0.000000  0.000000 ICntrl=     500 IOpCl=  0
         NMat0=    1 NMatS0=    1 NMatT0=    0 NMatD0=    1 NMtDS0=    0 NMtDT0=    0
         I1Cent=           4 NGrid=           0.
 Petite list used in FoFCou.
 Harris En= -115.248876043784    
 Leave Link  401 at Sun Dec 29 12:26:15 2019, MaxMem=   91750400 cpu:       0.3
 (Enter /opt/g09gh/gaussian/g09/l502.exe)
 Closed shell SCF:
 Requested convergence on RMS density matrix=1.00D-08 within 128 cycles.
 Requested convergence on MAX density matrix=1.00D-06.
 Requested convergence on             energy=1.00D-06.
 No special actions if energy rises.
 Using DIIS extrapolation, IDIIS=  1040.
 Integral symmetry usage will be decided dynamically.
 Keep R1 ints in memory in canonical form, NReq=1659792.
 IEnd=       26328 IEndB=       26328 NGot=    91750400 MDV=    90929785
 LenX=    90929785 LenY=    90926844
 Symmetry not used in FoFDir.
 MinBra= 0 MaxBra= 2 Meth= 1.
 IRaf=       0 NMat=   1 IRICut=       1 DoRegI=T DoRafI=F ISym2E= 0 JSym2E=0.

 Cycle   1  Pass 1  IDiag  1:
 E= -115.063222069672    
 DIIS: error= 3.14D-03 at cycle   1 NSaved=   1.
 NSaved= 1 IEnMin= 1 EnMin= -115.063222069672     IErMin= 1 ErrMin= 3.14D-03
 ErrMax= 3.14D-03 EMaxC= 1.00D-01 BMatC= 2.55D-04 BMatP= 2.55D-04
 IDIUse=3 WtCom= 9.69D-01 WtEn= 3.14D-02
 Coeff-Com:  0.100D+01
 Coeff-En:   0.100D+01
 Coeff:      0.100D+01
 Gap=     0.599 Goal=   None    Shift=    0.000
 GapD=    0.599 DampG=2.000 DampE=1.000 DampFc=2.0000 IDamp=-1.
 RMSDP=1.97D-04 MaxDP=1.81D-03              OVMax= 5.80D-03

 Cycle   2  Pass 1  IDiag  1:
 E= -115.063631346151     Delta-E=       -0.000409276480 Rises=F Damp=F
 DIIS: error= 1.01D-03 at cycle   2 NSaved=   2.
 NSaved= 2 IEnMin= 2 EnMin= -115.063631346151     IErMin= 2 ErrMin= 1.01D-03
 ErrMax= 1.01D-03 EMaxC= 1.00D-01 BMatC= 2.35D-05 BMatP= 2.55D-04
[...]

 Cycle   3  Pass 1  IDiag  1:
 E= -115.063728426682     Delta-E=       -0.000000088031 Rises=F Damp=F
 DIIS: error= 7.40D-06 at cycle   3 NSaved=   3.
 NSaved= 3 IEnMin= 3 EnMin= -115.063728426682     IErMin= 3 ErrMin= 7.40D-06
 ErrMax= 7.40D-06 EMaxC= 1.00D-01 BMatC= 2.80D-09 BMatP= 4.77D-08
 IDIUse=1 WtCom= 1.00D+00 WtEn= 0.00D+00
 Coeff-Com: -0.302D-01-0.188D-02 0.103D+01
 Coeff:     -0.302D-01-0.188D-02 0.103D+01
 Gap=     0.600 Goal=   None    Shift=    0.000
 RMSDP=1.57D-06 MaxDP=1.04D-05 DE=-8.80D-08 OVMax= 2.71D-05

 Cycle   4  Pass 1  IDiag  1:
 E= -115.063728431599     Delta-E=       -0.000000004917 Rises=F Damp=F
 DIIS: error= 2.64D-06 at cycle   4 NSaved=   4.
 NSaved= 4 IEnMin= 4 EnMin= -115.063728431599     IErMin= 4 ErrMin= 2.64D-06
 ErrMax= 2.64D-06 EMaxC= 1.00D-01 BMatC= 4.73D-10 BMatP= 2.80D-09
 IDIUse=1 WtCom= 1.00D+00 WtEn= 0.00D+00
 Coeff-Com:  0.562D-02-0.854D-01 0.246D+00 0.834D+00
 Coeff:      0.562D-02-0.854D-01 0.246D+00 0.834D+00
 Gap=     0.600 Goal=   None    Shift=    0.000
 RMSDP=5.08D-07 MaxDP=4.01D-06 DE=-4.92D-09 OVMax= 7.62D-06

 Cycle   5  Pass 1  IDiag  1:
 E= -115.063728432136     Delta-E=       -0.000000000537 Rises=F Damp=F
 DIIS: error= 5.81D-07 at cycle   5 NSaved=   5.
 NSaved= 5 IEnMin= 5 EnMin= -115.063728432136     IErMin= 5 ErrMin= 5.81D-07
 ErrMax= 5.81D-07 EMaxC= 1.00D-01 BMatC= 2.43D-11 BMatP= 4.73D-10
 IDIUse=1 WtCom= 1.00D+00 WtEn= 0.00D+00
 Coeff-Com:  0.169D-02 0.325D-02-0.104D+00 0.168D-01 0.108D+01
 Coeff:      0.169D-02 0.325D-02-0.104D+00 0.168D-01 0.108D+01
 Gap=     0.600 Goal=   None    Shift=    0.000
 RMSDP=2.10D-07 MaxDP=1.50D-06 DE=-5.37D-10 OVMax= 3.02D-06

 Cycle   6  Pass 1  IDiag  1:
 E= -115.063728432181     Delta-E=       -0.000000000045 Rises=F Damp=F
 DIIS: error= 9.97D-08 at cycle   6 NSaved=   6.
 NSaved= 6 IEnMin= 6 EnMin= -115.063728432181     IErMin= 6 ErrMin= 9.97D-08
 ErrMax= 9.97D-08 EMaxC= 1.00D-01 BMatC= 5.88D-13 BMatP= 2.43D-11
 IDIUse=1 WtCom= 1.00D+00 WtEn= 0.00D+00
 Coeff-Com: -0.491D-03 0.331D-02 0.322D-02-0.279D-01-0.149D+00 0.117D+01
 Coeff:     -0.491D-03 0.331D-02 0.322D-02-0.279D-01-0.149D+00 0.117D+01
 Gap=     0.600 Goal=   None    Shift=    0.000
 RMSDP=3.71D-08 MaxDP=2.28D-07 DE=-4.50D-11 OVMax= 6.05D-07

 Cycle   7  Pass 1  IDiag  1:
 E= -115.063728432182     Delta-E=       -0.000000000001 Rises=F Damp=F
 DIIS: error= 2.83D-08 at cycle   7 NSaved=   7.
 NSaved= 7 IEnMin= 7 EnMin= -115.063728432182     IErMin= 7 ErrMin= 2.83D-08
 ErrMax= 2.83D-08 EMaxC= 1.00D-01 BMatC= 4.01D-14 BMatP= 5.88D-13
 IDIUse=1 WtCom= 1.00D+00 WtEn= 0.00D+00
 Coeff-Com: -0.918D-04-0.543D-04 0.399D-02-0.134D-02-0.416D-01-0.275D-01
 Coeff-Com:  0.107D+01
 Coeff:     -0.918D-04-0.543D-04 0.399D-02-0.134D-02-0.416D-01-0.275D-01
 Coeff:      0.107D+01
 Gap=     0.600 Goal=   None    Shift=    0.000
 RMSDP=7.68D-09 MaxDP=7.91D-08 DE=-1.25D-12 OVMax= 1.86D-07

 SCF Done:  E(RHF) =  -115.063728432     A.U. after    7 cycles
             Convg  =    0.7684D-08             -V/T =  1.9991
 KE= 1.151617376761D+02 PE=-3.530751696239D+02 EE= 8.199784054326D+01
 Leave Link  502 at Sun Dec 29 12:26:19 2019, MaxMem=   91750400 cpu:       0.2
 (Enter /opt/g09gh/gaussian/g09/l701.exe)
 Compute integral first derivatives.
 ... and contract with generalized density number  0.
 Leave Link  701 at Sun Dec 29 12:26:19 2019, MaxMem=   91750400 cpu:       0.1
 (Enter /opt/g09gh/gaussian/g09/l702.exe)
 L702 exits ... SP integral derivatives will be done elsewhere.
 Leave Link  702 at Sun Dec 29 12:26:19 2019, MaxMem=   91750400 cpu:       0.0
 (Enter /opt/g09gh/gaussian/g09/l703.exe)
 Compute integral first derivatives, UseDBF=F ICtDFT=           0.
 Integral derivatives from FoFDir, PRISM(SPDF).
 Calling FoFJK, ICntrl=      2127 FMM=F ISym2X=0 I1Cent= 0 IOpClX= 0 NMat=1 NMatS=1 NMatT=0.
 FoFCou: FMM=F IPFlag=           0 FMFlag=      100000 FMFlg1=         800
         NFxFlg=           0 DoJE=F BraDBF=F KetDBF=F FulRan=T
         Omega=  0.000000  0.000000  1.000000  0.000000  0.000000 ICntrl=    2127 IOpCl=  0
         NMat0=    1 NMatS0=    1 NMatT0=    0 NMatD0=    1 NMtDS0=    0 NMtDT0=    0
         I1Cent=           0 NGrid=           0.
 Symmetry not used in FoFCou.
 Leave Link  703 at Sun Dec 29 12:26:20 2019, MaxMem=   91750400 cpu:       0.3
 (Enter /opt/g09gh/gaussian/g09/l716.exe)
 Dipole        =-3.48159234D-01-6.71568449D-01-3.80238679D-05
 ***** Axes restored to original set *****
 -------------------------------------------------------------------
 Center     Atomic                   Forces (Hartrees/Bohr)
 Number     Number              X              Y              Z
 -------------------------------------------------------------------
      1        8          -0.000010462   -0.000000031   -0.000007344
      2        6           0.000025185   -0.000022736    0.000009496
      3        1           0.000000926    0.000004065   -0.000001638
      4        1           0.000011131    0.000000796   -0.000000271
      5        1           0.000003710    0.000000482   -0.000004570
      6        1          -0.000030489    0.000017423    0.000004326
 -------------------------------------------------------------------
 Cartesian Forces:  Max     0.000030489 RMS     0.000012553
 Leave Link  716 at Sun Dec 29 12:26:20 2019, MaxMem=   91750400 cpu:       0.0
 (Enter /opt/g09gh/gaussian/g09/l103.exe)

 GradGradGradGradGradGradGradGradGradGradGradGradGradGradGradGradGradGrad
 Berny optimization.
 Using GEDIIS/GDIIS optimizer.
 Internal  Forces:  Max     0.000038968 RMS     0.000016532
 Search for a local minimum.
 Step number   7 out of a maximum of  100
 All quantities printed in internal units (Hartrees-Bohrs-Radians)
 RMS Force = .16532D-04 SwitMx=.10000D-02 MixMth= 2
 Mixed Optimization -- En-DIIS/RFO-DIIS
 Swaping is turned off.
 Update second derivatives using D2CorX and points    1    2    3    4    5
                                                      6    7
 DE= -1.06D-06 DEPred=-9.43D-07 R= 1.13D+00
 SS=  1.41D+00  RLast= 3.23D-03 DXNew= 8.4853D-01 9.6835D-03
 Trust test= 1.13D+00 RLast= 3.23D-03 DXMaxT set to 5.05D-01
 The second derivative matrix:
                          R1        R2        R3        R4        R5
           R1           0.42134
           R2          -0.00109   0.54976
           R3           0.01096   0.00661   0.34148
           R4           0.00068   0.00738  -0.00037   0.34774
           R5           0.01462   0.00369  -0.00256  -0.00180   0.34015
           A1           0.02856  -0.00983  -0.00942   0.00113  -0.00829
           A2           0.02180  -0.00392  -0.00373  -0.00767  -0.00244
           A3           0.02002  -0.00920  -0.00846   0.00274  -0.00808
           A4           0.03776   0.00258  -0.00232  -0.00773  -0.00010
           A5          -0.02487  -0.00726   0.00238  -0.00109   0.00171
           A6          -0.03211   0.00705   0.00514   0.00906   0.00307
           A7          -0.02629   0.00553   0.00612   0.00326   0.00500
           D1          -0.00519   0.01208   0.00141   0.00984   0.00030
           D2           0.00009  -0.01162  -0.00376  -0.00369  -0.00355
           D3           0.00322  -0.00245   0.00157  -0.00701   0.00243
                          A1        A2        A3        A4        A5
           A1           0.19026
           A2          -0.01115   0.16629
           A3           0.02787  -0.01342   0.18513
           A4          -0.01231   0.00954  -0.01372   0.17547
           A5          -0.00297   0.00467  -0.00700   0.00397   0.15600
           A6           0.00672  -0.00890   0.01442  -0.01465   0.00199
           A7          -0.00682   0.00313  -0.00613   0.00063  -0.00070
           D1           0.01084  -0.01640   0.02233  -0.01998   0.00466
           D2           0.00471   0.00051   0.00034   0.00179  -0.00121
           D3          -0.01599   0.01420  -0.02357   0.01860  -0.00162
                          A6        A7        D1        D2        D3
           A6           0.16417
           A7           0.00296   0.15945
           D1           0.00609   0.00334   0.01763
           D2          -0.00032  -0.00084  -0.00378   0.00995
           D3          -0.00511  -0.00292  -0.01078  -0.00279   0.01728
     Eigenvalues ---    0.00336   0.10424   0.10778   0.14715   0.16084
     Eigenvalues ---    0.16341   0.24370   0.33913   0.34355   0.34979
     Eigenvalues ---    0.44352   0.550841000.000001000.000001000.00000
 En-DIIS/RFO-DIIS IScMMF=        0 using points:     7    6    5    4    3
 RFO step:  Lambda= 0.00000000D+00.
 DIIS coeffs:      0.89505      0.14324     -0.03047     -0.01953      0.01170
 Iteration  1 RMS(Cart)=  0.00029344 RMS(Int)=  0.00000017
 Iteration  2 RMS(Cart)=  0.00000013 RMS(Int)=  0.00000008
 Variable       Old X    -DE/DX   Delta X   Delta X   Delta X     New X
                                  (DIIS)     (GDIIS)  (Total)
    R1        2.64182  -0.00004  -0.00006  -0.00001  -0.00007   2.64175
    R2        1.77428  -0.00003  -0.00001  -0.00004  -0.00005   1.77423
    R3        2.05469   0.00000   0.00001  -0.00001   0.00000   2.05469
    R4        2.04146   0.00000  -0.00001   0.00000   0.00000   2.04145
    R5        2.05470  -0.00001   0.00002  -0.00003  -0.00001   2.05469
    A1        1.92039  -0.00004  -0.00012  -0.00004  -0.00016   1.92023
    A2        1.95411   0.00000  -0.00001   0.00001   0.00000   1.95411
    A3        1.87178  -0.00002  -0.00006   0.00002  -0.00005   1.87173
    A4        1.95410   0.00000  -0.00003   0.00005   0.00002   1.95411
    A5        1.89218   0.00000   0.00008  -0.00007   0.00000   1.89218
    A6        1.89753   0.00000   0.00001   0.00001   0.00002   1.89754
    A7        1.89217   0.00001   0.00002  -0.00001   0.00001   1.89218
    D1       -1.06706  -0.00001  -0.00093  -0.00007  -0.00100  -1.06806
    D2       -3.14056   0.00000  -0.00098   0.00001  -0.00097  -3.14154
    D3        1.06913   0.00000  -0.00094  -0.00002  -0.00097   1.06817
         Item               Value     Threshold  Converged?
 Maximum Force            0.000039     0.000450     YES
 RMS     Force            0.000017     0.000300     YES
 Maximum Displacement     0.000735     0.001800     YES
 RMS     Displacement     0.000293     0.001200     YES
 Predicted change in Energy=-1.197108D-08
 Optimization completed.
    -- Stationary point found.
                           ----------------------------
                           !   Optimized Parameters   !
                           ! (Angstroms and Degrees)  !
 --------------------------                            --------------------------
 ! Name  Definition              Value          Derivative Info.                !
 --------------------------------------------------------------------------------
 ! R1    R(1,2)                  1.398          -DE/DX =    0.0                 !
 ! R2    R(1,6)                  0.9389         -DE/DX =    0.0                 !
 ! R3    R(2,3)                  1.0873         -DE/DX =    0.0                 !
 ! R4    R(2,4)                  1.0803         -DE/DX =    0.0                 !
 ! R5    R(2,5)                  1.0873         -DE/DX =    0.0                 !
 ! A1    A(2,1,6)              110.0303         -DE/DX =    0.0                 !
 ! A2    A(1,2,3)              111.9621         -DE/DX =    0.0                 !
 ! A3    A(1,2,4)              107.2451         -DE/DX =    0.0                 !
 ! A4    A(1,2,5)              111.9615         -DE/DX =    0.0                 !
 ! A5    A(3,2,4)              108.4137         -DE/DX =    0.0                 !
 ! A6    A(3,2,5)              108.7202         -DE/DX =    0.0                 !
 ! A7    A(4,2,5)              108.4133         -DE/DX =    0.0                 !
 ! D1    D(6,1,2,3)            -61.1379         -DE/DX =    0.0                 !
 ! D2    D(6,1,2,4)           -179.941          -DE/DX =    0.0                 !
 ! D3    D(6,1,2,5)             61.2568         -DE/DX =    0.0                 !
 --------------------------------------------------------------------------------
 GradGradGradGradGradGradGradGradGradGradGradGradGradGradGradGradGradGrad

 Largest change from initial coordinates is atom    4       2.712 Angstoms.
 Leave Link  103 at Sun Dec 29 12:26:20 2019, MaxMem=   91750400 cpu:       0.0
 (Enter /opt/g09gh/gaussian/g09/l202.exe)
                          Input orientation:                          
 ---------------------------------------------------------------------
 Center     Atomic      Atomic             Coordinates (Angstroms)
 Number     Number       Type             X           Y           Z
 ---------------------------------------------------------------------
      1          8           0        0.727104    0.094671   -0.077185
      2          6           0       -0.662886   -0.032260    0.001569
      3          1           0       -1.052352   -0.713147   -0.751372
      4          1           0       -1.084315    0.946968   -0.173192
      5          1           0       -0.985033   -0.374832    0.981921
      6          1           0        1.134883   -0.738392    0.068651
 ---------------------------------------------------------------------
                    Distance matrix (angstroms):
                    1          2          3          4          5
     1  O    0.000000
     2  C    1.397993   0.000000
     3  H    2.067259   1.087296   0.000000
     4  H    2.004212   1.080292   1.758208   0.000000
     5  H    2.067257   1.087302   1.767285   1.758208   0.000000
     6  H    0.938907   1.932640   2.336038   2.797100   2.336726
                    6
     6  H    0.000000
 Stoichiometry    CH4O
 Framework group  C1[X(CH4O)]
 Deg. of freedom    12
 Full point group                 C1      NOp   1
 Largest Abelian subgroup         C1      NOp   1
 Largest concise Abelian subgroup C1      NOp   1
                         Standard orientation:                         
 ---------------------------------------------------------------------
 Center     Atomic      Atomic             Coordinates (Angstroms)
 Number     Number       Type             X           Y           Z
 ---------------------------------------------------------------------
      1          8           0        0.735864    0.119508    0.000002
      2          6           0       -0.655187   -0.019641    0.000001
      3          1           0       -1.011357   -0.544482   -0.883117
      4          1           0       -1.076552    0.975085   -0.001096
      5          1           0       -1.011538   -0.542604    0.884167
      6          1           0        1.143660   -0.726216    0.000030
 ---------------------------------------------------------------------
 Rotational constants (GHZ):    131.6836091     25.4595851     24.6042216
 Leave Link  202 at Sun Dec 29 12:26:20 2019, MaxMem=   91750400 cpu:       0.0
 (Enter /opt/g09gh/gaussian/g09/l601.exe)
 Copying SCF densities to generalized density rwf, IOpCl= 0 IROHF=0.

 **********************************************************************

            Population analysis using the SCF density.

 **********************************************************************

 Orbital symmetries:
       Occupied  (A) (A) (A) (A) (A) (A) (A) (A) (A)
       Virtual   (A) (A) (A) (A) (A) (A) (A) (A) (A) (A) (A) (A)
                 (A) (A) (A) (A) (A) (A) (A) (A) (A) (A) (A) (A)
                 (A) (A) (A) (A) (A) (A) (A) (A) (A) (A) (A) (A)
                 (A) (A) (A)
 The electronic state is 1-A.
 Alpha  occ. eigenvalues --  -20.54166 -11.26481  -1.36444  -0.92836  -0.69699
 Alpha  occ. eigenvalues --   -0.62229  -0.59734  -0.49808  -0.44492
 Alpha virt. eigenvalues --    0.15461   0.18911   0.22732   0.23399   0.34624
 Alpha virt. eigenvalues --    0.46135   0.48402   0.59619   0.70034   0.73724
 Alpha virt. eigenvalues --    0.79099   0.80580   0.94602   1.06463   1.07995
 Alpha virt. eigenvalues --    1.17526   1.54683   1.60221   1.69556   1.76419
 Alpha virt. eigenvalues --    1.77084   2.00240   2.36810   2.61907   2.70593
 Alpha virt. eigenvalues --    2.72486   3.16487   3.25774   3.37850   3.42114
 Alpha virt. eigenvalues --    3.51615   3.57721   3.83001   4.27330   5.38592
 Alpha virt. eigenvalues --    5.54224   5.93233  24.56796  51.52761
          Condensed to atoms (all electrons):
              1          2          3          4          5          6
     1  O    8.263067   0.217579  -0.034330  -0.028355  -0.034347   0.269343
     2  C    0.217579   4.979089   0.394324   0.391876   0.394320  -0.049588
     3  H   -0.034330   0.394324   0.538259  -0.032922  -0.040948  -0.004278
     4  H   -0.028355   0.391876  -0.032922   0.485585  -0.032939   0.007288
     5  H   -0.034347   0.394320  -0.040948  -0.032939   0.538259  -0.004257
     6  H    0.269343  -0.049588  -0.004278   0.007288  -0.004257   0.370205
 Mulliken atomic charges:
              1
     1  O   -0.652959
     2  C   -0.327601
     3  H    0.179893
     4  H    0.209467
     5  H    0.179911
     6  H    0.411287
 Sum of Mulliken atomic charges =   0.00000
 Mulliken charges with hydrogens summed into heavy atoms:
              1
     1  O   -0.241671
     2  C    0.241671
 Sum of Mulliken charges with hydrogens summed into heavy atoms =   0.00000
 Electronic spatial extent (au):  <R**2>=             82.6805
 Charge=              0.0000 electrons
 Dipole moment (field-independent basis, Debye):
    X=             -0.8849    Y=             -1.7070    Z=             -0.0001  Tot=              1.9227
 Quadrupole moment (field-independent basis, Debye-Ang):
   XX=            -12.6383   YY=            -12.0948   ZZ=            -13.6208
   XY=             -2.4354   XZ=              0.0003   YZ=             -0.0002
 Traceless Quadrupole moment (field-independent basis, Debye-Ang):
   XX=              0.1463   YY=              0.6899   ZZ=             -0.8362
   XY=             -2.4354   XZ=              0.0003   YZ=             -0.0002
 Octapole moment (field-independent basis, Debye-Ang**2):
  XXX=              4.4509  YYY=             -0.6269  ZZZ=              0.0013  XYY=              1.7663
  XXY=             -2.5060  XXZ=             -0.0001  XZZ=              0.5123  YZZ=             -0.6732
  YYZ=             -0.0017  XYZ=              0.0002
 Hexadecapole moment (field-independent basis, Debye-Ang**3):
 XXXX=            -58.4021 YYYY=            -19.0667 ZZZZ=            -18.9904 XXXY=             -4.0988
 XXXZ=              0.0005 YYYX=             -2.9850 YYYZ=             -0.0002 ZZZX=             -0.0015
 ZZZY=             -0.0002 XXYY=            -11.8872 XXZZ=            -13.5211 YYZZ=             -6.4467
 XXYZ=             -0.0005 YYXZ=              0.0021 ZZXY=              0.0523
 N-N= 4.085186297236D+01 E-N=-3.530751686916D+02  KE= 1.151617376761D+02
 No NMR shielding tensors so no spin-rotation constants.
 Leave Link  601 at Sun Dec 29 12:26:20 2019, MaxMem=   91750400 cpu:       0.1
 (Enter /opt/g09gh/gaussian/g09/l9999.exe)
 1\1\GINC-NODE36\FOpt\RHF\6-311G(d)\C1H4O1\BDW2292\29-Dec-2019\0\\#P op
 t=(,maxcycle=400) HF/6-311G* MaxDisk=100GB\\methanol Rotatable Bond Op
 timization on node36.bme.utexas.edu\\0,1\O,0.7271035532,0.0946709169,-
 0.0771849264\C,-0.6628861349,-0.0322597956,0.0015685574\H,-1.052352112
 7,-0.7131471263,-0.7513724877\H,-1.0843152156,0.9469677331,-0.17319176
 78\H,-0.9850334382,-0.3748315447,0.9819211204\H,1.1348833481,-0.738392
 1834,0.0686505041\\Version=EM64L-G09RevA.02\State=1-A\HF=-115.0637284\
 RMSD=7.684e-09\RMSF=1.255e-05\Dipole=-0.3476842,-0.6568552,0.1409825\Q
 uadrupole=0.1089436,0.496424,-0.6053676,-1.7815874,0.3175267,-0.147764
 6\PG=C01 [X(C1H4O1)]\\@


 THE FIRST AND LAST THING REQUIRED OF GENIUS IS THE LOVE OF TRUTH.

                          -- GOETHE
 Job cpu time:  0 days  0 hours  0 minutes  9.2 seconds.
 File lengths (MBytes):  RWF=      5 Int=      0 D2E=      0 Chk=      1 Scr=      1
 Normal termination of Gaussian 09 at Sun Dec 29 12:26:20 2019.
