 Entering Gaussian System, Link 0=g09
 Input=methanol-sp-6-1-2-3-089.com
 Output=methanol-sp-6-1-2-3-089.log
 Initial command:
 /opt/g09gh/gaussian/g09/l1.exe /scratch/bdw2292/Gau-methanol/Gau-41220.inp -scrdir=/scratch/bdw2292/Gau-methanol/
 Entering Link 1 = /opt/g09gh/gaussian/g09/l1.exe PID=     41221.
  
 Copyright (c) 1988,1990,1992,1993,1995,1998,2003,2009, Gaussian, Inc.
                  All Rights Reserved.
  
 This is part of the Gaussian(R) 09 program.  It is based on
 the Gaussian(R) 03 system (copyright 2003, Gaussian, Inc.),
 the Gaussian(R) 98 system (copyright 1998, Gaussian, Inc.),
 the Gaussian(R) 94 system (copyright 1995, Gaussian, Inc.),
 the Gaussian 92(TM) system (copyright 1992, Gaussian, Inc.),
 the Gaussian 90(TM) system (copyright 1990, Gaussian, Inc.),
 the Gaussian 88(TM) system (copyright 1988, Gaussian, Inc.),
 the Gaussian 86(TM) system (copyright 1986, Carnegie Mellon
 University), and the Gaussian 82(TM) system (copyright 1983,
 Carnegie Mellon University). Gaussian is a federally registered
 trademark of Gaussian, Inc.
  
 This software contains proprietary and confidential information,
 including trade secrets, belonging to Gaussian, Inc.
  
 This software is provided under written license and may be
 used, copied, transmitted, or stored only in accord with that
 written license.
  
 The following legend is applicable only to US Government
 contracts under FAR:
  
                    RESTRICTED RIGHTS LEGEND
  
 Use, reproduction and disclosure by the US Government is
 subject to restrictions as set forth in subparagraphs (a)
 and (c) of the Commercial Computer Software - Restricted
 Rights clause in FAR 52.227-19.
  
 Gaussian, Inc.
 340 Quinnipiac St., Bldg. 40, Wallingford CT 06492
  
  
 ---------------------------------------------------------------
 Warning -- This program may not be used in any manner that
 competes with the business of Gaussian, Inc. or will provide
 assistance to any competitor of Gaussian, Inc.  The licensee
 of this program is prohibited from giving any competitor of
 Gaussian, Inc. access to this program.  By using this program,
 the user acknowledges that Gaussian, Inc. is engaged in the
 business of creating and licensing software in the field of
 computational chemistry and represents and warrants to the
 licensee that it is not a competitor of Gaussian, Inc. and that
 it will not use this program in any manner prohibited above.
 ---------------------------------------------------------------
  

 Cite this work as:
 Gaussian 09, Revision A.02,
 M. J. Frisch, G. W. Trucks, H. B. Schlegel, G. E. Scuseria, 
 M. A. Robb, J. R. Cheeseman, G. Scalmani, V. Barone, B. Mennucci, 
 G. A. Petersson, H. Nakatsuji, M. Caricato, X. Li, H. P. Hratchian, 
 A. F. Izmaylov, J. Bloino, G. Zheng, J. L. Sonnenberg, M. Hada, 
 M. Ehara, K. Toyota, R. Fukuda, J. Hasegawa, M. Ishida, T. Nakajima, 
 Y. Honda, O. Kitao, H. Nakai, T. Vreven, J. A. Montgomery, Jr., 
 J. E. Peralta, F. Ogliaro, M. Bearpark, J. J. Heyd, E. Brothers, 
 K. N. Kudin, V. N. Staroverov, R. Kobayashi, J. Normand, 
 K. Raghavachari, A. Rendell, J. C. Burant, S. S. Iyengar, J. Tomasi, 
 M. Cossi, N. Rega, J. M. Millam, M. Klene, J. E. Knox, J. B. Cross, 
 V. Bakken, C. Adamo, J. Jaramillo, R. Gomperts, R. E. Stratmann, 
 O. Yazyev, A. J. Austin, R. Cammi, C. Pomelli, J. W. Ochterski, 
 R. L. Martin, K. Morokuma, V. G. Zakrzewski, G. A. Voth, 
 P. Salvador, J. J. Dannenberg, S. Dapprich, A. D. Daniels, 
 O. Farkas, J. B. Foresman, J. V. Ortiz, J. Cioslowski, 
 and D. J. Fox, Gaussian, Inc., Wallingford CT, 2009.
 
 ******************************************
 Gaussian 09:  EM64L-G09RevA.02 11-Jun-2009
                29-Dec-2019 
 ******************************************
 %RWF=/scratch/bdw2292/Gau-methanol/,100GB
 %Nosave
 %Chk=methanol-sp-6-1-2-3-089.chk
 %Mem=700MB
 %Nproc=1
 Will use up to    1 processors via shared memory.
 ----------------------------------------------------------------------
 #P MP2/6-311++G(2d,2p) SP SCF=(qc,maxcycle=800) Guess=Indo MaxDisk=100
 GB SCRF=(PCM)
 ----------------------------------------------------------------------
 1/38=1/1;
 2/12=2,17=6,18=5,40=1/2;
 3/5=4,6=6,7=1212,11=9,16=1,25=1,30=1,70=2201,72=1/1,2,3;
 4/5=4,11=3/1;
 5/5=2,7=800,8=3,38=5/8;
 8/10=2/1;
 9/16=-3/6;
 6/7=2,8=2,9=2,10=2/1;
 99/5=1,9=1/99;
 Leave Link    1 at Sun Dec 29 12:27:36 2019, MaxMem=   91750400 cpu:       0.0
 (Enter /opt/g09gh/gaussian/g09/l101.exe)
 ---------------------------------------------------------------
 methanol Rotatable Bond SP Calculation on node36.bme.utexas.edu
 ---------------------------------------------------------------
 Symbolic Z-matrix:
 Charge =  0 Multiplicity = 1
 O                    -0.7454    0.09946  -0.1631 
 C                     0.67884  -0.01684  -0.03313 
 H                     1.06928  -0.50341  -0.93185 
 H                     0.9051   -0.5903    0.87088 
 H                     1.08947   0.99386   0.05483 
 H                    -1.12216  -0.72097   0.20249 
 
 NAtoms=      6 NQM=      6 NQMF=      0 NMic=      0 NMicF=      0 NTot=      6.
                    Isotopes and Nuclear Properties:
 (Nuclear quadrupole moments (NQMom) in fm**2, nuclear magnetic moments (NMagM)
  in nuclear magnetons)

  Atom         1           2           3           4           5           6
 IAtWgt=          16          12           1           1           1           1
 AtmWgt=  15.9949146  12.0000000   1.0078250   1.0078250   1.0078250   1.0078250
 NucSpn=           0           0           1           1           1           1
 AtZEff=   0.0000000   0.0000000   0.0000000   0.0000000   0.0000000   0.0000000
 NQMom=    0.0000000   0.0000000   0.0000000   0.0000000   0.0000000   0.0000000
 NMagM=    0.0000000   0.0000000   2.7928460   2.7928460   2.7928460   2.7928460
 Leave Link  101 at Sun Dec 29 12:27:36 2019, MaxMem=   91750400 cpu:       0.1
 (Enter /opt/g09gh/gaussian/g09/l202.exe)
                          Input orientation:                          
 ---------------------------------------------------------------------
 Center     Atomic      Atomic             Coordinates (Angstroms)
 Number     Number       Type             X           Y           Z
 ---------------------------------------------------------------------
      1          8           0       -0.745398    0.099464   -0.163095
      2          6           0        0.678838   -0.016840   -0.033133
      3          1           0        1.069278   -0.503405   -0.931846
      4          1           0        0.905096   -0.590296    0.870877
      5          1           0        1.089469    0.993862    0.054833
      6          1           0       -1.122157   -0.720968    0.202493
 ---------------------------------------------------------------------
                    Distance matrix (angstroms):
                    1          2          3          4          5
     1  O    0.000000
     2  C    1.434875   0.000000
     3  H    2.060941   1.094017   0.000000
     4  H    2.066155   1.094202   1.812268   0.000000
     5  H    2.052846   1.094474   1.793252   1.791502   0.000000
     6  H    0.974018   1.948050   2.477185   2.138590   2.802452
                    6
     6  H    0.000000
 Stoichiometry    CH4O
 Framework group  C1[X(CH4O)]
 Deg. of freedom    12
 Full point group                 C1      NOp   1
 Largest Abelian subgroup         C1      NOp   1
 Largest concise Abelian subgroup C1      NOp   1
                         Standard orientation:                         
 ---------------------------------------------------------------------
 Center     Atomic      Atomic             Coordinates (Angstroms)
 Number     Number       Type             X           Y           Z
 ---------------------------------------------------------------------
      1          8           0       -0.749954   -0.130272   -0.003627
      2          6           0        0.676852    0.021564    0.002124
      3          1           0        1.017288    0.048946    1.041464
      4          1           0        0.936356    0.938701   -0.535273
      5          1           0        1.106604   -0.844524   -0.510788
      6          1           0       -1.121726    0.769670    0.020866
 ---------------------------------------------------------------------
 Rotational constants (GHZ):    124.3721145     24.6613709     23.7655175
 Leave Link  202 at Sun Dec 29 12:27:36 2019, MaxMem=   91750400 cpu:       0.0
 (Enter /opt/g09gh/gaussian/g09/l301.exe)
 Standard basis: 6-311++G(2d,2p) (5D, 7F)
 Ernie: Thresh=  0.10000D-02 Tol=  0.10000D-05 Strict=F.
 There are    94 symmetry adapted basis functions of A   symmetry.
 Integral buffers will be    131072 words long.
 Raffenetti 1 integral format.
 Two-electron integral symmetry is turned on.
    94 basis functions,   132 primitive gaussians,    98 cartesian basis functions
     9 alpha electrons        9 beta electrons
       nuclear repulsion energy        40.0810100786 Hartrees.
 IExCor=    0 DFT=F Ex=HF Corr=None ExCW=0 ScaHFX=  1.000000
 ScaDFX=  1.000000  1.000000  1.000000  1.000000 ScalE2=  1.000000  1.000000
 IRadAn=      0 IRanWt=     -1 IRanGd=            0 ICorTp=0
 NAtoms=    6 NActive=    6 NUniq=    6 SFac= 7.50D-01 NAtFMM=   80 NAOKFM=F Big=F
 ------------------------------------------------------------------------------
 Polarizable Continuum Model (PCM)
 =================================
 Model                : PCM.
 Atomic radii         : UFF (Universal Force Field).
 Polarization charges : Total charges.
 Charge compensation  : None.
 Solution method      : Matrix inversion.
 Cavity type          : Scaled VdW (van der Waals Surface) (Alpha=1.100).
 Cavity algorithm     : GePol (No added spheres)
                        Default sphere list used, NSphG=    6.
                        Lebedev-Laikov grids with approx.  5.0 points / Ang**2.
                        Smoothing algorithm: Karplus/York (Gamma=1.0000).
                        Polarization charges: spherical gaussians, with
                                              point-specific exponents (IZeta= 3).
                        Self-potential: point-specific (ISelfS= 7).
                        Self-field    : sphere-specific E.n sum rule (ISelfD= 2).
 Solvent              : Water, Eps=  78.355300 Eps(inf)=   1.777849
 ------------------------------------------------------------------------------
 Spheres list:
 ISph  on   Nord    Re0     Alpha      Xe            Ye            Ze
    1   O      1    1.750   1.100     -0.749954     -0.130272     -0.003627
    2   C      2    1.926   1.100      0.676852      0.021564      0.002124
    3   H      3    1.443   1.100      1.017288      0.048946      1.041464
    4   H      4    1.443   1.100      0.936356      0.938701     -0.535273
    5   H      5    1.443   1.100      1.106604     -0.844524     -0.510788
    6   H      6    1.443   1.100     -1.121726      0.769670      0.020866
 ------------------------------------------------------------------------------
 GePol: Number of generator spheres                  =       6
 GePol: Total number of spheres                      =       6
 GePol: Number of exposed spheres                    =       6 (100.00%)
 GePol: Number of points                             =     612
 GePol: Average weight of points                     =       0.14
 GePol: Minimum weight of points                     =   0.67D-07
 GePol: Maximum weight of points                     =    0.20322
 GePol: Number of points with low weight             =      27
 GePol: Fraction of low-weight points (<1% of avg)   =       4.41%
 GePol: Cavity surface area                          =     83.768 Ang**2
 GePol: Cavity volume                                =     65.198 Ang**3
 Leave Link  301 at Sun Dec 29 12:27:37 2019, MaxMem=   91750400 cpu:       0.1
 (Enter /opt/g09gh/gaussian/g09/l302.exe)
 NPDir=0 NMtPBC=     1 NCelOv=     1 NCel=       1 NClECP=     1 NCelD=      1
         NCelK=      1 NCelE2=     1 NClLst=     1 CellRange=     0.0.
 One-electron integrals computed using PRISM.
 NBasis=    94 RedAO= T  NBF=    94
 NBsUse=    94 1.00D-06 NBFU=    94
 Leave Link  302 at Sun Dec 29 12:27:37 2019, MaxMem=   91750400 cpu:       0.2
 (Enter /opt/g09gh/gaussian/g09/l303.exe)
 DipDrv:  MaxL=1.
 Leave Link  303 at Sun Dec 29 12:27:37 2019, MaxMem=   91750400 cpu:       0.0
 (Enter /opt/g09gh/gaussian/g09/l401.exe)
 Projected INDO guess.
 Initial guess orbital symmetries:
       Occupied  (A) (A) (A) (A) (A) (A) (A) (A) (A)
       Virtual   (A) (A) (A) (A) (A) (A) (A) (A) (A) (A) (A) (A)
                 (A) (A) (A) (A) (A) (A) (A) (A) (A) (A) (A) (A)
                 (A) (A) (A) (A) (A) (A) (A) (A) (A) (A) (A) (A)
                 (A) (A) (A) (A) (A) (A) (A) (A) (A) (A) (A) (A)
                 (A) (A) (A) (A) (A) (A) (A) (A) (A) (A) (A) (A)
                 (A) (A) (A) (A) (A) (A) (A) (A) (A) (A) (A) (A)
                 (A) (A) (A) (A) (A) (A) (A) (A) (A) (A) (A) (A)
                 (A)
 The electronic state of the initial guess is 1-A.
 Leave Link  401 at Sun Dec 29 12:27:37 2019, MaxMem=   91750400 cpu:       0.1
 (Enter /opt/g09gh/gaussian/g09/l508.exe)
 Direct SCF.
 Tight linear equation convergence will be used.
 RHF wavefunction.
 Quadratic Convergence SCF Method.
 Line search only if initial step raises energy.
 Integral symmetry usage will be decided dynamically.
 ReadGW:  IGet=1 IStart=           2 Next=           2 LGW=           0.
 Keep R1 ints in memory in canonical form, NReq=15232862.
 Symmetry not used in FoFDir.
 MinBra= 0 MaxBra= 2 Meth= 1.
 IRaf=       0 NMat=   1 IRICut=       1 DoRegI=T DoRafI=F ISym2E= 0 JSym2E=0.
 Iteration   1 EE= -114.499462804452                                    Grad=2.170D+00
 Gradient too large for Newton-Raphson -- use scaled steepest descent instead.
     ILin= 1 X=0.000D+00 Y=-1.144994628045D+02 DE= 0.00D+00
     ILin= 2 X=3.000D-01 Y=-1.147765156175D+02 DE=-2.77D-01
     ILin= 3 X=4.243D-01 Y=-1.148648461327D+02 DE=-3.65D-01
     ILin= 4 X=6.000D-01 Y=-1.149629459378D+02 DE=-4.63D-01
     ILin= 5 X=8.485D-01 Y=-1.150474372799D+02 DE=-5.48D-01
     ILin= 6 X=1.200D+00 Y=-1.150570856188D+02 DE=-5.58D-01
     ILin= 7 X=1.697D+00 Y=-1.148488193865D+02 DE=-3.49D-01
     An  expanding polynomial of degree  7 produced  1.0506
 Iteration   2 EE= -115.068799480890     Delta-E=       -0.569336676438 Grad=1.805D-01
 Gradient too large for Newton-Raphson -- use scaled steepest descent instead.
     ILin= 1 X=0.000D+00 Y=-1.150687994809D+02 DE= 0.00D+00
     ILin= 2 X=1.051D+00 Y=-1.150827434822D+02 DE=-1.39D-02
     ILin= 3 X=1.486D+00 Y=-1.150744396575D+02 DE=-5.64D-03
     An  expanding polynomial of degree  3 produced  0.8301
 Iteration   3 EE= -115.083828203057     Delta-E=       -0.015028722167 Grad=6.929D-02
 Gradient too large for Newton-Raphson -- use scaled steepest descent instead.
     ILin= 1 X=0.000D+00 Y=-1.150838282031D+02 DE= 0.00D+00
     ILin= 2 X=8.301D-01 Y=-1.150867721748D+02 DE=-2.94D-03
     ILin= 3 X=1.174D+00 Y=-1.150867494853D+02 DE=-2.92D-03
     An  expanding polynomial of degree  3 produced  0.9913
 Iteration   4 EE= -115.086852868723     Delta-E=       -0.003024665666 Grad=3.702D-02
 Gradient too large for Newton-Raphson -- use scaled steepest descent instead.
     ILin= 1 X=0.000D+00 Y=-1.150868528687D+02 DE= 0.00D+00
     ILin= 2 X=9.913D-01 Y=-1.150875812419D+02 DE=-7.28D-04
     ILin= 3 X=1.402D+00 Y=-1.150872828027D+02 DE=-4.30D-04
     An  expanding polynomial of degree  3 produced  0.8480
 Iteration   5 EE= -115.087602781970     Delta-E=       -0.000749913247 Grad=1.745D-02
 Gradient too large for Newton-Raphson -- use scaled steepest descent instead.
     ILin= 1 X=0.000D+00 Y=-1.150876027820D+02 DE= 0.00D+00
     ILin= 2 X=8.480D-01 Y=-1.150877991033D+02 DE=-1.96D-04
     ILin= 3 X=1.199D+00 Y=-1.150877928943D+02 DE=-1.90D-04
     An  expanding polynomial of degree  3 produced  0.9811
 Iteration   6 EE= -115.087802798634     Delta-E=       -0.000200016663 Grad=9.924D-03
 QCNR:  CnvC1=3.91D-09 CnvC2=3.91D-08
 LinEq1:  Iter=  0 NonCon=     1 RMS=1.90D-04 Max=1.52D-03
 AX will form     1 AO Fock derivatives at one time.
 LinEq1:  Iter=  1 NonCon=     1 RMS=1.10D-04 Max=9.41D-04
 LinEq1:  Iter=  2 NonCon=     1 RMS=4.21D-06 Max=3.08D-05
 LinEq1:  Iter=  3 NonCon=     1 RMS=1.40D-06 Max=8.55D-06
 LinEq1:  Iter=  4 NonCon=     1 RMS=1.89D-07 Max=1.33D-06
 LinEq1:  Iter=  5 NonCon=     1 RMS=1.67D-08 Max=1.27D-07
 LinEq1:  Iter=  6 NonCon=     0 RMS=1.50D-09 Max=8.37D-09
 Linear equations converged to 3.912D-09 3.912D-08 after     6 iterations.
 Angle between quadratic step and gradient=  46.53 degrees.
     ILin= 1 X=0.000D+00 Y=-1.150878027986D+02 DE= 0.00D+00
     ILin= 2 X=1.000D+00 Y=-1.150878778867D+02 DE=-7.51D-05
     ILin= 3 X=1.414D+00 Y=-1.150878652178D+02 DE=-6.24D-05
     An  expanding polynomial of degree  3 produced  1.0024
 Iteration   7 EE= -115.087877886998     Delta-E=       -0.000075088364 Grad=2.222D-05
 QCNR:  CnvC1=2.22D-10 CnvC2=2.22D-09
 LinEq1:  Iter=  0 NonCon=     1 RMS=3.78D-07 Max=3.15D-06
 LinEq1:  Iter=  1 NonCon=     1 RMS=7.69D-08 Max=5.73D-07
 LinEq1:  Iter=  2 NonCon=     1 RMS=2.52D-08 Max=2.41D-07
 LinEq1:  Iter=  3 NonCon=     1 RMS=4.53D-09 Max=2.84D-08
 LinEq1:  Iter=  4 NonCon=     1 RMS=9.54D-10 Max=5.24D-09
 LinEq1:  Iter=  5 NonCon=     1 RMS=2.59D-10 Max=1.79D-09
 LinEq1:  Iter=  6 NonCon=     0 RMS=5.88D-11 Max=3.74D-10
 Linear equations converged to 2.222D-10 2.222D-09 after     6 iterations.
 Angle between quadratic step and gradient=  43.05 degrees.
     ILin= 1 X=0.000D+00 Y=-1.150878778870D+02 DE= 0.00D+00
     ILin= 2 X=1.000D+00 Y=-1.150878778873D+02 DE=-3.27D-10
 Iteration   8 EE= -115.087877887325     Delta-E=       -0.000000000327 Grad=9.110D-09
 Error on total polarization charges =  0.00638
 Rotation gradient small -- convergence achieved.
 SCF Done:  E(RHF) =  -115.087877887     a.u. after    8 cycles
            Convg  =    0.9110D-08                    36 Fock formations.
              S**2 =  0.0000                  -V/T =  2.0016
 Leave Link  508 at Sun Dec 29 12:27:48 2019, MaxMem=   91750400 cpu:      11.0
 (Enter /opt/g09gh/gaussian/g09/l801.exe)
 ExpMin= 3.60D-02 ExpMax= 8.59D+03 ExpMxC= 1.30D+03 IAcc=3 IRadAn=         5 AccDes= 0.00D+00
 HarFok:  IExCor=  205 AccDes= 0.00D+00 IRadAn=         5 IDoV=-2
 ScaDFX=  1.000000  1.000000  1.000000  1.000000
 Largest valence mixing into a core orbital is  1.37D-04
 Largest core mixing into a valence orbital is  3.63D-05
 Range of M.O.s used for correlation:     3    94
 NBasis=    94 NAE=     9 NBE=     9 NFC=     2 NFV=     0
 NROrb=     92 NOA=     7 NOB=     7 NVA=    85 NVB=    85

 **** Warning!!: The largest alpha MO coefficient is  0.15665629D+02

 Leave Link  801 at Sun Dec 29 12:27:48 2019, MaxMem=   91750400 cpu:       0.4
 (Enter /opt/g09gh/gaussian/g09/l906.exe)
 FulOut=F Deriv=F AODrv=F NAtomX=     6
   MMem=        1402  MDisk=           7 MDiskD=           7
  W3Min=       58310 MinDsk=      182258 NBas6D=          98
 NBas2D=        4983    NTT=        4851    LW2=     2000000
    MDV=    91690351 MDiskM=       12711 NBas2p=        4983
 Fully in-core method, ICMem=    31042459.
 IMap=   1   2   3   4   5   6   7
 JobTyp=1 Pass  1 fully in-core, NPsUse=  1.
 Compute canonical integrals, IntTyp=   4.
 Symmetry not used in FoFDir.
 MinBra= 0 MaxBra= 2 Meth= 1.
 IRaf=       0 NMat=   1 IRICut=       1 DoRegI=T DoRafI=F ISym2E= 0 JSym2E=0.
 Spin components of T(2) and E(2):
     alpha-alpha T2 =       0.1321832018D-01 E2=     -0.4651992107D-01
     alpha-beta  T2 =       0.8254965072D-01 E2=     -0.2992265222D+00
     beta-beta   T2 =       0.1321832018D-01 E2=     -0.4651992107D-01
 The integrals were generated   1 times.
 ANorm=    0.1053084180D+01
 E2 =    -0.3922663644D+00 EUMP2 =    -0.11548014425171D+03
 Leave Link  906 at Sun Dec 29 12:27:50 2019, MaxMem=   91750400 cpu:       1.5
 (Enter /opt/g09gh/gaussian/g09/l601.exe)
 Copying SCF densities to generalized density rwf, IOpCl= 0 IROHF=0.

 **********************************************************************

            Population analysis using the SCF density.

 **********************************************************************

 Orbital symmetries:
       Occupied  (A) (A) (A) (A) (A) (A) (A) (A) (A)
       Virtual   (A) (A) (A) (A) (A) (A) (A) (A) (A) (A) (A) (A)
                 (A) (A) (A) (A) (A) (A) (A) (A) (A) (A) (A) (A)
                 (A) (A) (A) (A) (A) (A) (A) (A) (A) (A) (A) (A)
                 (A) (A) (A) (A) (A) (A) (A) (A) (A) (A) (A) (A)
                 (A) (A) (A) (A) (A) (A) (A) (A) (A) (A) (A) (A)
                 (A) (A) (A) (A) (A) (A) (A) (A) (A) (A) (A) (A)
                 (A) (A) (A) (A) (A) (A) (A) (A) (A) (A) (A) (A)
                 (A)
 The electronic state is 1-A.
 Alpha  occ. eigenvalues --  -20.56183 -11.27049  -1.35486  -0.92092  -0.68704
 Alpha  occ. eigenvalues --   -0.62202  -0.59270  -0.50635  -0.45362
 Alpha virt. eigenvalues --    0.04445   0.06803   0.07670   0.08062   0.12629
 Alpha virt. eigenvalues --    0.15481   0.15740   0.18647   0.25916   0.27184
 Alpha virt. eigenvalues --    0.28297   0.30289   0.30671   0.32776   0.34453
 Alpha virt. eigenvalues --    0.38834   0.46351   0.56221   0.57048   0.67083
 Alpha virt. eigenvalues --    0.71825   0.73478   0.75464   0.76154   0.78989
 Alpha virt. eigenvalues --    0.79615   0.87876   0.97583   1.04458   1.07540
 Alpha virt. eigenvalues --    1.14830   1.21237   1.21795   1.28778   1.29752
 Alpha virt. eigenvalues --    1.30850   1.35133   1.39310   1.50470   1.53548
 Alpha virt. eigenvalues --    1.54718   1.64777   1.66993   1.68881   1.76952
 Alpha virt. eigenvalues --    1.81609   2.11704   2.23402   2.28046   2.53173
 Alpha virt. eigenvalues --    2.54491   2.88654   2.93515   3.09822   3.21198
 Alpha virt. eigenvalues --    3.49536   3.51546   3.65724   3.68469   3.74507
 Alpha virt. eigenvalues --    3.93870   3.97838   4.00789   4.14182   4.15060
 Alpha virt. eigenvalues --    4.21939   4.31389   4.41888   4.44780   4.47196
 Alpha virt. eigenvalues --    4.47905   4.56895   4.77020   5.43839   5.44741
 Alpha virt. eigenvalues --    5.59596   5.97237   6.45477   7.47181   7.55322
 Alpha virt. eigenvalues --    7.62520   7.72181   8.00796  25.11360  51.63622
          Condensed to atoms (all electrons):
              1          2          3          4          5          6
     1  O    8.272911   0.154735  -0.052777  -0.032153  -0.055743   0.275598
     2  C    0.154735   4.417313   0.436685   0.436308   0.437850  -0.023319
     3  H   -0.052777   0.436685   0.643935  -0.031682  -0.042703   0.000588
     4  H   -0.032153   0.436308  -0.031682   0.627967  -0.030776  -0.013177
     5  H   -0.055743   0.437850  -0.042703  -0.030776   0.636320   0.006815
     6  H    0.275598  -0.023319   0.000588  -0.013177   0.006815   0.469059
 Mulliken atomic charges:
              1
     1  O   -0.562570
     2  C    0.140429
     3  H    0.045955
     4  H    0.043513
     5  H    0.048238
     6  H    0.284437
 Sum of Mulliken atomic charges =   0.00000
 Mulliken charges with hydrogens summed into heavy atoms:
              1
     1  O   -0.278133
     2  C    0.278133
 Sum of Mulliken charges with hydrogens summed into heavy atoms =   0.00000
 Electronic spatial extent (au):  <R**2>=             84.5511
 Charge=              0.0000 electrons
 Dipole moment (field-independent basis, Debye):
    X=              1.2544    Y=              1.9471    Z=              0.0212  Tot=              2.3163
 Quadrupole moment (field-independent basis, Debye-Ang):
   XX=            -13.1469   YY=            -11.9481   ZZ=            -13.6845
   XY=             -2.4772   XZ=             -0.1416   YZ=              0.0159
 Traceless Quadrupole moment (field-independent basis, Debye-Ang):
   XX=             -0.2204   YY=              0.9784   ZZ=             -0.7580
   XY=             -2.4772   XZ=             -0.1416   YZ=              0.0159
 Octapole moment (field-independent basis, Debye-Ang**2):
  XXX=             -3.3796  YYY=              1.9178  ZZZ=              0.6540  XYY=             -1.6637
  XXY=              2.8022  XXZ=             -0.0334  XZZ=              0.1498  YZZ=              0.3583
  YYZ=             -0.6779  XYZ=             -0.0062
 Hexadecapole moment (field-independent basis, Debye-Ang**3):
 XXXX=            -62.3456 YYYY=            -19.5714 ZZZZ=            -19.5881 XXXY=             -4.4193
 XXXZ=             -0.3200 YYYX=             -2.6818 YYYZ=             -0.0985 ZZZX=              0.5869
 ZZZY=              0.0129 XXYY=            -12.4614 XXZZ=            -14.3632 YYZZ=             -6.7004
 XXYZ=              0.1880 YYXZ=             -0.8438 ZZXY=             -0.5019
 N-N= 4.008101007863D+01 E-N=-3.513648261384D+02  KE= 1.149047970642D+02
 Leave Link  601 at Sun Dec 29 12:27:50 2019, MaxMem=   91750400 cpu:       0.0
 (Enter /opt/g09gh/gaussian/g09/l9999.exe)
 1\1\GINC-NODE36\SP\RMP2-FC\6-311++G(2d,2p)\C1H4O1\BDW2292\29-Dec-2019\
 0\\#P MP2/6-311++G(2d,2p) SP SCF=(qc,maxcycle=800) Guess=Indo MaxDisk=
 100GB SCRF=(PCM)\\methanol Rotatable Bond SP Calculation on node36.bme
 .utexas.edu\\0,1\O,0,-0.745398,0.099464,-0.163095\C,0,0.678838,-0.0168
 4,-0.033133\H,0,1.069278,-0.503405,-0.931846\H,0,0.905096,-0.590296,0.
 870877\H,0,1.089469,0.993862,0.054833\H,0,-1.122157,-0.720968,0.202493
 \\Version=EM64L-G09RevA.02\State=1-A\HF=-115.0878779\MP2=-115.4801443\
 RMSD=0.000e+00\PG=C01 [X(C1H4O1)]\\@


 MY DESCRIPTION OF EXPERIENCE IS NOT WHAT HAPPENS
 TO A MAN.  EXPERIENCE IS WHAT A MAN DOES WITH WHAT
 HAPPENS TO HIM.
                         - CHUCK KNOX, SEATTLE SEAHAWKS, 1985
 Job cpu time:  0 days  0 hours  0 minutes 13.5 seconds.
 File lengths (MBytes):  RWF=     12 Int=      0 D2E=      0 Chk=      2 Scr=      1
 Normal termination of Gaussian 09 at Sun Dec 29 12:27:50 2019.
