 Entering Gaussian System, Link 0=g09
 Input=methanol-opt-6-1-2-3-257.com
 Output=methanol-opt-6-1-2-3-257.log
 Initial command:
 /opt/g09gh/gaussian/g09/l1.exe /scratch/bdw2292/Gau-methanol/Gau-40316.inp -scrdir=/scratch/bdw2292/Gau-methanol/
 Entering Link 1 = /opt/g09gh/gaussian/g09/l1.exe PID=     40317.
  
 Copyright (c) 1988,1990,1992,1993,1995,1998,2003,2009, Gaussian, Inc.
                  All Rights Reserved.
  
 This is part of the Gaussian(R) 09 program.  It is based on
 the Gaussian(R) 03 system (copyright 2003, Gaussian, Inc.),
 the Gaussian(R) 98 system (copyright 1998, Gaussian, Inc.),
 the Gaussian(R) 94 system (copyright 1995, Gaussian, Inc.),
 the Gaussian 92(TM) system (copyright 1992, Gaussian, Inc.),
 the Gaussian 90(TM) system (copyright 1990, Gaussian, Inc.),
 the Gaussian 88(TM) system (copyright 1988, Gaussian, Inc.),
 the Gaussian 86(TM) system (copyright 1986, Carnegie Mellon
 University), and the Gaussian 82(TM) system (copyright 1983,
 Carnegie Mellon University). Gaussian is a federally registered
 trademark of Gaussian, Inc.
  
 This software contains proprietary and confidential information,
 including trade secrets, belonging to Gaussian, Inc.
  
 This software is provided under written license and may be
 used, copied, transmitted, or stored only in accord with that
 written license.
  
 The following legend is applicable only to US Government
 contracts under FAR:
  
                    RESTRICTED RIGHTS LEGEND
  
 Use, reproduction and disclosure by the US Government is
 subject to restrictions as set forth in subparagraphs (a)
 and (c) of the Commercial Computer Software - Restricted
 Rights clause in FAR 52.227-19.
  
 Gaussian, Inc.
 340 Quinnipiac St., Bldg. 40, Wallingford CT 06492
  
  
 ---------------------------------------------------------------
 Warning -- This program may not be used in any manner that
 competes with the business of Gaussian, Inc. or will provide
 assistance to any competitor of Gaussian, Inc.  The licensee
 of this program is prohibited from giving any competitor of
 Gaussian, Inc. access to this program.  By using this program,
 the user acknowledges that Gaussian, Inc. is engaged in the
 business of creating and licensing software in the field of
 computational chemistry and represents and warrants to the
 licensee that it is not a competitor of Gaussian, Inc. and that
 it will not use this program in any manner prohibited above.
 ---------------------------------------------------------------
  

 Cite this work as:
 Gaussian 09, Revision A.02,
 M. J. Frisch, G. W. Trucks, H. B. Schlegel, G. E. Scuseria, 
 M. A. Robb, J. R. Cheeseman, G. Scalmani, V. Barone, B. Mennucci, 
 G. A. Petersson, H. Nakatsuji, M. Caricato, X. Li, H. P. Hratchian, 
 A. F. Izmaylov, J. Bloino, G. Zheng, J. L. Sonnenberg, M. Hada, 
 M. Ehara, K. Toyota, R. Fukuda, J. Hasegawa, M. Ishida, T. Nakajima, 
 Y. Honda, O. Kitao, H. Nakai, T. Vreven, J. A. Montgomery, Jr., 
 J. E. Peralta, F. Ogliaro, M. Bearpark, J. J. Heyd, E. Brothers, 
 K. N. Kudin, V. N. Staroverov, R. Kobayashi, J. Normand, 
 K. Raghavachari, A. Rendell, J. C. Burant, S. S. Iyengar, J. Tomasi, 
 M. Cossi, N. Rega, J. M. Millam, M. Klene, J. E. Knox, J. B. Cross, 
 V. Bakken, C. Adamo, J. Jaramillo, R. Gomperts, R. E. Stratmann, 
 O. Yazyev, A. J. Austin, R. Cammi, C. Pomelli, J. W. Ochterski, 
 R. L. Martin, K. Morokuma, V. G. Zakrzewski, G. A. Voth, 
 P. Salvador, J. J. Dannenberg, S. Dapprich, A. D. Daniels, 
 O. Farkas, J. B. Foresman, J. V. Ortiz, J. Cioslowski, 
 and D. J. Fox, Gaussian, Inc., Wallingford CT, 2009.
 
 ******************************************
 Gaussian 09:  EM64L-G09RevA.02 11-Jun-2009
                29-Dec-2019 
 ******************************************
 %RWF=/scratch/bdw2292/Gau-methanol/,100GB
 %Nosave
 %Chk=methanol-opt-6-1-2-3-257.chk
 %Mem=700MB
 %Nproc=1
 Will use up to    1 processors via shared memory.
 -----------------------------------------------
 #P opt=(,maxcycle=400) HF/6-311G* MaxDisk=100GB
 -----------------------------------------------
 1/6=400,18=20,19=15,38=1/1,3;
 2/9=110,12=2,17=6,18=5,40=1/2;
 3/5=4,6=6,7=1,11=9,16=1,25=1,30=1,71=1/1,2,3;
 4//1;
 5/5=2,38=5/2;
 6/7=2,8=2,9=2,10=2,28=1/1;
 7//1,2,3,16;
 1/6=400,18=20,19=15/3(2);
 2/9=110/2;
 99//99;
 2/9=110/2;
 3/5=4,6=6,7=1,11=9,16=1,25=1,30=1,71=1/1,2,3;
 4/5=5,16=3/1;
 5/5=2,38=5/2;
 7//1,2,3,16;
 1/6=400,18=20,19=15/3(-5);
 2/9=110/2;
 6/7=2,8=2,9=2,10=2,19=2,28=1/1;
 99/9=1/99;
 Leave Link    1 at Sun Dec 29 12:26:31 2019, MaxMem=   91750400 cpu:       0.0
 (Enter /opt/g09gh/gaussian/g09/l101.exe)
 -------------------------------------------------------------
 methanol Rotatable Bond Optimization on node36.bme.utexas.edu
 -------------------------------------------------------------
 Symbolic Z-matrix:
 Charge =  0 Multiplicity = 1
 O                     0.74401   0.11746  -0.01133 
 C                    -0.68543  -0.01194   0.00695 
 H                    -1.06246   0.18434  -1.0011 
 H                    -1.08633   0.6944    0.73982 
 H                    -0.93527  -1.03569   0.30354 
 H                     1.10459  -0.78727  -0.00948 
 
 NAtoms=      6 NQM=      6 NQMF=      0 NMic=      0 NMicF=      0 NTot=      6.
                    Isotopes and Nuclear Properties:
 (Nuclear quadrupole moments (NQMom) in fm**2, nuclear magnetic moments (NMagM)
  in nuclear magnetons)

  Atom         1           2           3           4           5           6
 IAtWgt=          16          12           1           1           1           1
 AtmWgt=  15.9949146  12.0000000   1.0078250   1.0078250   1.0078250   1.0078250
 NucSpn=           0           0           1           1           1           1
 AtZEff=   0.0000000   0.0000000   0.0000000   0.0000000   0.0000000   0.0000000
 NQMom=    0.0000000   0.0000000   0.0000000   0.0000000   0.0000000   0.0000000
 NMagM=    0.0000000   0.0000000   2.7928460   2.7928460   2.7928460   2.7928460
 Leave Link  101 at Sun Dec 29 12:26:31 2019, MaxMem=   91750400 cpu:       0.1
 (Enter /opt/g09gh/gaussian/g09/l103.exe)

 GradGradGradGradGradGradGradGradGradGradGradGradGradGradGradGradGradGrad
 Berny optimization.
 Initialization pass.
                           ----------------------------
                           !    Initial Parameters    !
                           ! (Angstroms and Degrees)  !
 --------------------------                            --------------------------
 ! Name  Definition              Value          Derivative Info.                !
 --------------------------------------------------------------------------------
 ! R1    R(1,2)                  1.4354         estimate D2E/DX2                !
 ! R2    R(1,6)                  0.9739         estimate D2E/DX2                !
 ! R3    R(2,3)                  1.094          estimate D2E/DX2                !
 ! R4    R(2,4)                  1.094          estimate D2E/DX2                !
 ! R5    R(2,5)                  1.0947         estimate D2E/DX2                !
 ! A1    A(2,1,6)              106.5542         estimate D2E/DX2                !
 ! A2    A(1,2,3)              108.3786         estimate D2E/DX2                !
 ! A3    A(1,2,4)              108.3765         estimate D2E/DX2                !
 ! A4    A(1,2,5)              108.3619         estimate D2E/DX2                !
 ! A5    A(3,2,4)              112.0342         estimate D2E/DX2                !
 ! A6    A(3,2,5)              109.8019         estimate D2E/DX2                !
 ! A7    A(4,2,5)              109.7964         estimate D2E/DX2                !
 ! D1    D(6,1,2,3)           -103.0994         estimate D2E/DX2                !
 ! D2    D(6,1,2,4)            135.1018         estimate D2E/DX2                !
 ! D3    D(6,1,2,5)             16.0051         estimate D2E/DX2                !
 --------------------------------------------------------------------------------
 Trust Radius=3.00D-01 FncErr=1.00D-07 GrdErr=1.00D-07
 Number of steps in this run= 100 maximum allowed number of steps= 100.
 GradGradGradGradGradGradGradGradGradGradGradGradGradGradGradGradGradGrad

 Leave Link  103 at Sun Dec 29 12:26:31 2019, MaxMem=   91750400 cpu:       0.0
 (Enter /opt/g09gh/gaussian/g09/l202.exe)
                          Input orientation:                          
 ---------------------------------------------------------------------
 Center     Atomic      Atomic             Coordinates (Angstroms)
 Number     Number       Type             X           Y           Z
 ---------------------------------------------------------------------
      1          8           0        0.744013    0.117458   -0.011325
      2          6           0       -0.685434   -0.011941    0.006947
      3          1           0       -1.062458    0.184337   -1.001102
      4          1           0       -1.086326    0.694404    0.739822
      5          1           0       -0.935270   -1.035693    0.303538
      6          1           0        1.104588   -0.787268   -0.009480
 ---------------------------------------------------------------------
                    Distance matrix (angstroms):
                    1          2          3          4          5
     1  O    0.000000
     2  C    1.435408   0.000000
     3  H    2.060939   1.094000   0.000000
     4  H    2.060881   1.093958   1.814264   0.000000
     5  H    2.061283   1.094739   1.790736   1.790642   0.000000
     6  H    0.973934   1.950790   2.573600   2.748983   2.078633
                    6
     6  H    0.000000
 Stoichiometry    CH4O
 Framework group  C1[X(CH4O)]
 Deg. of freedom    12
 Full point group                 C1      NOp   1
 Largest Abelian subgroup         C1      NOp   1
 Largest concise Abelian subgroup C1      NOp   1
                         Standard orientation:                         
 ---------------------------------------------------------------------
 Center     Atomic      Atomic             Coordinates (Angstroms)
 Number     Number       Type             X           Y           Z
 ---------------------------------------------------------------------
      1          8           0        0.750463   -0.130011    0.002484
      2          6           0       -0.677575    0.015246    0.000782
      3          1           0       -1.043569   -0.162412    1.016322
      4          1           0       -1.095816   -0.696876   -0.716644
      5          1           0       -0.919877    1.037433   -0.307237
      6          1           0        1.121008    0.770469   -0.017003
 ---------------------------------------------------------------------
 Rotational constants (GHZ):    124.4272859     24.6278211     23.7555926
 Leave Link  202 at Sun Dec 29 12:26:31 2019, MaxMem=   91750400 cpu:       0.0
 (Enter /opt/g09gh/gaussian/g09/l301.exe)
 Standard basis: 6-311G(d) (5D, 7F)
 Ernie: Thresh=  0.10000D-02 Tol=  0.10000D-05 Strict=F.
 There are    48 symmetry adapted basis functions of A   symmetry.
 Integral buffers will be    131072 words long.
 Raffenetti 1 integral format.
 Two-electron integral symmetry is turned on.
    48 basis functions,    84 primitive gaussians,    50 cartesian basis functions
     9 alpha electrons        9 beta electrons
       nuclear repulsion energy        40.0723588583 Hartrees.
 IExCor=    0 DFT=F Ex=HF Corr=None ExCW=0 ScaHFX=  1.000000
 ScaDFX=  1.000000  1.000000  1.000000  1.000000 ScalE2=  1.000000  1.000000
 IRadAn=      0 IRanWt=     -1 IRanGd=            0 ICorTp=0
 NAtoms=    6 NActive=    6 NUniq=    6 SFac= 7.50D-01 NAtFMM=   80 NAOKFM=F Big=F
 Leave Link  301 at Sun Dec 29 12:26:31 2019, MaxMem=   91750400 cpu:       0.1
 (Enter /opt/g09gh/gaussian/g09/l302.exe)
 NPDir=0 NMtPBC=     1 NCelOv=     1 NCel=       1 NClECP=     1 NCelD=      1
         NCelK=      1 NCelE2=     1 NClLst=     1 CellRange=     0.0.
 One-electron integrals computed using PRISM.
 NBasis=    48 RedAO= T  NBF=    48
 NBsUse=    48 1.00D-06 NBFU=    48
 Leave Link  302 at Sun Dec 29 12:26:31 2019, MaxMem=   91750400 cpu:       0.1
 (Enter /opt/g09gh/gaussian/g09/l303.exe)
 DipDrv:  MaxL=1.
 Leave Link  303 at Sun Dec 29 12:26:31 2019, MaxMem=   91750400 cpu:       0.0
 (Enter /opt/g09gh/gaussian/g09/l401.exe)
 Harris functional with IExCor=  205 diagonalized for initial guess.
 ExpMin= 1.03D-01 ExpMax= 8.59D+03 ExpMxC= 1.30D+03 IAcc=1 IRadAn=         1 AccDes= 0.00D+00
 HarFok:  IExCor=  205 AccDes= 0.00D+00 IRadAn=         1 IDoV= 1
 ScaDFX=  1.000000  1.000000  1.000000  1.000000
 FoFCou: FMM=F IPFlag=           0 FMFlag=      100000 FMFlg1=           0
         NFxFlg=           0 DoJE=T BraDBF=F KetDBF=T FulRan=T
         Omega=  0.000000  0.000000  1.000000  0.000000  0.000000 ICntrl=     500 IOpCl=  0
         NMat0=    1 NMatS0=    1 NMatT0=    0 NMatD0=    1 NMtDS0=    0 NMtDT0=    0
         I1Cent=           4 NGrid=           0.
 Petite list used in FoFCou.
 Harris En= -115.241967009784    
 Initial guess orbital symmetries:
       Occupied  (A) (A) (A) (A) (A) (A) (A) (A) (A)
       Virtual   (A) (A) (A) (A) (A) (A) (A) (A) (A) (A) (A) (A)
                 (A) (A) (A) (A) (A) (A) (A) (A) (A) (A) (A) (A)
                 (A) (A) (A) (A) (A) (A) (A) (A) (A) (A) (A) (A)
                 (A) (A) (A)
 The electronic state of the initial guess is 1-A.
 Leave Link  401 at Sun Dec 29 12:26:31 2019, MaxMem=   91750400 cpu:       0.2
 (Enter /opt/g09gh/gaussian/g09/l502.exe)
 Closed shell SCF:
 Requested convergence on RMS density matrix=1.00D-08 within 128 cycles.
 Requested convergence on MAX density matrix=1.00D-06.
 Requested convergence on             energy=1.00D-06.
 No special actions if energy rises.
 Using DIIS extrapolation, IDIIS=  1040.
 Integral symmetry usage will be decided dynamically.
 Keep R1 ints in memory in canonical form, NReq=1659792.
 IEnd=       26328 IEndB=       26328 NGot=    91750400 MDV=    90929785
 LenX=    90929785 LenY=    90926844
 Symmetry not used in FoFDir.
 MinBra= 0 MaxBra= 2 Meth= 1.
 IRaf=       0 NMat=   1 IRICut=       1 DoRegI=T DoRafI=F ISym2E= 0 JSym2E=0.

 Cycle   1  Pass 1  IDiag  1:
 E= -114.937130231048    
 DIIS: error= 5.89D-02 at cycle   1 NSaved=   1.
 NSaved= 1 IEnMin= 1 EnMin= -114.937130231048     IErMin= 1 ErrMin= 5.89D-02
 ErrMax= 5.89D-02 EMaxC= 1.00D-01 BMatC= 2.53D-01 BMatP= 2.53D-01
 IDIUse=3 WtCom= 4.11D-01 WtEn= 5.89D-01
 Coeff-Com:  0.100D+01
 Coeff-En:   0.100D+01
 Coeff:      0.100D+01
 Gap=     0.566 Goal=   None    Shift=    0.000
 GapD=    0.566 DampG=2.000 DampE=0.500 DampFc=1.0000 IDamp=-1.
 RMSDP=5.98D-03 MaxDP=8.20D-02              OVMax= 1.06D-01

 Cycle   2  Pass 1  IDiag  1:
 E= -115.034038558873     Delta-E=       -0.096908327825 Rises=F Damp=F
 DIIS: error= 2.71D-02 at cycle   2 NSaved=   2.
 NSaved= 2 IEnMin= 2 EnMin= -115.034038558873     IErMin= 2 ErrMin= 2.71D-02
 ErrMax= 2.71D-02 EMaxC= 1.00D-01 BMatC= 3.52D-02 BMatP= 2.53D-01
 IDIUse=3 WtCom= 7.29D-01 WtEn= 2.71D-01
 Coeff-Com:  0.218D+00 0.782D+00
 Coeff-En:   0.000D+00 0.100D+01
 Coeff:      0.159D+00 0.841D+00
 Gap=     0.628 Goal=   None    Shift=    0.000
 RMSDP=2.90D-03 MaxDP=4.57D-02 DE=-9.69D-02 OVMax= 4.11D-02

 Cycle   3  Pass 1  IDiag  1:
 E= -115.055878999253     Delta-E=       -0.021840440380 Rises=F Damp=F
 DIIS: error= 8.50D-03 at cycle   3 NSaved=   3.
 NSaved= 3 IEnMin= 3 EnMin= -115.055878999253     IErMin= 3 ErrMin= 8.50D-03
 ErrMax= 8.50D-03 EMaxC= 1.00D-01 BMatC= 3.81D-03 BMatP= 3.52D-02
 IDIUse=3 WtCom= 9.15D-01 WtEn= 8.50D-02
 Coeff-Com: -0.140D-01 0.224D+00 0.790D+00
 Coeff-En:   0.000D+00 0.000D+00 0.100D+01
 Coeff:     -0.128D-01 0.205D+00 0.808D+00
 Gap=     0.592 Goal=   None    Shift=    0.000
 RMSDP=6.62D-04 MaxDP=1.06D-02 DE=-2.18D-02 OVMax= 1.28D-02

 Cycle   4  Pass 1  IDiag  1:
 E= -115.058301407809     Delta-E=       -0.002422408555 Rises=F Damp=F
 DIIS: error= 1.37D-03 at cycle   4 NSaved=   4.
 NSaved= 4 IEnMin= 4 EnMin= -115.058301407809     IErMin= 4 ErrMin= 1.37D-03
 ErrMax= 1.37D-03 EMaxC= 1.00D-01 BMatC= 9.76D-05 BMatP= 3.81D-03
 IDIUse=3 WtCom= 9.86D-01 WtEn= 1.37D-02
 Coeff-Com: -0.674D-02 0.293D-01 0.200D+00 0.778D+00
 Coeff-En:   0.000D+00 0.000D+00 0.000D+00 0.100D+01
 Coeff:     -0.665D-02 0.289D-01 0.197D+00 0.781D+00
 Gap=     0.593 Goal=   None    Shift=    0.000
 RMSDP=1.32D-04 MaxDP=2.04D-03 DE=-2.42D-03 OVMax= 2.52D-03

 Cycle   5  Pass 1  IDiag  1:
 E= -115.058380082359     Delta-E=       -0.000078674550 Rises=F Damp=F
 DIIS: error= 3.62D-04 at cycle   5 NSaved=   5.
 NSaved= 5 IEnMin= 5 EnMin= -115.058380082359     IErMin= 5 ErrMin= 3.62D-04
 ErrMax= 3.62D-04 EMaxC= 1.00D-01 BMatC= 4.22D-06 BMatP= 9.76D-05
 IDIUse=3 WtCom= 9.96D-01 WtEn= 3.62D-03
 Coeff-Com:  0.120D-02-0.203D-01-0.722D-01-0.129D-01 0.110D+01
 Coeff-En:   0.000D+00 0.000D+00 0.000D+00 0.000D+00 0.100D+01
 Coeff:      0.119D-02-0.202D-01-0.719D-01-0.128D-01 0.110D+01
 Gap=     0.593 Goal=   None    Shift=    0.000
 RMSDP=5.39D-05 MaxDP=7.69D-04 DE=-7.87D-05 OVMax= 8.65D-04

 Cycle   6  Pass 1  IDiag  1:
 E= -115.058386597424     Delta-E=       -0.000006515065 Rises=F Damp=F
 DIIS: error= 4.96D-05 at cycle   6 NSaved=   6.
 NSaved= 6 IEnMin= 6 EnMin= -115.058386597424     IErMin= 6 ErrMin= 4.96D-05
 ErrMax= 4.96D-05 EMaxC= 1.00D-01 BMatC= 1.25D-07 BMatP= 4.22D-06
 IDIUse=1 WtCom= 1.00D+00 WtEn= 0.00D+00
 Coeff-Com:  0.242D-03-0.710D-03-0.415D-02-0.326D-01-0.891D-01 0.113D+01
 Coeff:      0.242D-03-0.710D-03-0.415D-02-0.326D-01-0.891D-01 0.113D+01
 Gap=     0.593 Goal=   None    Shift=    0.000
 RMSDP=1.22D-05 MaxDP=1.09D-04 DE=-6.52D-06 OVMax= 2.15D-04

 Cycle   7  Pass 1  IDiag  1:
 E= -115.058386878068     Delta-E=       -0.000000280644 Rises=F Damp=F
 DIIS: error= 1.07D-05 at cycle   7 NSaved=   7.
 NSaved= 7 IEnMin= 7 EnMin= -115.058386878068     IErMin= 7 ErrMin= 1.07D-05
 ErrMax= 1.07D-05 EMaxC= 1.00D-01 BMatC= 5.42D-09 BMatP= 1.25D-07
 IDIUse=1 WtCom= 1.00D+00 WtEn= 0.00D+00
 Coeff-Com: -0.104D-03 0.916D-03 0.393D-02 0.785D-02-0.154D-01-0.302D+00
 Coeff-Com:  0.130D+01
 Coeff:     -0.104D-03 0.916D-03 0.393D-02 0.785D-02-0.154D-01-0.302D+00
 Coeff:      0.130D+01
 Gap=     0.593 Goal=   None    Shift=    0.000
 RMSDP=2.89D-06 MaxDP=3.57D-05 DE=-2.81D-07 OVMax= 7.30D-05

 Cycle   8  Pass 1  IDiag  1:
 E= -115.058386892691     Delta-E=       -0.000000014624 Rises=F Damp=F
 DIIS: error= 1.93D-06 at cycle   8 NSaved=   8.
 NSaved= 8 IEnMin= 8 EnMin= -115.058386892691     IErMin= 8 ErrMin= 1.93D-06
 ErrMax= 1.93D-06 EMaxC= 1.00D-01 BMatC= 2.13D-10 BMatP= 5.42D-09
 IDIUse=1 WtCom= 1.00D+00 WtEn= 0.00D+00
 Coeff-Com:  0.174D-04-0.206D-03-0.929D-03-0.132D-02 0.628D-02 0.602D-01
 Coeff-Com: -0.423D+00 0.136D+01
 Coeff:      0.174D-04-0.206D-03-0.929D-03-0.132D-02 0.628D-02 0.602D-01
 Coeff:     -0.423D+00 0.136D+01
 Gap=     0.593 Goal=   None    Shift=    0.000
 RMSDP=7.22D-07 MaxDP=6.22D-06 DE=-1.46D-08 OVMax= 1.86D-05

 Cycle   9  Pass 1  IDiag  1:
 E= -115.058386893348     Delta-E=       -0.000000000657 Rises=F Damp=F
 DIIS: error= 4.83D-07 at cycle   9 NSaved=   9.
 NSaved= 9 IEnMin= 9 EnMin= -115.058386893348     IErMin= 9 ErrMin= 4.83D-07
 ErrMax= 4.83D-07 EMaxC= 1.00D-01 BMatC= 6.87D-12 BMatP= 2.13D-10
 IDIUse=1 WtCom= 1.00D+00 WtEn= 0.00D+00
 Coeff-Com: -0.201D-05 0.359D-04 0.177D-03 0.764D-04-0.194D-02-0.525D-02
 Coeff-Com:  0.789D-01-0.399D+00 0.133D+01
 Coeff:     -0.201D-05 0.359D-04 0.177D-03 0.764D-04-0.194D-02-0.525D-02
 Coeff:      0.789D-01-0.399D+00 0.133D+01
 Gap=     0.593 Goal=   None    Shift=    0.000
 RMSDP=1.10D-07 MaxDP=7.67D-07 DE=-6.57D-10 OVMax= 2.86D-06

 Cycle  10  Pass 1  IDiag  1:
 E= -115.058386893367     Delta-E=       -0.000000000018 Rises=F Damp=F
 DIIS: error= 8.96D-08 at cycle  10 NSaved=  10.
 NSaved=10 IEnMin=10 EnMin= -115.058386893367     IErMin=10 ErrMin= 8.96D-08
 ErrMax= 8.96D-08 EMaxC= 1.00D-01 BMatC= 2.45D-13 BMatP= 6.87D-12
 IDIUse=1 WtCom= 1.00D+00 WtEn= 0.00D+00
 Coeff-Com:  0.401D-07-0.373D-05-0.232D-04 0.221D-04 0.329D-03-0.467D-04
 Coeff-Com: -0.103D-01 0.707D-01-0.371D+00 0.131D+01
 Coeff:      0.401D-07-0.373D-05-0.232D-04 0.221D-04 0.329D-03-0.467D-04
 Coeff:     -0.103D-01 0.707D-01-0.371D+00 0.131D+01
 Gap=     0.593 Goal=   None    Shift=    0.000
 RMSDP=1.92D-08 MaxDP=1.80D-07 DE=-1.84D-11 OVMax= 3.91D-07

 Cycle  11  Pass 1  IDiag  1:
 E= -115.058386893368     Delta-E=       -0.000000000001 Rises=F Damp=F
 DIIS: error= 1.75D-08 at cycle  11 NSaved=  11.
 NSaved=11 IEnMin=11 EnMin= -115.058386893368     IErMin=11 ErrMin= 1.75D-08
 ErrMax= 1.75D-08 EMaxC= 1.00D-01 BMatC= 1.11D-14 BMatP= 2.45D-13
 IDIUse=1 WtCom= 1.00D+00 WtEn= 0.00D+00
 Coeff-Com:  0.892D-07-0.144D-05-0.610D-05-0.690D-05 0.562D-04 0.285D-03
 Coeff-Com: -0.289D-02 0.134D-01-0.265D-01-0.179D+00 0.119D+01
 Coeff:      0.892D-07-0.144D-05-0.610D-05-0.690D-05 0.562D-04 0.285D-03
 Coeff:     -0.289D-02 0.134D-01-0.265D-01-0.179D+00 0.119D+01
 Gap=     0.593 Goal=   None    Shift=    0.000
 RMSDP=4.79D-09 MaxDP=3.12D-08 DE=-8.53D-13 OVMax= 8.47D-08

 SCF Done:  E(RHF) =  -115.058386893     A.U. after   11 cycles
             Convg  =    0.4792D-08             -V/T =  2.0005
 KE= 1.150002316216D+02 PE=-3.514459370677D+02 EE= 8.131495969441D+01
 Leave Link  502 at Sun Dec 29 12:26:32 2019, MaxMem=   91750400 cpu:       0.1
 (Enter /opt/g09gh/gaussian/g09/l601.exe)
 Copying SCF densities to generalized density rwf, IOpCl= 0 IROHF=0.

 **********************************************************************

            Population analysis using the SCF density.

 **********************************************************************

 Orbital symmetries:
       Occupied  (A) (A) (A) (A) (A) (A) (A) (A) (A)
       Virtual   (A) (A) (A) (A) (A) (A) (A) (A) (A) (A) (A) (A)
                 (A) (A) (A) (A) (A) (A) (A) (A) (A) (A) (A) (A)
                 (A) (A) (A) (A) (A) (A) (A) (A) (A) (A) (A) (A)
                 (A) (A) (A)
 The electronic state is 1-A.
 Alpha  occ. eigenvalues --  -20.54253 -11.27172  -1.34412  -0.92005  -0.68073
 Alpha  occ. eigenvalues --   -0.61912  -0.58569  -0.49871  -0.44523
 Alpha virt. eigenvalues --    0.14804   0.18599   0.22914   0.23195   0.33608
 Alpha virt. eigenvalues --    0.45965   0.46964   0.59147   0.67926   0.72315
 Alpha virt. eigenvalues --    0.78681   0.79093   0.94592   1.07281   1.07671
 Alpha virt. eigenvalues --    1.20109   1.55004   1.57071   1.68697   1.76877
 Alpha virt. eigenvalues --    1.77832   1.96652   2.37746   2.63023   2.69669
 Alpha virt. eigenvalues --    2.71587   3.16416   3.18796   3.29977   3.37201
 Alpha virt. eigenvalues --    3.56209   3.57688   3.73748   4.25727   5.37881
 Alpha virt. eigenvalues --    5.52664   5.86717  24.53409  51.52320
          Condensed to atoms (all electrons):
              1          2          3          4          5          6
     1  O    8.290494   0.201611  -0.036777  -0.030891  -0.028607   0.268609
     2  C    0.201611   4.997514   0.390045   0.388785   0.395273  -0.050663
     3  H   -0.036777   0.390045   0.512618  -0.033273  -0.033189   0.002971
     4  H   -0.030891   0.388785  -0.033273   0.492820  -0.029706   0.005832
     5  H   -0.028607   0.395273  -0.033189  -0.029706   0.532155  -0.011927
     6  H    0.268609  -0.050663   0.002971   0.005832  -0.011927   0.378213
 Mulliken atomic charges:
              1
     1  O   -0.664439
     2  C   -0.322565
     3  H    0.197606
     4  H    0.206432
     5  H    0.176001
     6  H    0.406964
 Sum of Mulliken atomic charges =   0.00000
 Mulliken charges with hydrogens summed into heavy atoms:
              1
     1  O   -0.257475
     2  C    0.257475
 Sum of Mulliken charges with hydrogens summed into heavy atoms =   0.00000
 Electronic spatial extent (au):  <R**2>=             84.4245
 Charge=              0.0000 electrons
 Dipole moment (field-independent basis, Debye):
    X=             -1.0702    Y=              1.8398    Z=             -0.0690  Tot=              2.1296
 Quadrupole moment (field-independent basis, Debye-Ang):
   XX=            -13.0121   YY=            -12.0458   ZZ=            -13.5053
   XY=              2.4141   XZ=              0.0038   YZ=              0.0217
 Traceless Quadrupole moment (field-independent basis, Debye-Ang):
   XX=             -0.1577   YY=              0.8086   ZZ=             -0.6509
   XY=              2.4141   XZ=              0.0038   YZ=              0.0217
 Octapole moment (field-independent basis, Debye-Ang**2):
  XXX=              4.1225  YYY=              1.7753  ZZZ=              0.3832  XYY=              1.9646
  XXY=              2.5503  XXZ=             -0.1445  XZZ=              0.1953  YZZ=             -0.1208
  YYZ=             -0.4891  XYZ=             -0.1535
 Hexadecapole moment (field-independent basis, Debye-Ang**3):
 XXXX=            -61.0351 YYYY=            -19.4559 ZZZZ=            -18.8186 XXXY=              3.9058
 XXXZ=              0.0675 YYYX=              1.9310 YYYZ=             -0.0432 ZZZX=             -0.4687
 ZZZY=              0.1150 XXYY=            -12.4992 XXZZ=            -13.5633 YYZZ=             -6.5914
 XXYZ=              0.1657 YYXZ=              0.5027 ZZXY=              0.8890
 N-N= 4.007235885830D+01 E-N=-3.514459371385D+02  KE= 1.150002316216D+02
 No NMR shielding tensors so no spin-rotation constants.
 Leave Link  601 at Sun Dec 29 12:26:32 2019, MaxMem=   91750400 cpu:       0.1
 (Enter /opt/g09gh/gaussian/g09/l701.exe)
 Compute integral first derivatives.
 ... and contract with generalized density number  0.
 Leave Link  701 at Sun Dec 29 12:26:32 2019, MaxMem=   91750400 cpu:       0.1
 (Enter /opt/g09gh/gaussian/g09/l702.exe)
 L702 exits ... SP integral derivatives will be done elsewhere.
 Leave Link  702 at Sun Dec 29 12:26:32 2019, MaxMem=   91750400 cpu:       0.0
 (Enter /opt/g09gh/gaussian/g09/l703.exe)
 Compute integral first derivatives, UseDBF=F ICtDFT=           0.
 Integral derivatives from FoFDir, PRISM(SPDF).
 Calling FoFJK, ICntrl=      2127 FMM=F ISym2X=0 I1Cent= 0 IOpClX= 0 NMat=1 NMatS=1 NMatT=0.
 FoFCou: FMM=F IPFlag=           0 FMFlag=      100000 FMFlg1=         800
         NFxFlg=           0 DoJE=F BraDBF=F KetDBF=F FulRan=T
         Omega=  0.000000  0.000000  1.000000  0.000000  0.000000 ICntrl=    2127 IOpCl=  0
         NMat0=    1 NMatS0=    1 NMatT0=    0 NMatD0=    1 NMtDS0=    0 NMtDT0=    0
         I1Cent=           0 NGrid=           0.
 Symmetry not used in FoFCou.
 Leave Link  703 at Sun Dec 29 12:26:32 2019, MaxMem=   91750400 cpu:       0.3
 (Enter /opt/g09gh/gaussian/g09/l716.exe)
 Dipole        =-4.21039393D-01 7.23848592D-01-2.71663520D-02
 ***** Axes restored to original set *****
 -------------------------------------------------------------------
 Center     Atomic                   Forces (Hartrees/Bohr)
 Number     Number              X              Y              Z
 -------------------------------------------------------------------
      1        8          -0.006098419   -0.038820055    0.003259463
      2        6           0.022426197   -0.001971975   -0.000999479
      3        1          -0.002925263   -0.000135792    0.009751040
      4        1           0.001050096   -0.005515556   -0.008942648
      5        1          -0.006144717    0.008723825   -0.001504227
      6        1          -0.008307893    0.037719554   -0.001564149
 -------------------------------------------------------------------
 Cartesian Forces:  Max     0.038820055 RMS     0.014697212
 Leave Link  716 at Sun Dec 29 12:26:32 2019, MaxMem=   91750400 cpu:       0.0
 (Enter /opt/g09gh/gaussian/g09/l103.exe)

 GradGradGradGradGradGradGradGradGradGradGradGradGradGradGradGradGradGrad
 Berny optimization.
 Internal  Forces:  Max     0.038117960 RMS     0.012409173
 Search for a local minimum.
 Step number   1 out of a maximum of  100
 All quantities printed in internal units (Hartrees-Bohrs-Radians)
 RMS Force = .12409D-01 SwitMx=.10000D-02 MixMth= 1
 Mixed Optimization -- RFO/linear search
 Second derivative matrix not updated -- first step.
 The second derivative matrix:
                          R1        R2        R3        R4        R5
           R1           0.40222
           R2           0.00000   0.52581
           R3           0.00000   0.00000   0.34355
           R4           0.00000   0.00000   0.00000   0.34359
           R5           0.00000   0.00000   0.00000   0.00000   0.34271
           A1           0.00000   0.00000   0.00000   0.00000   0.00000
           A2           0.00000   0.00000   0.00000   0.00000   0.00000
           A3           0.00000   0.00000   0.00000   0.00000   0.00000
           A4           0.00000   0.00000   0.00000   0.00000   0.00000
           A5           0.00000   0.00000   0.00000   0.00000   0.00000
           A6           0.00000   0.00000   0.00000   0.00000   0.00000
           A7           0.00000   0.00000   0.00000   0.00000   0.00000
           D1           0.00000   0.00000   0.00000   0.00000   0.00000
           D2           0.00000   0.00000   0.00000   0.00000   0.00000
           D3           0.00000   0.00000   0.00000   0.00000   0.00000
                          A1        A2        A3        A4        A5
           A1           0.16000
           A2           0.00000   0.16000
           A3           0.00000   0.00000   0.16000
           A4           0.00000   0.00000   0.00000   0.16000
           A5           0.00000   0.00000   0.00000   0.00000   0.16000
           A6           0.00000   0.00000   0.00000   0.00000   0.00000
           A7           0.00000   0.00000   0.00000   0.00000   0.00000
           D1           0.00000   0.00000   0.00000   0.00000   0.00000
           D2           0.00000   0.00000   0.00000   0.00000   0.00000
           D3           0.00000   0.00000   0.00000   0.00000   0.00000
                          A6        A7        D1        D2        D3
           A6           0.16000
           A7           0.00000   0.16000
           D1           0.00000   0.00000   0.01223
           D2           0.00000   0.00000   0.00000   0.01223
           D3           0.00000   0.00000   0.00000   0.00000   0.01223
     Eigenvalues ---    0.01223   0.10464   0.10559   0.16000   0.16000
     Eigenvalues ---    0.16000   0.16000   0.34271   0.34355   0.34359
     Eigenvalues ---    0.40222   0.525811000.000001000.000001000.00000
 RFO step:  Lambda=-6.68055211D-03 EMin= 1.22339774D-02
 Linear search not attempted -- first point.
 Iteration  1 RMS(Cart)=  0.05273887 RMS(Int)=  0.00304827
 Iteration  2 RMS(Cart)=  0.00252984 RMS(Int)=  0.00086663
 Iteration  3 RMS(Cart)=  0.00000393 RMS(Int)=  0.00086662
 Iteration  4 RMS(Cart)=  0.00000000 RMS(Int)=  0.00086662
 Variable       Old X    -DE/DX   Delta X   Delta X   Delta X     New X
                                 (Linear)    (Quad)   (Total)
    R1        2.71253  -0.01447   0.00000  -0.03538  -0.03538   2.67715
    R2        1.84047  -0.03812   0.00000  -0.07158  -0.07158   1.76888
    R3        2.06736  -0.00800   0.00000  -0.02285  -0.02285   2.04451
    R4        2.06728  -0.00994   0.00000  -0.02837  -0.02837   2.03891
    R5        2.06876  -0.00716   0.00000  -0.02050  -0.02050   2.04825
    A1        1.85972   0.01153   0.00000   0.06920   0.06920   1.92892
    A2        1.89156   0.00630   0.00000   0.03700   0.03576   1.92733
    A3        1.89153  -0.00047   0.00000  -0.00727  -0.00763   1.88390
    A4        1.89127   0.01196   0.00000   0.07688   0.07555   1.96682
    A5        1.95537  -0.00726   0.00000  -0.05404  -0.05425   1.90112
    A6        1.91640  -0.00479   0.00000  -0.01946  -0.02149   1.89491
    A7        1.91631  -0.00482   0.00000  -0.02734  -0.02783   1.88848
    D1       -1.79942  -0.00247   0.00000   0.01410   0.01269  -1.78673
    D2        2.35797   0.00284   0.00000   0.06181   0.06203   2.42000
    D3        0.27934   0.00211   0.00000   0.05517   0.05635   0.33569
         Item               Value     Threshold  Converged?
 Maximum Force            0.038118     0.000450     NO 
 RMS     Force            0.012409     0.000300     NO 
 Maximum Displacement     0.122088     0.001800     NO 
 RMS     Displacement     0.052260     0.001200     NO 
 Predicted change in Energy=-3.453337D-03
 GradGradGradGradGradGradGradGradGradGradGradGradGradGradGradGradGradGrad

 Leave Link  103 at Sun Dec 29 12:26:32 2019, MaxMem=   91750400 cpu:       0.0
 (Enter /opt/g09gh/gaussian/g09/l202.exe)
                          Input orientation:                          
 ---------------------------------------------------------------------
 Center     Atomic      Atomic             Coordinates (Angstroms)
 Number     Number       Type             X           Y           Z
 ---------------------------------------------------------------------
      1          8           0        0.740610    0.096197    0.005771
      2          6           0       -0.670242   -0.032232    0.006766
      3          1           0       -1.069682    0.182765   -0.975452
      4          1           0       -1.068471    0.682076    0.710542
      5          1           0       -0.999876   -1.020883    0.304634
      6          1           0        1.146774   -0.746625   -0.023861
 ---------------------------------------------------------------------
                    Distance matrix (angstroms):
                    1          2          3          4          5
     1  O    0.000000
     2  C    1.416685   0.000000
     3  H    2.060934   1.081910   0.000000
     4  H    2.027987   1.078945   1.758377   0.000000
     5  H    2.089612   1.083889   1.758483   1.752009   0.000000
     6  H    0.936053   1.952649   2.584950   2.736392   2.188888
                    6
     6  H    0.000000
 Stoichiometry    CH4O
 Framework group  C1[X(CH4O)]
 Deg. of freedom    12
 Full point group                 C1      NOp   1
 Largest Abelian subgroup         C1      NOp   1
 Largest concise Abelian subgroup C1      NOp   1
                         Standard orientation:                         
 ---------------------------------------------------------------------
 Center     Atomic      Atomic             Coordinates (Angstroms)
 Number     Number       Type             X           Y           Z
 ---------------------------------------------------------------------
      1          8           0        0.744724   -0.119216    0.000391
      2          6           0       -0.665256    0.018456    0.001055
      3          1           0       -1.062170   -0.165578    0.990560
      4          1           0       -1.070919   -0.713134   -0.680367
      5          1           0       -0.989641    1.000296   -0.323874
      6          1           0        1.156472    0.721406    0.004226
 ---------------------------------------------------------------------
 Rotational constants (GHZ):    132.5847911     24.9145467     24.0955825
 Leave Link  202 at Sun Dec 29 12:26:32 2019, MaxMem=   91750400 cpu:       0.0
 (Enter /opt/g09gh/gaussian/g09/l301.exe)
 Standard basis: 6-311G(d) (5D, 7F)
 Ernie: Thresh=  0.10000D-02 Tol=  0.10000D-05 Strict=F.
 There are    48 symmetry adapted basis functions of A   symmetry.
 Integral buffers will be    131072 words long.
 Raffenetti 1 integral format.
 Two-electron integral symmetry is turned on.
    48 basis functions,    84 primitive gaussians,    50 cartesian basis functions
     9 alpha electrons        9 beta electrons
       nuclear repulsion energy        40.5962695544 Hartrees.
 IExCor=    0 DFT=F Ex=HF Corr=None ExCW=0 ScaHFX=  1.000000
 ScaDFX=  1.000000  1.000000  1.000000  1.000000 ScalE2=  1.000000  1.000000
 IRadAn=      0 IRanWt=     -1 IRanGd=            0 ICorTp=0
 NAtoms=    6 NActive=    6 NUniq=    6 SFac= 7.50D-01 NAtFMM=   80 NAOKFM=F Big=F
 Leave Link  301 at Sun Dec 29 12:26:33 2019, MaxMem=   91750400 cpu:       0.1
 (Enter /opt/g09gh/gaussian/g09/l302.exe)
 NPDir=0 NMtPBC=     1 NCelOv=     1 NCel=       1 NClECP=     1 NCelD=      1
         NCelK=      1 NCelE2=     1 NClLst=     1 CellRange=     0.0.
 One-electron integrals computed using PRISM.
 NBasis=    48 RedAO= T  NBF=    48
 NBsUse=    48 1.00D-06 NBFU=    48
 Leave Link  302 at Sun Dec 29 12:26:33 2019, MaxMem=   91750400 cpu:       0.1
 (Enter /opt/g09gh/gaussian/g09/l303.exe)
 DipDrv:  MaxL=1.
 Leave Link  303 at Sun Dec 29 12:26:33 2019, MaxMem=   91750400 cpu:       0.0
 (Enter /opt/g09gh/gaussian/g09/l401.exe)
 Initial guess read from the read-write file.
 B after Tr=     0.000000    0.000000    0.000000
         Rot=    1.000000    0.000000    0.000000    0.000000 Ang=   0.00 deg.
 Guess basis will be translated and rotated to current coordinates.
 Initial guess orbital symmetries:
       Occupied  (A) (A) (A) (A) (A) (A) (A) (A) (A)
       Virtual   (A) (A) (A) (A) (A) (A) (A) (A) (A) (A) (A) (A)
                 (A) (A) (A) (A) (A) (A) (A) (A) (A) (A) (A) (A)
                 (A) (A) (A) (A) (A) (A) (A) (A) (A) (A) (A) (A)
                 (A) (A) (A)
 The electronic state of the initial guess is 1-A.
 Generating alternative initial guess.
 Harris functional with IExCor=  205 diagonalized for initial guess.
 ExpMin= 1.03D-01 ExpMax= 8.59D+03 ExpMxC= 1.30D+03 IAcc=1 IRadAn=         1 AccDes= 0.00D+00
 HarFok:  IExCor=  205 AccDes= 0.00D+00 IRadAn=         1 IDoV= 1
 ScaDFX=  1.000000  1.000000  1.000000  1.000000
 FoFCou: FMM=F IPFlag=           0 FMFlag=      100000 FMFlg1=           0
         NFxFlg=           0 DoJE=T BraDBF=F KetDBF=T FulRan=T
         Omega=  0.000000  0.000000  1.000000  0.000000  0.000000 ICntrl=     500 IOpCl=  0
         NMat0=    1 NMatS0=    1 NMatT0=    0 NMatD0=    1 NMtDS0=    0 NMtDT0=    0
         I1Cent=           4 NGrid=           0.
 Petite list used in FoFCou.
 Harris En= -115.246994374998    
 Leave Link  401 at Sun Dec 29 12:26:33 2019, MaxMem=   91750400 cpu:       0.3
 (Enter /opt/g09gh/gaussian/g09/l502.exe)
 Closed shell SCF:
 Requested convergence on RMS density matrix=1.00D-08 within 128 cycles.
 Requested convergence on MAX density matrix=1.00D-06.
 Requested convergence on             energy=1.00D-06.
 No special actions if energy rises.
 Using DIIS extrapolation, IDIIS=  1040.
 Integral symmetry usage will be decided dynamically.
 Keep R1 ints in memory in canonical form, NReq=1659792.
 IEnd=       26328 IEndB=       26328 NGot=    91750400 MDV=    90929785
 LenX=    90929785 LenY=    90926844
 Symmetry not used in FoFDir.
 MinBra= 0 MaxBra= 2 Meth= 1.
 IRaf=       0 NMat=   1 IRICut=       1 DoRegI=T DoRafI=F ISym2E= 0 JSym2E=0.

 Cycle   1  Pass 1  IDiag  1:
 E= -115.059689983421    
 DIIS: error= 5.41D-03 at cycle   1 NSaved=   1.
 NSaved= 1 IEnMin= 1 EnMin= -115.059689983421     IErMin= 1 ErrMin= 5.41D-03
 ErrMax= 5.41D-03 EMaxC= 1.00D-01 BMatC= 1.74D-03 BMatP= 1.74D-03
 IDIUse=3 WtCom= 9.46D-01 WtEn= 5.41D-02
 Coeff-Com:  0.100D+01
 Coeff-En:   0.100D+01
 Coeff:      0.100D+01
 Gap=     0.606 Goal=   None    Shift=    0.000
 GapD=    0.606 DampG=2.000 DampE=1.000 DampFc=2.0000 IDamp=-1.
 RMSDP=6.10D-04 MaxDP=7.41D-03              OVMax= 1.14D-02

 Cycle   2  Pass 1  IDiag  1:
 E= -115.061531823063     Delta-E=       -0.001841839642 Rises=F Damp=F
 DIIS: error= 1.68D-03 at cycle   2 NSaved=   2.
 NSaved= 2 IEnMin= 2 EnMin= -115.061531823063     IErMin= 2 ErrMin= 1.68D-03
 ErrMax= 1.68D-03 EMaxC= 1.00D-01 BMatC= 1.48D-04 BMatP= 1.74D-03
 IDIUse=3 WtCom= 9.83D-01 WtEn= 1.68D-02
 Coeff-Com: -0.246D-01 0.102D+01
 Coeff-En:   0.000D+00 0.100D+01
 Coeff:     -0.242D-01 0.102D+01
 Gap=     0.596 Goal=   None    Shift=    0.000
 RMSDP=2.32D-04 MaxDP=3.48D-03 DE=-1.84D-03 OVMax= 4.56D-03

 Cycle   3  Pass 1  IDiag  1:
 E= -115.061709149391     Delta-E=       -0.000177326328 Rises=F Damp=F
 DIIS: error= 1.04D-03 at cycle   3 NSaved=   3.
 NSaved= 3 IEnMin= 3 EnMin= -115.061709149391     IErMin= 3 ErrMin= 1.04D-03
 ErrMax= 1.04D-03 EMaxC= 1.00D-01 BMatC= 3.10D-05 BMatP= 1.48D-04
 IDIUse=3 WtCom= 9.90D-01 WtEn= 1.04D-02
 Coeff-Com: -0.828D-01 0.244D+00 0.839D+00
 Coeff-En:   0.000D+00 0.000D+00 0.100D+01
 Coeff:     -0.820D-01 0.242D+00 0.840D+00
 Gap=     0.598 Goal=   None    Shift=    0.000
 RMSDP=9.61D-05 MaxDP=1.28D-03 DE=-1.77D-04 OVMax= 1.83D-03

 Cycle   4  Pass 1  IDiag  1:
 E= -115.061743430740     Delta-E=       -0.000034281350 Rises=F Damp=F
 DIIS: error= 2.24D-04 at cycle   4 NSaved=   4.
 NSaved= 4 IEnMin= 4 EnMin= -115.061743430740     IErMin= 4 ErrMin= 2.24D-04
 ErrMax= 2.24D-04 EMaxC= 1.00D-01 BMatC= 2.07D-06 BMatP= 3.10D-05
 IDIUse=3 WtCom= 9.98D-01 WtEn= 2.24D-03
 Coeff-Com: -0.129D-02-0.914D-01 0.200D-01 0.107D+01
 Coeff-En:   0.000D+00 0.000D+00 0.000D+00 0.100D+01
 Coeff:     -0.129D-02-0.912D-01 0.199D-01 0.107D+01
 Gap=     0.598 Goal=   None    Shift=    0.000
 RMSDP=4.30D-05 MaxDP=3.68D-04 DE=-3.43D-05 OVMax= 9.10D-04

 Cycle   5  Pass 1  IDiag  1:
 E= -115.061747365822     Delta-E=       -0.000003935082 Rises=F Damp=F
 DIIS: error= 4.39D-05 at cycle   5 NSaved=   5.
 NSaved= 5 IEnMin= 5 EnMin= -115.061747365822     IErMin= 5 ErrMin= 4.39D-05
 ErrMax= 4.39D-05 EMaxC= 1.00D-01 BMatC= 1.20D-07 BMatP= 2.07D-06
 IDIUse=1 WtCom= 1.00D+00 WtEn= 0.00D+00
 Coeff-Com:  0.389D-02-0.121D-01-0.510D-01-0.182D-01 0.108D+01
 Coeff:      0.389D-02-0.121D-01-0.510D-01-0.182D-01 0.108D+01
 Gap=     0.598 Goal=   None    Shift=    0.000
 RMSDP=1.26D-05 MaxDP=9.56D-05 DE=-3.94D-06 OVMax= 2.58D-04

 Cycle   6  Pass 1  IDiag  1:
 E= -115.061747642938     Delta-E=       -0.000000277116 Rises=F Damp=F
 DIIS: error= 1.34D-05 at cycle   6 NSaved=   6.
 NSaved= 6 IEnMin= 6 EnMin= -115.061747642938     IErMin= 6 ErrMin= 1.34D-05
 ErrMax= 1.34D-05 EMaxC= 1.00D-01 BMatC= 1.14D-08 BMatP= 1.20D-07
 IDIUse=1 WtCom= 1.00D+00 WtEn= 0.00D+00
 Coeff-Com:  0.382D-03 0.578D-02-0.527D-02-0.853D-01 0.104D+00 0.980D+00
 Coeff:      0.382D-03 0.578D-02-0.527D-02-0.853D-01 0.104D+00 0.980D+00
 Gap=     0.598 Goal=   None    Shift=    0.000
 RMSDP=3.63D-06 MaxDP=3.17D-05 DE=-2.77D-07 OVMax= 7.20D-05

 Cycle   7  Pass 1  IDiag  1:
 E= -115.061747667813     Delta-E=       -0.000000024875 Rises=F Damp=F
 DIIS: error= 4.09D-06 at cycle   7 NSaved=   7.
 NSaved= 7 IEnMin= 7 EnMin= -115.061747667813     IErMin= 7 ErrMin= 4.09D-06
 ErrMax= 4.09D-06 EMaxC= 1.00D-01 BMatC= 9.70D-10 BMatP= 1.14D-08
 IDIUse=1 WtCom= 1.00D+00 WtEn= 0.00D+00
 Coeff-Com: -0.458D-03 0.566D-03 0.570D-02 0.105D-01-0.116D+00-0.148D+00
 Coeff-Com:  0.125D+01
 Coeff:     -0.458D-03 0.566D-03 0.570D-02 0.105D-01-0.116D+00-0.148D+00
 Coeff:      0.125D+01
 Gap=     0.598 Goal=   None    Shift=    0.000
 RMSDP=1.46D-06 MaxDP=1.75D-05 DE=-2.49D-08 OVMax= 3.63D-05

 Cycle   8  Pass 1  IDiag  1:
 E= -115.061747670646     Delta-E=       -0.000000002832 Rises=F Damp=F
 DIIS: error= 1.08D-06 at cycle   8 NSaved=   8.
 NSaved= 8 IEnMin= 8 EnMin= -115.061747670646     IErMin= 8 ErrMin= 1.08D-06
 ErrMax= 1.08D-06 EMaxC= 1.00D-01 BMatC= 4.37D-11 BMatP= 9.70D-10
 IDIUse=1 WtCom= 1.00D+00 WtEn= 0.00D+00
 Coeff-Com:  0.101D-03-0.341D-03-0.141D-02 0.122D-02 0.278D-01 0.876D-03
 Coeff-Com: -0.353D+00 0.132D+01
 Coeff:      0.101D-03-0.341D-03-0.141D-02 0.122D-02 0.278D-01 0.876D-03
 Coeff:     -0.353D+00 0.132D+01
 Gap=     0.598 Goal=   None    Shift=    0.000
 RMSDP=3.27D-07 MaxDP=4.04D-06 DE=-2.83D-09 OVMax= 8.82D-06

 Cycle   9  Pass 1  IDiag  1:
 E= -115.061747670792     Delta-E=       -0.000000000147 Rises=F Damp=F
 DIIS: error= 2.77D-07 at cycle   9 NSaved=   9.
 NSaved= 9 IEnMin= 9 EnMin= -115.061747670792     IErMin= 9 ErrMin= 2.77D-07
 ErrMax= 2.77D-07 EMaxC= 1.00D-01 BMatC= 2.62D-12 BMatP= 4.37D-11
 IDIUse=1 WtCom= 1.00D+00 WtEn= 0.00D+00
 Coeff-Com: -0.413D-05 0.429D-04 0.115D-03-0.762D-03-0.248D-02 0.524D-02
 Coeff-Com:  0.465D-01-0.433D+00 0.138D+01
 Coeff:     -0.413D-05 0.429D-04 0.115D-03-0.762D-03-0.248D-02 0.524D-02
 Coeff:      0.465D-01-0.433D+00 0.138D+01
 Gap=     0.598 Goal=   None    Shift=    0.000
 RMSDP=8.98D-08 MaxDP=1.03D-06 DE=-1.47D-10 OVMax= 2.48D-06

 Cycle  10  Pass 1  IDiag  1:
 E= -115.061747670802     Delta-E=       -0.000000000009 Rises=F Damp=F
 DIIS: error= 3.21D-08 at cycle  10 NSaved=  10.
 NSaved=10 IEnMin=10 EnMin= -115.061747670802     IErMin=10 ErrMin= 3.21D-08
 ErrMax= 3.21D-08 EMaxC= 1.00D-01 BMatC= 8.38D-14 BMatP= 2.62D-12
 IDIUse=1 WtCom= 1.00D+00 WtEn= 0.00D+00
 Coeff-Com: -0.162D-05-0.960D-05 0.192D-04 0.267D-03-0.370D-03-0.258D-02
 Coeff-Com:  0.171D-02 0.805D-01-0.421D+00 0.134D+01
 Coeff:     -0.162D-05-0.960D-05 0.192D-04 0.267D-03-0.370D-03-0.258D-02
 Coeff:      0.171D-02 0.805D-01-0.421D+00 0.134D+01
 Gap=     0.598 Goal=   None    Shift=    0.000
 RMSDP=1.41D-08 MaxDP=1.30D-07 DE=-9.29D-12 OVMax= 3.36D-07

 Cycle  11  Pass 1  IDiag  1:
 E= -115.061747670802     Delta-E=        0.000000000000 Rises=F Damp=F
 DIIS: error= 7.66D-09 at cycle  11 NSaved=  11.
 NSaved=11 IEnMin=10 EnMin= -115.061747670802     IErMin=11 ErrMin= 7.66D-09
 ErrMax= 7.66D-09 EMaxC= 1.00D-01 BMatC= 2.87D-15 BMatP= 8.38D-14
 IDIUse=1 WtCom= 1.00D+00 WtEn= 0.00D+00
 Coeff-Com:  0.296D-06 0.187D-06-0.697D-05-0.863D-05 0.131D-03 0.948D-04
 Coeff-Com: -0.184D-02 0.492D-02 0.913D-02-0.195D+00 0.118D+01
 Coeff:      0.296D-06 0.187D-06-0.697D-05-0.863D-05 0.131D-03 0.948D-04
 Coeff:     -0.184D-02 0.492D-02 0.913D-02-0.195D+00 0.118D+01
 Gap=     0.598 Goal=   None    Shift=    0.000
 RMSDP=2.36D-09 MaxDP=1.79D-08 DE= 1.14D-13 OVMax= 4.70D-08

 SCF Done:  E(RHF) =  -115.061747671     A.U. after   11 cycles
             Convg  =    0.2362D-08             -V/T =  1.9993
 KE= 1.151465775797D+02 PE=-3.525749976807D+02 EE= 8.177040287584D+01
 Leave Link  502 at Sun Dec 29 12:26:33 2019, MaxMem=   91750400 cpu:       0.1
 (Enter /opt/g09gh/gaussian/g09/l701.exe)
 Compute integral first derivatives.
 ... and contract with generalized density number  0.
 Leave Link  701 at Sun Dec 29 12:26:33 2019, MaxMem=   91750400 cpu:       0.1
 (Enter /opt/g09gh/gaussian/g09/l702.exe)
 L702 exits ... SP integral derivatives will be done elsewhere.
 Leave Link  702 at Sun Dec 29 12:26:33 2019, MaxMem=   91750400 cpu:       0.0
 (Enter /opt/g09gh/gaussian/g09/l703.exe)
 Compute integral first derivatives, UseDBF=F ICtDFT=           0.
 Integral derivatives from FoFDir, PRISM(SPDF).
 Calling FoFJK, ICntrl=      2127 FMM=F ISym2X=0 I1Cent= 0 IOpClX= 0 NMat=1 NMatS=1 NMatT=0.
 FoFCou: FMM=F IPFlag=           0 FMFlag=      100000 FMFlg1=         800
         NFxFlg=           0 DoJE=F BraDBF=F KetDBF=F FulRan=T
         Omega=  0.000000  0.000000  1.000000  0.000000  0.000000 ICntrl=    2127 IOpCl=  0
         NMat0=    1 NMatS0=    1 NMatT0=    0 NMatD0=    1 NMtDS0=    0 NMtDT0=    0
         I1Cent=           0 NGrid=           0.
 Symmetry not used in FoFCou.
 Leave Link  703 at Sun Dec 29 12:26:34 2019, MaxMem=   91750400 cpu:       0.3
 (Enter /opt/g09gh/gaussian/g09/l716.exe)
 Dipole        =-3.70095951D-01 7.05924742D-01-1.12311087D-02
 ***** Axes restored to original set *****
 -------------------------------------------------------------------
 Center     Atomic                   Forces (Hartrees/Bohr)
 Number     Number              X              Y              Z
 -------------------------------------------------------------------
      1        8          -0.011289535   -0.000763808    0.002239068
      2        6           0.011184204    0.002406226   -0.000137689
      3        1          -0.000724726   -0.000050975   -0.001801246
      4        1          -0.001232096    0.001564527    0.000617710
      5        1           0.001400808   -0.001430865    0.000797429
      6        1           0.000661346   -0.001725105   -0.001715272
 -------------------------------------------------------------------
 Cartesian Forces:  Max     0.011289535 RMS     0.003965591
 Leave Link  716 at Sun Dec 29 12:26:34 2019, MaxMem=   91750400 cpu:       0.0
 (Enter /opt/g09gh/gaussian/g09/l103.exe)

 GradGradGradGradGradGradGradGradGradGradGradGradGradGradGradGradGradGrad
 Berny optimization.
 Using GEDIIS/GDIIS optimizer.
 Internal  Forces:  Max     0.010810424 RMS     0.003100553
 Search for a local minimum.
 Step number   2 out of a maximum of  100
 All quantities printed in internal units (Hartrees-Bohrs-Radians)
 RMS Force = .31006D-02 SwitMx=.10000D-02 MixMth= 1
 Mixed Optimization -- RFO/linear search
 Update second derivatives using D2CorX and points    1    2
 DE= -3.36D-03 DEPred=-3.45D-03 R= 9.73D-01
 SS=  1.41D+00  RLast= 1.77D-01 DXNew= 5.0454D-01 5.3093D-01
 Trust test= 9.73D-01 RLast= 1.77D-01 DXMaxT set to 5.05D-01
 The second derivative matrix:
                          R1        R2        R3        R4        R5
           R1           0.37280
           R2          -0.06132   0.54408
           R3          -0.01194   0.01303   0.34854
           R4          -0.01508   0.01347   0.00553   0.34966
           R5          -0.01102   0.00812   0.00360   0.00391   0.34520
           A1           0.01800  -0.00578  -0.00393  -0.00408  -0.00247
           A2           0.00945  -0.00141  -0.00164  -0.00164  -0.00095
           A3          -0.00168   0.00392   0.00124   0.00142   0.00095
           A4           0.01854  -0.01851  -0.00731  -0.00806  -0.00522
           A5          -0.01531  -0.00852  -0.00014  -0.00066  -0.00076
           A6          -0.00461   0.01253   0.00388   0.00444   0.00299
           A7          -0.00681   0.00706   0.00275   0.00304   0.00197
           D1           0.00250   0.02456   0.00604   0.00723   0.00505
           D2           0.00047  -0.00878  -0.00234  -0.00276  -0.00190
           D3           0.00071  -0.00486  -0.00136  -0.00159  -0.00108
                          A1        A2        A3        A4        A5
           A1           0.16182
           A2           0.00047   0.16001
           A3          -0.00117  -0.00053   0.16028
           A4           0.00559   0.00230  -0.00184   0.17067
           A5           0.00244   0.00154   0.00031   0.00050   0.15578
           A6          -0.00374  -0.00172   0.00086  -0.00576   0.00115
           A7          -0.00213  -0.00088   0.00069  -0.00402  -0.00014
           D1          -0.00726  -0.00360   0.00113  -0.00914   0.00440
           D2           0.00260   0.00126  -0.00047   0.00352  -0.00132
           D3           0.00145   0.00069  -0.00028   0.00203  -0.00065
                          A6        A7        D1        D2        D3
           A6           0.16263
           A7           0.00215   0.16152
           D1           0.00332   0.00339   0.01458
           D2          -0.00140  -0.00131  -0.00133   0.01288
           D3          -0.00085  -0.00076  -0.00090   0.00041   0.01249
 Use linear search instead of GDIIS.
     Eigenvalues ---    0.01192   0.10009   0.10515   0.15540   0.16000
     Eigenvalues ---    0.16000   0.17471   0.33881   0.34321   0.34381
     Eigenvalues ---    0.37115   0.570411000.000001000.000001000.00000
 RFO step:  Lambda=-5.92870253D-04 EMin= 1.19219146D-02
 Quartic linear search produced a step of -0.00710.
 Iteration  1 RMS(Cart)=  0.02360032 RMS(Int)=  0.00083987
 Iteration  2 RMS(Cart)=  0.00072171 RMS(Int)=  0.00001683
 Iteration  3 RMS(Cart)=  0.00000076 RMS(Int)=  0.00001682
 Variable       Old X    -DE/DX   Delta X   Delta X   Delta X     New X
                                 (Linear)    (Quad)   (Total)
    R1        2.67715  -0.01081   0.00025  -0.02975  -0.02950   2.64765
    R2        1.76888   0.00189   0.00051  -0.00277  -0.00226   1.76662
    R3        2.04451   0.00189   0.00016   0.00343   0.00359   2.04810
    R4        2.03891   0.00189   0.00020   0.00294   0.00314   2.04205
    R5        2.04825   0.00110   0.00015   0.00135   0.00150   2.04975
    A1        1.92892  -0.00030  -0.00049   0.00428   0.00379   1.93271
    A2        1.92733   0.00045  -0.00025   0.00575   0.00549   1.93282
    A3        1.88390   0.00138   0.00005   0.00884   0.00889   1.89279
    A4        1.96682  -0.00302  -0.00054  -0.01299  -0.01350   1.95331
    A5        1.90112  -0.00017   0.00039  -0.00393  -0.00357   1.89755
    A6        1.89491   0.00069   0.00015   0.00035   0.00052   1.89543
    A7        1.88848   0.00073   0.00020   0.00207   0.00229   1.89076
    D1       -1.78673   0.00150  -0.00009   0.07750   0.07744  -1.70929
    D2        2.42000   0.00062  -0.00044   0.07360   0.07313   2.49313
    D3        0.33569   0.00062  -0.00040   0.07307   0.07268   0.40837
         Item               Value     Threshold  Converged?
 Maximum Force            0.010810     0.000450     NO 
 RMS     Force            0.003101     0.000300     NO 
 Maximum Displacement     0.054782     0.001800     NO 
 RMS     Displacement     0.023494     0.001200     NO 
 Predicted change in Energy=-3.013302D-04
 GradGradGradGradGradGradGradGradGradGradGradGradGradGradGradGradGradGrad

 Leave Link  103 at Sun Dec 29 12:26:34 2019, MaxMem=   91750400 cpu:       0.0
 (Enter /opt/g09gh/gaussian/g09/l202.exe)
                          Input orientation:                          
 ---------------------------------------------------------------------
 Center     Atomic      Atomic             Coordinates (Angstroms)
 Number     Number       Type             X           Y           Z
 ---------------------------------------------------------------------
      1          8           0        0.730978    0.091193    0.029779
      2          6           0       -0.664790   -0.029312    0.011941
      3          1           0       -1.055244    0.176815   -0.977858
      4          1           0       -1.078946    0.689178    0.704733
      5          1           0       -0.989542   -1.019588    0.312654
      6          1           0        1.136657   -0.746989   -0.052850
 ---------------------------------------------------------------------
                    Distance matrix (angstroms):
                    1          2          3          4          5
     1  O    0.000000
     2  C    1.401075   0.000000
     3  H    2.052622   1.083810   0.000000
     4  H    2.022121   1.080608   1.759031   0.000000
     5  H    2.067376   1.084683   1.760999   1.755448   0.000000
     6  H    0.934855   1.940225   2.552153   2.746890   2.174540
                    6
     6  H    0.000000
 Stoichiometry    CH4O
 Framework group  C1[X(CH4O)]
 Deg. of freedom    12
 Full point group                 C1      NOp   1
 Largest Abelian subgroup         C1      NOp   1
 Largest concise Abelian subgroup C1      NOp   1
                         Standard orientation:                         
 ---------------------------------------------------------------------
 Center     Atomic      Atomic             Coordinates (Angstroms)
 Number     Number       Type             X           Y           Z
 ---------------------------------------------------------------------
      1          8           0        0.736609   -0.120672    0.000459
      2          6           0       -0.657502    0.018846    0.000754
      3          1           0       -1.053614   -0.086666    1.004052
      4          1           0       -1.078979   -0.757243   -0.621947
      5          1           0       -0.968295    0.979901   -0.394616
      6          1           0        1.153024    0.716309    0.004320
 ---------------------------------------------------------------------
 Rotational constants (GHZ):    132.4701212     25.3666873     24.5182761
 Leave Link  202 at Sun Dec 29 12:26:34 2019, MaxMem=   91750400 cpu:       0.0
 (Enter /opt/g09gh/gaussian/g09/l301.exe)
 Standard basis: 6-311G(d) (5D, 7F)
 Ernie: Thresh=  0.10000D-02 Tol=  0.10000D-05 Strict=F.
 There are    48 symmetry adapted basis functions of A   symmetry.
 Integral buffers will be    131072 words long.
 Raffenetti 1 integral format.
 Two-electron integral symmetry is turned on.
    48 basis functions,    84 primitive gaussians,    50 cartesian basis functions
     9 alpha electrons        9 beta electrons
       nuclear repulsion energy        40.8389515736 Hartrees.
 IExCor=    0 DFT=F Ex=HF Corr=None ExCW=0 ScaHFX=  1.000000
 ScaDFX=  1.000000  1.000000  1.000000  1.000000 ScalE2=  1.000000  1.000000
 IRadAn=      0 IRanWt=     -1 IRanGd=            0 ICorTp=0
 NAtoms=    6 NActive=    6 NUniq=    6 SFac= 7.50D-01 NAtFMM=   80 NAOKFM=F Big=F
 Leave Link  301 at Sun Dec 29 12:26:34 2019, MaxMem=   91750400 cpu:       0.1
 (Enter /opt/g09gh/gaussian/g09/l302.exe)
 NPDir=0 NMtPBC=     1 NCelOv=     1 NCel=       1 NClECP=     1 NCelD=      1
         NCelK=      1 NCelE2=     1 NClLst=     1 CellRange=     0.0.
 One-electron integrals computed using PRISM.
 NBasis=    48 RedAO= T  NBF=    48
 NBsUse=    48 1.00D-06 NBFU=    48
 Leave Link  302 at Sun Dec 29 12:26:34 2019, MaxMem=   91750400 cpu:       0.1
 (Enter /opt/g09gh/gaussian/g09/l303.exe)
 DipDrv:  MaxL=1.
 Leave Link  303 at Sun Dec 29 12:26:34 2019, MaxMem=   91750400 cpu:       0.0
 (Enter /opt/g09gh/gaussian/g09/l401.exe)
 Initial guess read from the read-write file.
 B after Tr=     0.000000    0.000000    0.000000
         Rot=    1.000000    0.000000    0.000000    0.000000 Ang=   0.00 deg.
 Guess basis will be translated and rotated to current coordinates.
 Initial guess orbital symmetries:
       Occupied  (A) (A) (A) (A) (A) (A) (A) (A) (A)
       Virtual   (A) (A) (A) (A) (A) (A) (A) (A) (A) (A) (A) (A)
                 (A) (A) (A) (A) (A) (A) (A) (A) (A) (A) (A) (A)
                 (A) (A) (A) (A) (A) (A) (A) (A) (A) (A) (A) (A)
                 (A) (A) (A)
 The electronic state of the initial guess is 1-A.
 Generating alternative initial guess.
 Harris functional with IExCor=  205 diagonalized for initial guess.
 ExpMin= 1.03D-01 ExpMax= 8.59D+03 ExpMxC= 1.30D+03 IAcc=1 IRadAn=         1 AccDes= 0.00D+00
 HarFok:  IExCor=  205 AccDes= 0.00D+00 IRadAn=         1 IDoV= 1
 ScaDFX=  1.000000  1.000000  1.000000  1.000000
 FoFCou: FMM=F IPFlag=           0 FMFlag=      100000 FMFlg1=           0
         NFxFlg=           0 DoJE=T BraDBF=F KetDBF=T FulRan=T
         Omega=  0.000000  0.000000  1.000000  0.000000  0.000000 ICntrl=     500 IOpCl=  0
         NMat0=    1 NMatS0=    1 NMatT0=    0 NMatD0=    1 NMtDS0=    0 NMtDT0=    0
         I1Cent=           4 NGrid=           0.
 Petite list used in FoFCou.
 Harris En= -115.247901716069    
 Leave Link  401 at Sun Dec 29 12:26:35 2019, MaxMem=   91750400 cpu:       0.3
 (Enter /opt/g09gh/gaussian/g09/l502.exe)
 Closed shell SCF:
 Requested convergence on RMS density matrix=1.00D-08 within 128 cycles.
 Requested convergence on MAX density matrix=1.00D-06.
 Requested convergence on             energy=1.00D-06.
 No special actions if energy rises.
 Using DIIS extrapolation, IDIIS=  1040.
 Integral symmetry usage will be decided dynamically.
 Keep R1 ints in memory in canonical form, NReq=1659792.
 IEnd=       26328 IEndB=       26328 NGot=    91750400 MDV=    90929785
 LenX=    90929785 LenY=    90926844
 Symmetry not used in FoFDir.
 MinBra= 0 MaxBra= 2 Meth= 1.
 IRaf=       0 NMat=   1 IRICut=       1 DoRegI=T DoRafI=F ISym2E= 0 JSym2E=0.

 Cycle   1  Pass 1  IDiag  1:
 E= -115.060557654776    
 DIIS: error= 5.45D-03 at cycle   1 NSaved=   1.
 NSaved= 1 IEnMin= 1 EnMin= -115.060557654776     IErMin= 1 ErrMin= 5.45D-03
 ErrMax= 5.45D-03 EMaxC= 1.00D-01 BMatC= 9.02D-04 BMatP= 9.02D-04
 IDIUse=3 WtCom= 9.45D-01 WtEn= 5.45D-02
 Coeff-Com:  0.100D+01
 Coeff-En:   0.100D+01
 Coeff:      0.100D+01
 Gap=     0.597 Goal=   None    Shift=    0.000
 GapD=    0.597 DampG=2.000 DampE=1.000 DampFc=2.0000 IDamp=-1.
 RMSDP=3.82D-04 MaxDP=3.28D-03              OVMax= 1.03D-02

 Cycle   2  Pass 1  IDiag  1:
 E= -115.061961270524     Delta-E=       -0.001403615748 Rises=F Damp=F
 DIIS: error= 1.87D-03 at cycle   2 NSaved=   2.
 NSaved= 2 IEnMin= 2 EnMin= -115.061961270524     IErMin= 2 ErrMin= 1.87D-03
 ErrMax= 1.87D-03 EMaxC= 1.00D-01 BMatC= 8.08D-05 BMatP= 9.02D-04
 IDIUse=3 WtCom= 9.81D-01 WtEn= 1.87D-02
 Coeff-Com: -0.335D+00 0.133D+01
 Coeff-En:   0.000D+00 0.100D+01
 Coeff:     -0.328D+00 0.133D+01
 Gap=     0.596 Goal=   None    Shift=    0.000
 RMSDP=2.32D-04 MaxDP=2.32D-03 DE=-1.40D-03 OVMax= 5.17D-03

 Cycle   3  Pass 1  IDiag  1:
 E= -115.062146596703     Delta-E=       -0.000185326179 Rises=F Damp=F
 DIIS: error= 2.76D-04 at cycle   3 NSaved=   3.
 NSaved= 3 IEnMin= 3 EnMin= -115.062146596703     IErMin= 3 ErrMin= 2.76D-04
 ErrMax= 2.76D-04 EMaxC= 1.00D-01 BMatC= 3.27D-06 BMatP= 8.08D-05
 IDIUse=3 WtCom= 9.97D-01 WtEn= 2.76D-03
 Coeff-Com: -0.339D-01 0.126D-01 0.102D+01
 Coeff-En:   0.000D+00 0.000D+00 0.100D+01
 Coeff:     -0.338D-01 0.126D-01 0.102D+01
 Gap=     0.597 Goal=   None    Shift=    0.000
 RMSDP=6.58D-05 MaxDP=5.70D-04 DE=-1.85D-04 OVMax= 1.02D-03

 Cycle   4  Pass 1  IDiag  1:
 E= -115.062152948409     Delta-E=       -0.000006351706 Rises=F Damp=F
 DIIS: error= 9.26D-05 at cycle   4 NSaved=   4.
 NSaved= 4 IEnMin= 4 EnMin= -115.062152948409     IErMin= 4 ErrMin= 9.26D-05
 ErrMax= 9.26D-05 EMaxC= 1.00D-01 BMatC= 5.61D-07 BMatP= 3.27D-06
 IDIUse=1 WtCom= 1.00D+00 WtEn= 0.00D+00
 Coeff-Com:  0.260D-01-0.139D+00 0.270D+00 0.843D+00
 Coeff:      0.260D-01-0.139D+00 0.270D+00 0.843D+00
 Gap=     0.596 Goal=   None    Shift=    0.000
 RMSDP=2.30D-05 MaxDP=1.95D-04 DE=-6.35D-06 OVMax= 3.32D-04

 Cycle   5  Pass 1  IDiag  1:
 E= -115.062153608443     Delta-E=       -0.000000660034 Rises=F Damp=F
 DIIS: error= 1.38D-05 at cycle   5 NSaved=   5.
 NSaved= 5 IEnMin= 5 EnMin= -115.062153608443     IErMin= 5 ErrMin= 1.38D-05
 ErrMax= 1.38D-05 EMaxC= 1.00D-01 BMatC= 1.01D-08 BMatP= 5.61D-07
 IDIUse=1 WtCom= 1.00D+00 WtEn= 0.00D+00
 Coeff-Com:  0.164D-02-0.318D-02-0.367D-01 0.159D-01 0.102D+01
 Coeff:      0.164D-02-0.318D-02-0.367D-01 0.159D-01 0.102D+01
 Gap=     0.596 Goal=   None    Shift=    0.000
 RMSDP=5.50D-06 MaxDP=4.27D-05 DE=-6.60D-07 OVMax= 7.19D-05

 Cycle   6  Pass 1  IDiag  1:
 E= -115.062153628875     Delta-E=       -0.000000020432 Rises=F Damp=F
 DIIS: error= 3.23D-06 at cycle   6 NSaved=   6.
 NSaved= 6 IEnMin= 6 EnMin= -115.062153628875     IErMin= 6 ErrMin= 3.23D-06
 ErrMax= 3.23D-06 EMaxC= 1.00D-01 BMatC= 8.70D-10 BMatP= 1.01D-08
 IDIUse=1 WtCom= 1.00D+00 WtEn= 0.00D+00
 Coeff-Com: -0.154D-02 0.865D-02-0.212D-01-0.530D-01 0.102D+00 0.965D+00
 Coeff:     -0.154D-02 0.865D-02-0.212D-01-0.530D-01 0.102D+00 0.965D+00
 Gap=     0.596 Goal=   None    Shift=    0.000
 RMSDP=1.24D-06 MaxDP=8.60D-06 DE=-2.04D-08 OVMax= 2.01D-05

 Cycle   7  Pass 1  IDiag  1:
 E= -115.062153630498     Delta-E=       -0.000000001624 Rises=F Damp=F
 DIIS: error= 1.10D-06 at cycle   7 NSaved=   7.
 NSaved= 7 IEnMin= 7 EnMin= -115.062153630498     IErMin= 7 ErrMin= 1.10D-06
 ErrMax= 1.10D-06 EMaxC= 1.00D-01 BMatC= 7.06D-11 BMatP= 8.70D-10
 IDIUse=1 WtCom= 1.00D+00 WtEn= 0.00D+00
 Coeff-Com:  0.678D-04-0.699D-03 0.488D-02 0.397D-02-0.825D-01-0.850D-01
 Coeff-Com:  0.116D+01
 Coeff:      0.678D-04-0.699D-03 0.488D-02 0.397D-02-0.825D-01-0.850D-01
 Coeff:      0.116D+01
 Gap=     0.596 Goal=   None    Shift=    0.000
 RMSDP=3.43D-07 MaxDP=3.24D-06 DE=-1.62D-09 OVMax= 7.66D-06

 Cycle   8  Pass 1  IDiag  1:
 E= -115.062153630697     Delta-E=       -0.000000000198 Rises=F Damp=F
 DIIS: error= 3.99D-07 at cycle   8 NSaved=   8.
 NSaved= 8 IEnMin= 8 EnMin= -115.062153630697     IErMin= 8 ErrMin= 3.99D-07
 ErrMax= 3.99D-07 EMaxC= 1.00D-01 BMatC= 6.70D-12 BMatP= 7.06D-11
 IDIUse=1 WtCom= 1.00D+00 WtEn= 0.00D+00
 Coeff-Com:  0.145D-03-0.748D-03 0.117D-02 0.452D-02 0.100D-01-0.866D-01
 Coeff-Com: -0.260D+00 0.133D+01
 Coeff:      0.145D-03-0.748D-03 0.117D-02 0.452D-02 0.100D-01-0.866D-01
 Coeff:     -0.260D+00 0.133D+01
 Gap=     0.596 Goal=   None    Shift=    0.000
 RMSDP=1.47D-07 MaxDP=1.50D-06 DE=-1.98D-10 OVMax= 3.40D-06

 Cycle   9  Pass 1  IDiag  1:
 E= -115.062153630719     Delta-E=       -0.000000000022 Rises=F Damp=F
 DIIS: error= 7.52D-08 at cycle   9 NSaved=   9.
 NSaved= 9 IEnMin= 9 EnMin= -115.062153630719     IErMin= 9 ErrMin= 7.52D-08
 ErrMax= 7.52D-08 EMaxC= 1.00D-01 BMatC= 1.86D-13 BMatP= 6.70D-12
 IDIUse=1 WtCom= 1.00D+00 WtEn= 0.00D+00
 Coeff-Com: -0.311D-04 0.175D-03-0.441D-03-0.105D-02 0.183D-02 0.201D-01
 Coeff-Com:  0.371D-02-0.259D+00 0.123D+01
 Coeff:     -0.311D-04 0.175D-03-0.441D-03-0.105D-02 0.183D-02 0.201D-01
 Coeff:      0.371D-02-0.259D+00 0.123D+01
 Gap=     0.596 Goal=   None    Shift=    0.000
 RMSDP=2.20D-08 MaxDP=2.56D-07 DE=-2.23D-11 OVMax= 5.76D-07

 Cycle  10  Pass 1  IDiag  1:
 E= -115.062153630719     Delta-E=       -0.000000000001 Rises=F Damp=F
 DIIS: error= 1.53D-08 at cycle  10 NSaved=  10.
 NSaved=10 IEnMin=10 EnMin= -115.062153630719     IErMin=10 ErrMin= 1.53D-08
 ErrMax= 1.53D-08 EMaxC= 1.00D-01 BMatC= 1.02D-14 BMatP= 1.86D-13
 IDIUse=1 WtCom= 1.00D+00 WtEn= 0.00D+00
 Coeff-Com:  0.190D-05-0.132D-04 0.573D-04 0.735D-04-0.763D-03-0.170D-02
 Coeff-Com:  0.740D-02 0.205D-01-0.353D+00 0.133D+01
 Coeff:      0.190D-05-0.132D-04 0.573D-04 0.735D-04-0.763D-03-0.170D-02
 Coeff:      0.740D-02 0.205D-01-0.353D+00 0.133D+01
 Gap=     0.596 Goal=   None    Shift=    0.000
 RMSDP=5.37D-09 MaxDP=6.14D-08 DE=-5.12D-13 OVMax= 1.33D-07

 SCF Done:  E(RHF) =  -115.062153631     A.U. after   10 cycles
             Convg  =    0.5374D-08             -V/T =  1.9990
 KE= 1.151742591549D+02 PE=-3.530682042818D+02 EE= 8.199283992256D+01
 Leave Link  502 at Sun Dec 29 12:26:35 2019, MaxMem=   91750400 cpu:       0.1
 (Enter /opt/g09gh/gaussian/g09/l701.exe)
 Compute integral first derivatives.
 ... and contract with generalized density number  0.
 Leave Link  701 at Sun Dec 29 12:26:35 2019, MaxMem=   91750400 cpu:       0.1
 (Enter /opt/g09gh/gaussian/g09/l702.exe)
 L702 exits ... SP integral derivatives will be done elsewhere.
 Leave Link  702 at Sun Dec 29 12:26:35 2019, MaxMem=   91750400 cpu:       0.0
 (Enter /opt/g09gh/gaussian/g09/l703.exe)
 Compute integral first derivatives, UseDBF=F ICtDFT=           0.
 Integral derivatives from FoFDir, PRISM(SPDF).
 Calling FoFJK, ICntrl=      2127 FMM=F ISym2X=0 I1Cent= 0 IOpClX= 0 NMat=1 NMatS=1 NMatT=0.
 FoFCou: FMM=F IPFlag=           0 FMFlag=      100000 FMFlg1=         800
         NFxFlg=           0 DoJE=F BraDBF=F KetDBF=F FulRan=T
         Omega=  0.000000  0.000000  1.000000  0.000000  0.000000 ICntrl=    2127 IOpCl=  0
         NMat0=    1 NMatS0=    1 NMatT0=    0 NMatD0=    1 NMtDS0=    0 NMtDT0=    0
         I1Cent=           0 NGrid=           0.
 Symmetry not used in FoFCou.
 Leave Link  703 at Sun Dec 29 12:26:35 2019, MaxMem=   91750400 cpu:       0.3
 (Enter /opt/g09gh/gaussian/g09/l716.exe)
 Dipole        =-3.43949761D-01 7.00498927D-01-1.37661421D-02
 ***** Axes restored to original set *****
 -------------------------------------------------------------------
 Center     Atomic                   Forces (Hartrees/Bohr)
 Number     Number              X              Y              Z
 -------------------------------------------------------------------
      1        8          -0.001016331    0.003195819    0.003093406
      2        6           0.002064906   -0.000288500   -0.000866321
      3        1          -0.001108001   -0.000331589   -0.001130413
      4        1          -0.000251870    0.000818137    0.000173382
      5        1          -0.000858578   -0.000630904    0.000860322
      6        1           0.001169873   -0.002762964   -0.002130376
 -------------------------------------------------------------------
 Cartesian Forces:  Max     0.003195819 RMS     0.001575994
 Leave Link  716 at Sun Dec 29 12:26:35 2019, MaxMem=   91750400 cpu:       0.0
 (Enter /opt/g09gh/gaussian/g09/l103.exe)

 GradGradGradGradGradGradGradGradGradGradGradGradGradGradGradGradGradGrad
 Berny optimization.
 Using GEDIIS/GDIIS optimizer.
 Internal  Forces:  Max     0.003173214 RMS     0.001135399
 Search for a local minimum.
 Step number   3 out of a maximum of  100
 All quantities printed in internal units (Hartrees-Bohrs-Radians)
 RMS Force = .11354D-02 SwitMx=.10000D-02 MixMth= 1
 Mixed Optimization -- RFO/linear search
 Update second derivatives using D2CorX and points    1    2    3
 DE= -4.06D-04 DEPred=-3.01D-04 R= 1.35D+00
 SS=  1.41D+00  RLast= 1.34D-01 DXNew= 8.4853D-01 4.0083D-01
 Trust test= 1.35D+00 RLast= 1.34D-01 DXMaxT set to 5.05D-01
 The second derivative matrix:
                          R1        R2        R3        R4        R5
           R1           0.49970
           R2           0.03687   0.57374
           R3           0.01433   0.01339   0.34529
           R4          -0.00634   0.00878   0.00243   0.34743
           R5           0.01407   0.01198   0.00203   0.00181   0.34489
           A1           0.00180  -0.01192  -0.00460  -0.00359  -0.00358
           A2           0.03134   0.00189  -0.00318  -0.00344  -0.00134
           A3          -0.02802  -0.01205  -0.00224   0.00067  -0.00273
           A4           0.05930   0.00775  -0.00137  -0.00648   0.00091
           A5          -0.01338  -0.00696   0.00036  -0.00054  -0.00030
           A6          -0.03012   0.00379   0.00350   0.00535   0.00175
           A7          -0.02349  -0.00083   0.00157   0.00310   0.00044
           D1           0.00263   0.02032   0.00420   0.00616   0.00363
           D2           0.02383  -0.00638  -0.00443  -0.00497  -0.00267
           D3           0.03723   0.00178  -0.00333  -0.00434  -0.00128
                          A1        A2        A3        A4        A5
           A1           0.16294
           A2          -0.00061   0.15930
           A3           0.00164  -0.00361   0.16527
           A4           0.00092   0.00723  -0.00960   0.18252
           A5           0.00225   0.00208  -0.00016   0.00135   0.15573
           A6          -0.00186  -0.00248   0.00497  -0.01222   0.00058
           A7          -0.00060  -0.00201   0.00358  -0.00849  -0.00051
           D1          -0.00668  -0.00484   0.00151  -0.00958   0.00440
           D2           0.00164   0.00025  -0.00368   0.00875  -0.00077
           D3          -0.00043   0.00009  -0.00561   0.01067   0.00016
                          A6        A7        D1        D2        D3
           A6           0.16480
           A7           0.00408   0.16301
           D1           0.00432   0.00384   0.01417
           D2          -0.00202  -0.00244  -0.00276   0.01150
           D3          -0.00260  -0.00290  -0.00287  -0.00066   0.01230
 Use linear search instead of GDIIS.
     Eigenvalues ---    0.00522   0.10110   0.10462   0.15388   0.16000
     Eigenvalues ---    0.16302   0.17913   0.34214   0.34305   0.34981
     Eigenvalues ---    0.50581   0.597451000.000001000.000001000.00000
 RFO step:  Lambda=-4.34588621D-04 EMin= 5.22014434D-03
 Quartic linear search produced a step of  0.51943.
 Iteration  1 RMS(Cart)=  0.04733463 RMS(Int)=  0.00440791
 Iteration  2 RMS(Cart)=  0.00380412 RMS(Int)=  0.00002689
 Iteration  3 RMS(Cart)=  0.00002238 RMS(Int)=  0.00002180
 Iteration  4 RMS(Cart)=  0.00000000 RMS(Int)=  0.00002180
 Variable       Old X    -DE/DX   Delta X   Delta X   Delta X     New X
                                 (Linear)    (Quad)   (Total)
    R1        2.64765   0.00020  -0.01532  -0.00857  -0.02390   2.62375
    R2        1.76662   0.00317  -0.00118   0.00327   0.00210   1.76871
    R3        2.04810   0.00137   0.00187   0.00506   0.00692   2.05503
    R4        2.04205   0.00075   0.00163   0.00192   0.00355   2.04561
    R5        2.04975   0.00107   0.00078   0.00348   0.00426   2.05402
    A1        1.93271  -0.00042   0.00197   0.00194   0.00391   1.93662
    A2        1.93282   0.00102   0.00285   0.01386   0.01667   1.94949
    A3        1.89279  -0.00050   0.00462  -0.00415   0.00046   1.89325
    A4        1.95331   0.00064  -0.00701   0.00840   0.00136   1.95468
    A5        1.89755  -0.00032  -0.00185  -0.00810  -0.00999   1.88757
    A6        1.89543  -0.00050   0.00027  -0.00430  -0.00408   1.89135
    A7        1.89076  -0.00039   0.00119  -0.00660  -0.00541   1.88536
    D1       -1.70929   0.00081   0.04023   0.12699   0.16720  -1.54208
    D2        2.49313   0.00091   0.03798   0.13124   0.16920   2.66233
    D3        0.40837   0.00133   0.03775   0.13698   0.17477   0.58314
         Item               Value     Threshold  Converged?
 Maximum Force            0.003173     0.000450     NO 
 RMS     Force            0.001135     0.000300     NO 
 Maximum Displacement     0.120850     0.001800     NO 
 RMS     Displacement     0.047262     0.001200     NO 
 Predicted change in Energy=-3.139288D-04
 GradGradGradGradGradGradGradGradGradGradGradGradGradGradGradGradGradGrad

 Leave Link  103 at Sun Dec 29 12:26:35 2019, MaxMem=   91750400 cpu:       0.0
 (Enter /opt/g09gh/gaussian/g09/l202.exe)
                          Input orientation:                          
 ---------------------------------------------------------------------
 Center     Atomic      Atomic             Coordinates (Angstroms)
 Number     Number       Type             X           Y           Z
 ---------------------------------------------------------------------
      1          8           0        0.724739    0.080724    0.084721
      2          6           0       -0.657699   -0.031432    0.021302
      3          1           0       -1.031145    0.161712   -0.981611
      4          1           0       -1.092286    0.700745    0.689757
      5          1           0       -1.000946   -1.015142    0.331033
      6          1           0        1.136449   -0.735310   -0.116801
 ---------------------------------------------------------------------
                    Distance matrix (angstroms):
                    1          2          3          4          5
     1  O    0.000000
     2  C    1.388429   0.000000
     3  H    2.055907   1.087474   0.000000
     4  H    2.012976   1.082488   1.757203   0.000000
     5  H    2.059024   1.086939   1.763215   1.755362   0.000000
     6  H    0.935964   1.932222   2.500201   2.771289   2.201662
                    6
     6  H    0.000000
 Stoichiometry    CH4O
 Framework group  C1[X(CH4O)]
 Deg. of freedom    12
 Full point group                 C1      NOp   1
 Largest Abelian subgroup         C1      NOp   1
 Largest concise Abelian subgroup C1      NOp   1
                         Standard orientation:                         
 ---------------------------------------------------------------------
 Center     Atomic      Atomic             Coordinates (Angstroms)
 Number     Number       Type             X           Y           Z
 ---------------------------------------------------------------------
      1          8           0        0.731149   -0.120859    0.000557
      2          6           0       -0.650162    0.019549    0.000753
      3          1           0       -1.047864    0.081231    1.011015
      4          1           0       -1.083259   -0.848414   -0.479713
      5          1           0       -0.969724    0.901957   -0.547585
      6          1           0        1.152629    0.714806    0.007311
 ---------------------------------------------------------------------
 Rotational constants (GHZ):    132.5044666     25.6793223     24.8151159
 Leave Link  202 at Sun Dec 29 12:26:35 2019, MaxMem=   91750400 cpu:       0.0
 (Enter /opt/g09gh/gaussian/g09/l301.exe)
 Standard basis: 6-311G(d) (5D, 7F)
 Ernie: Thresh=  0.10000D-02 Tol=  0.10000D-05 Strict=F.
 There are    48 symmetry adapted basis functions of A   symmetry.
 Integral buffers will be    131072 words long.
 Raffenetti 1 integral format.
 Two-electron integral symmetry is turned on.
    48 basis functions,    84 primitive gaussians,    50 cartesian basis functions
     9 alpha electrons        9 beta electrons
       nuclear repulsion energy        40.9985151262 Hartrees.
 IExCor=    0 DFT=F Ex=HF Corr=None ExCW=0 ScaHFX=  1.000000
 ScaDFX=  1.000000  1.000000  1.000000  1.000000 ScalE2=  1.000000  1.000000
 IRadAn=      0 IRanWt=     -1 IRanGd=            0 ICorTp=0
 NAtoms=    6 NActive=    6 NUniq=    6 SFac= 7.50D-01 NAtFMM=   80 NAOKFM=F Big=F
 Leave Link  301 at Sun Dec 29 12:26:35 2019, MaxMem=   91750400 cpu:       0.1
 (Enter /opt/g09gh/gaussian/g09/l302.exe)
 NPDir=0 NMtPBC=     1 NCelOv=     1 NCel=       1 NClECP=     1 NCelD=      1
         NCelK=      1 NCelE2=     1 NClLst=     1 CellRange=     0.0.
 One-electron integrals computed using PRISM.
 NBasis=    48 RedAO= T  NBF=    48
 NBsUse=    48 1.00D-06 NBFU=    48
 Leave Link  302 at Sun Dec 29 12:26:36 2019, MaxMem=   91750400 cpu:       0.1
 (Enter /opt/g09gh/gaussian/g09/l303.exe)
 DipDrv:  MaxL=1.
 Leave Link  303 at Sun Dec 29 12:26:36 2019, MaxMem=   91750400 cpu:       0.0
 (Enter /opt/g09gh/gaussian/g09/l401.exe)
 Initial guess read from the read-write file.
 B after Tr=     0.000000    0.000000    0.000000
         Rot=    1.000000    0.000000    0.000000    0.000000 Ang=   0.00 deg.
 Guess basis will be translated and rotated to current coordinates.
 Initial guess orbital symmetries:
       Occupied  (A) (A) (A) (A) (A) (A) (A) (A) (A)
       Virtual   (A) (A) (A) (A) (A) (A) (A) (A) (A) (A) (A) (A)
                 (A) (A) (A) (A) (A) (A) (A) (A) (A) (A) (A) (A)
                 (A) (A) (A) (A) (A) (A) (A) (A) (A) (A) (A) (A)
                 (A) (A) (A)
 The electronic state of the initial guess is 1-A.
 Generating alternative initial guess.
 Harris functional with IExCor=  205 diagonalized for initial guess.
 ExpMin= 1.03D-01 ExpMax= 8.59D+03 ExpMxC= 1.30D+03 IAcc=1 IRadAn=         1 AccDes= 0.00D+00
 HarFok:  IExCor=  205 AccDes= 0.00D+00 IRadAn=         1 IDoV= 1
 ScaDFX=  1.000000  1.000000  1.000000  1.000000
 FoFCou: FMM=F IPFlag=           0 FMFlag=      100000 FMFlg1=           0
         NFxFlg=           0 DoJE=T BraDBF=F KetDBF=T FulRan=T
         Omega=  0.000000  0.000000  1.000000  0.000000  0.000000 ICntrl=     500 IOpCl=  0
         NMat0=    1 NMatS0=    1 NMatT0=    0 NMatD0=    1 NMtDS0=    0 NMtDT0=    0
         I1Cent=           4 NGrid=           0.
 Petite list used in FoFCou.
 Harris En= -115.248558919579    
 Leave Link  401 at Sun Dec 29 12:26:36 2019, MaxMem=   91750400 cpu:       0.3
 (Enter /opt/g09gh/gaussian/g09/l502.exe)
 Closed shell SCF:
 Requested convergence on RMS density matrix=1.00D-08 within 128 cycles.
 Requested convergence on MAX density matrix=1.00D-06.
 Requested convergence on             energy=1.00D-06.
 No special actions if energy rises.
 Using DIIS extrapolation, IDIIS=  1040.
 Integral symmetry usage will be decided dynamically.
 Keep R1 ints in memory in canonical form, NReq=1659792.
 IEnd=       26328 IEndB=       26328 NGot=    91750400 MDV=    90929785
 LenX=    90929785 LenY=    90926844
 Symmetry not used in FoFDir.
 MinBra= 0 MaxBra= 2 Meth= 1.
 IRaf=       0 NMat=   1 IRICut=       1 DoRegI=T DoRafI=F ISym2E= 0 JSym2E=0.

 Cycle   1  Pass 1  IDiag  1:
 E= -115.055233482847    
 DIIS: error= 1.23D-02 at cycle   1 NSaved=   1.
 NSaved= 1 IEnMin= 1 EnMin= -115.055233482847     IErMin= 1 ErrMin= 1.23D-02
 ErrMax= 1.23D-02 EMaxC= 1.00D-01 BMatC= 4.00D-03 BMatP= 4.00D-03
 IDIUse=3 WtCom= 8.77D-01 WtEn= 1.23D-01
 Coeff-Com:  0.100D+01
 Coeff-En:   0.100D+01
 Coeff:      0.100D+01
 Recover alternate guess density for next cycle.
 RMSDP=4.57D-03 MaxDP=5.08D-02              OVMax= 0.00D+00

 Cycle   2  Pass 1  IDiag  1:
 E= -114.934974359046     Delta-E=        0.120259123801 Rises=F Damp=F
 Switch densities from cycles 1 and 2 for lowest energy.
 DIIS: error= 5.94D-02 at cycle   2 NSaved=   2.
 NSaved= 2 IEnMin= 1 EnMin= -115.055233482847     IErMin= 1 ErrMin= 1.23D-02
 ErrMax= 5.94D-02 EMaxC= 1.00D+00 BMatC= 2.63D-01 BMatP= 4.00D-03
 IDIUse=1 WtCom= 1.00D+00 WtEn= 0.00D+00
 Coeff-Com:  0.984D+00 0.160D-01
 Coeff:      0.984D+00 0.160D-01
 Gap=     0.640 Goal=   None    Shift=    0.000
 RMSDP=7.96D-04 MaxDP=7.31D-03 DE= 1.20D-01 OVMax= 8.42D-02

 Cycle   3  Pass 1  IDiag  1:
 E= -115.061743583709     Delta-E=       -0.126769224663 Rises=F Damp=F
 DIIS: error= 4.05D-03 at cycle   3 NSaved=   3.
 NSaved= 3 IEnMin= 3 EnMin= -115.061743583709     IErMin= 3 ErrMin= 4.05D-03
 ErrMax= 4.05D-03 EMaxC= 1.00D+00 BMatC= 3.71D-04 BMatP= 4.00D-03
 IDIUse=1 WtCom= 1.00D+00 WtEn= 0.00D+00
 Coeff-Com: -0.360D+00 0.410D-02 0.136D+01
 Coeff:     -0.360D+00 0.410D-02 0.136D+01
 Gap=     0.597 Goal=   None    Shift=    0.000
 RMSDP=5.18D-04 MaxDP=5.14D-03 DE=-1.27D-01 OVMax= 1.16D-02

 Cycle   4  Pass 1  IDiag  1:
[...]
 RMSDP=2.76D-06 MaxDP=2.12D-05 DE=-4.08D-07 OVMax= 6.02D-05

 Cycle  10  Pass 1  IDiag  1:
 E= -115.063728435287     Delta-E=       -0.000000010855 Rises=F Damp=F
 DIIS: error= 2.92D-06 at cycle  10 NSaved=  10.
 NSaved=10 IEnMin=10 EnMin= -115.063728435287     IErMin=10 ErrMin= 2.92D-06
 ErrMax= 2.92D-06 EMaxC= 1.00D-01 BMatC= 1.77D-10 BMatP= 4.35D-09
 IDIUse=1 WtCom= 1.00D+00 WtEn= 0.00D+00
 Coeff-Com:  0.182D-04-0.239D-04 0.460D-04 0.345D-05-0.829D-03-0.873D-03
 Coeff-Com:  0.833D-02 0.122D-01-0.285D+00 0.127D+01
 Coeff:      0.182D-04-0.239D-04 0.460D-04 0.345D-05-0.829D-03-0.873D-03
 Coeff:      0.833D-02 0.122D-01-0.285D+00 0.127D+01
 Gap=     0.600 Goal=   None    Shift=    0.000
 RMSDP=5.01D-07 MaxDP=3.80D-06 DE=-1.09D-08 OVMax= 8.96D-06

 Cycle  11  Pass 1  IDiag  1:
 E= -115.063728435688     Delta-E=       -0.000000000400 Rises=F Damp=F
 DIIS: error= 3.86D-07 at cycle  11 NSaved=  11.
 NSaved=11 IEnMin=11 EnMin= -115.063728435688     IErMin=11 ErrMin= 3.86D-07
 ErrMax= 3.86D-07 EMaxC= 1.00D-01 BMatC= 5.14D-12 BMatP= 1.77D-10
 IDIUse=1 WtCom= 1.00D+00 WtEn= 0.00D+00
 Coeff-Com:  0.324D-05-0.445D-05 0.269D-06 0.738D-06 0.972D-04-0.554D-03
 Coeff-Com: -0.427D-03 0.678D-02-0.170D-01-0.114D+00 0.112D+01
 Coeff:      0.324D-05-0.445D-05 0.269D-06 0.738D-06 0.972D-04-0.554D-03
 Coeff:     -0.427D-03 0.678D-02-0.170D-01-0.114D+00 0.112D+01
 Gap=     0.600 Goal=   None    Shift=    0.000
 RMSDP=8.55D-08 MaxDP=6.84D-07 DE=-4.00D-10 OVMax= 1.48D-06

 Cycle  12  Pass 1  IDiag  1:
 E= -115.063728435699     Delta-E=       -0.000000000012 Rises=F Damp=F
 DIIS: error= 6.29D-08 at cycle  12 NSaved=  12.
 NSaved=12 IEnMin=12 EnMin= -115.063728435699     IErMin=12 ErrMin= 6.29D-08
 ErrMax= 6.29D-08 EMaxC= 1.00D-01 BMatC= 1.86D-13 BMatP= 5.14D-12
 IDIUse=1 WtCom= 1.00D+00 WtEn= 0.00D+00
 Coeff-Com:  0.434D-06-0.556D-06-0.758D-06 0.507D-06 0.520D-05 0.120D-03
 Coeff-Com: -0.168D-03-0.144D-02 0.115D-01-0.196D-01-0.220D+00 0.123D+01
 Coeff:      0.434D-06-0.556D-06-0.758D-06 0.507D-06 0.520D-05 0.120D-03
 Coeff:     -0.168D-03-0.144D-02 0.115D-01-0.196D-01-0.220D+00 0.123D+01
 Gap=     0.600 Goal=   None    Shift=    0.000
 RMSDP=1.82D-08 MaxDP=1.21D-07 DE=-1.16D-11 OVMax= 2.77D-07

 Cycle  13  Pass 1  IDiag  1:
 E= -115.063728435699     Delta-E=        0.000000000000 Rises=F Damp=F
 DIIS: error= 6.46D-09 at cycle  13 NSaved=  13.
 NSaved=13 IEnMin=13 EnMin= -115.063728435699     IErMin=13 ErrMin= 6.46D-09
 ErrMax= 6.46D-09 EMaxC= 1.00D-01 BMatC= 4.11D-15 BMatP= 1.86D-13
 IDIUse=1 WtCom= 1.00D+00 WtEn= 0.00D+00
 Coeff-Com:  0.158D-06-0.199D-06 0.179D-06-0.140D-06-0.227D-05-0.131D-04
 Coeff-Com:  0.465D-04 0.120D-03-0.190D-02 0.670D-02 0.969D-02-0.196D+00
 Coeff-Com:  0.118D+01
 Coeff:      0.158D-06-0.199D-06 0.179D-06-0.140D-06-0.227D-05-0.131D-04
 Coeff:      0.465D-04 0.120D-03-0.190D-02 0.670D-02 0.969D-02-0.196D+00
 Coeff:      0.118D+01
 Gap=     0.600 Goal=   None    Shift=    0.000
 RMSDP=2.39D-09 MaxDP=1.76D-08 DE=-1.99D-13 OVMax= 4.45D-08

 SCF Done:  E(RHF) =  -115.063728436     A.U. after   13 cycles
             Convg  =    0.2393D-08             -V/T =  1.9991
 KE= 1.151619056812D+02 PE=-3.530770046389D+02 EE= 8.199863156652D+01
 Leave Link  502 at Sun Dec 29 12:26:43 2019, MaxMem=   91750400 cpu:       0.2
 (Enter /opt/g09gh/gaussian/g09/l701.exe)
 Compute integral first derivatives.
 ... and contract with generalized density number  0.
 Leave Link  701 at Sun Dec 29 12:26:43 2019, MaxMem=   91750400 cpu:       0.1
 (Enter /opt/g09gh/gaussian/g09/l702.exe)
 L702 exits ... SP integral derivatives will be done elsewhere.
 Leave Link  702 at Sun Dec 29 12:26:43 2019, MaxMem=   91750400 cpu:       0.0
 (Enter /opt/g09gh/gaussian/g09/l703.exe)
 Compute integral first derivatives, UseDBF=F ICtDFT=           0.
 Integral derivatives from FoFDir, PRISM(SPDF).
 Calling FoFJK, ICntrl=      2127 FMM=F ISym2X=0 I1Cent= 0 IOpClX= 0 NMat=1 NMatS=1 NMatT=0.
 FoFCou: FMM=F IPFlag=           0 FMFlag=      100000 FMFlg1=         800
         NFxFlg=           0 DoJE=F BraDBF=F KetDBF=F FulRan=T
         Omega=  0.000000  0.000000  1.000000  0.000000  0.000000 ICntrl=    2127 IOpCl=  0
         NMat0=    1 NMatS0=    1 NMatT0=    0 NMatD0=    1 NMtDS0=    0 NMtDT0=    0
         I1Cent=           0 NGrid=           0.
 Symmetry not used in FoFCou.
 Leave Link  703 at Sun Dec 29 12:26:44 2019, MaxMem=   91750400 cpu:       0.3
 (Enter /opt/g09gh/gaussian/g09/l716.exe)
 Dipole        =-3.48107866D-01-6.71550561D-01 8.39433968D-06
 ***** Axes restored to original set *****
 -------------------------------------------------------------------
 Center     Atomic                   Forces (Hartrees/Bohr)
 Number     Number              X              Y              Z
 -------------------------------------------------------------------
      1        8           0.000006854    0.000031525    0.000013484
      2        6           0.000006812   -0.000026995   -0.000016909
      3        1           0.000000250    0.000002819    0.000006921
      4        1           0.000005098    0.000007351    0.000003981
      5        1          -0.000004271   -0.000001952   -0.000002749
      6        1          -0.000014744   -0.000012748   -0.000004728
 -------------------------------------------------------------------
 Cartesian Forces:  Max     0.000031525 RMS     0.000012621
 Leave Link  716 at Sun Dec 29 12:26:44 2019, MaxMem=   91750400 cpu:       0.0
 (Enter /opt/g09gh/gaussian/g09/l103.exe)

 GradGradGradGradGradGradGradGradGradGradGradGradGradGradGradGradGradGrad
 Berny optimization.
 Using GEDIIS/GDIIS optimizer.
 Internal  Forces:  Max     0.000033120 RMS     0.000010362
 Search for a local minimum.
 Step number   9 out of a maximum of  100
 All quantities printed in internal units (Hartrees-Bohrs-Radians)
 RMS Force = .10362D-04 SwitMx=.10000D-02 MixMth= 2
 Mixed Optimization -- En-DIIS/RFO-DIIS
 Swaping is turned off.
 Update second derivatives using D2CorX and points    5    6    7    8    9
 DE= -3.47D-06 DEPred=-3.46D-06 R= 1.00D+00
 SS=  1.41D+00  RLast= 2.44D-02 DXNew= 2.4000D+00 7.3259D-02
 Trust test= 1.00D+00 RLast= 2.44D-02 DXMaxT set to 1.43D+00
 The second derivative matrix:
                          R1        R2        R3        R4        R5
           R1           0.42431
           R2           0.00197   0.55242
           R3           0.01418   0.00947   0.34353
           R4           0.00783   0.01256   0.00070   0.34936
           R5           0.01563   0.01014   0.00094   0.00162   0.34516
           A1           0.03721   0.00289  -0.00543   0.00305  -0.00310
           A2           0.01483  -0.00821  -0.00404  -0.00800  -0.00429
           A3           0.02684   0.01059  -0.00387   0.00862  -0.00058
           A4           0.04393  -0.00108  -0.00100  -0.00727   0.00108
           A5          -0.02975  -0.01147   0.00163  -0.00254   0.00071
           A6          -0.02578   0.00627   0.00329   0.00644   0.00089
           A7          -0.03291  -0.00087   0.00304   0.00160   0.00142
           D1           0.00500   0.02062   0.00284   0.01106   0.00184
           D2           0.00571  -0.00831  -0.00212  -0.00293  -0.00049
           D3          -0.00968  -0.01141  -0.00021  -0.00747  -0.00016
                          A1        A2        A3        A4        A5
           A1           0.18151
           A2          -0.00629   0.16515
           A3           0.02021  -0.01392   0.18695
           A4           0.00181   0.00814  -0.00823   0.18367
           A5          -0.00640   0.00535  -0.00861   0.00159   0.15708
           A6           0.00060  -0.00540   0.00884  -0.01560   0.00195
           A7          -0.00880   0.00137  -0.00507  -0.00844   0.00167
           D1           0.00756  -0.01251   0.01978  -0.01626   0.00267
           D2           0.00171   0.00039  -0.00083   0.00765  -0.00186
           D3          -0.01263   0.01007  -0.02008   0.01120   0.00136
                          A6        A7        D1        D2        D3
           A6           0.16471
           A7           0.00526   0.16475
           D1           0.00381   0.00257   0.01488
           D2          -0.00324  -0.00186  -0.00522   0.01002
           D3          -0.00242  -0.00029  -0.00923  -0.00164   0.01660
     Eigenvalues ---    0.00305   0.10539   0.10745   0.15101   0.16224
     Eigenvalues ---    0.17510   0.22106   0.34281   0.34346   0.35044
     Eigenvalues ---    0.45421   0.555661000.000001000.000001000.00000
 En-DIIS/RFO-DIIS IScMMF=        0 using points:     9    8    7
 RFO step:  Lambda= 0.00000000D+00.
 DIIS coeffs:      0.86479      0.07730      0.05792
 Iteration  1 RMS(Cart)=  0.00027732 RMS(Int)=  0.00000018
 Iteration  2 RMS(Cart)=  0.00000013 RMS(Int)=  0.00000011
 Variable       Old X    -DE/DX   Delta X   Delta X   Delta X     New X
                                  (DIIS)     (GDIIS)  (Total)
    R1        2.64175  -0.00001   0.00009  -0.00008   0.00001   2.64176
    R2        1.77422   0.00001   0.00002  -0.00001   0.00001   1.77424
    R3        2.05471  -0.00001  -0.00001   0.00000  -0.00002   2.05469
    R4        2.04143   0.00001  -0.00002   0.00004   0.00002   2.04145
    R5        2.05469   0.00000   0.00001   0.00000   0.00001   2.05469
    A1        1.92039  -0.00003  -0.00015  -0.00002  -0.00017   1.92022
    A2        1.95412   0.00000  -0.00001  -0.00001  -0.00002   1.95410
    A3        1.87178  -0.00001  -0.00008   0.00003  -0.00005   1.87173
    A4        1.95406   0.00001   0.00001   0.00005   0.00006   1.95413
    A5        1.89219   0.00000   0.00005  -0.00006  -0.00001   1.89218
    A6        1.89754   0.00000   0.00000   0.00000   0.00000   1.89754
    A7        1.89216   0.00000   0.00003  -0.00001   0.00002   1.89218
    D1       -1.06721  -0.00001  -0.00043  -0.00057  -0.00100  -1.06821
    D2       -3.14074   0.00000  -0.00043  -0.00050  -0.00094   3.14151
    D3        1.06898   0.00000  -0.00043  -0.00054  -0.00097   1.06802
         Item               Value     Threshold  Converged?
 Maximum Force            0.000033     0.000450     YES
 RMS     Force            0.000010     0.000300     YES
 Maximum Displacement     0.000530     0.001800     YES
 RMS     Displacement     0.000277     0.001200     YES
 Predicted change in Energy=-9.064232D-09
 Optimization completed.
    -- Stationary point found.
                           ----------------------------
                           !   Optimized Parameters   !
                           ! (Angstroms and Degrees)  !
 --------------------------                            --------------------------
 ! Name  Definition              Value          Derivative Info.                !
 --------------------------------------------------------------------------------
 ! R1    R(1,2)                  1.398          -DE/DX =    0.0                 !
 ! R2    R(1,6)                  0.9389         -DE/DX =    0.0                 !
 ! R3    R(2,3)                  1.0873         -DE/DX =    0.0                 !
 ! R4    R(2,4)                  1.0803         -DE/DX =    0.0                 !
 ! R5    R(2,5)                  1.0873         -DE/DX =    0.0                 !
 ! A1    A(2,1,6)              110.0305         -DE/DX =    0.0                 !
 ! A2    A(1,2,3)              111.9627         -DE/DX =    0.0                 !
 ! A3    A(1,2,4)              107.2451         -DE/DX =    0.0                 !
 ! A4    A(1,2,5)              111.9597         -DE/DX =    0.0                 !
 ! A5    A(3,2,4)              108.4146         -DE/DX =    0.0                 !
 ! A6    A(3,2,5)              108.7211         -DE/DX =    0.0                 !
 ! A7    A(4,2,5)              108.4128         -DE/DX =    0.0                 !
 ! D1    D(6,1,2,3)            -61.1466         -DE/DX =    0.0                 !
 ! D2    D(6,1,2,4)            180.0488         -DE/DX =    0.0                 !
 ! D3    D(6,1,2,5)             61.2483         -DE/DX =    0.0                 !
 --------------------------------------------------------------------------------
 GradGradGradGradGradGradGradGradGradGradGradGradGradGradGradGradGradGrad

 Largest change from initial coordinates is atom    5       1.497 Angstoms.
 Leave Link  103 at Sun Dec 29 12:26:44 2019, MaxMem=   91750400 cpu:       0.0
 (Enter /opt/g09gh/gaussian/g09/l202.exe)
                          Input orientation:                          
 ---------------------------------------------------------------------
 Center     Atomic      Atomic             Coordinates (Angstroms)
 Number     Number       Type             X           Y           Z
 ---------------------------------------------------------------------
      1          8           0        0.721566    0.018627    0.222948
      2          6           0       -0.663797   -0.049912    0.048751
      3          1           0       -0.951808    0.110604   -0.987354
      4          1           0       -1.101329    0.733791    0.649900
      5          1           0       -1.068553   -1.003215    0.379799
      6          1           0        1.143034   -0.648599   -0.285645
 ---------------------------------------------------------------------
                    Distance matrix (angstroms):
                    1          2          3          4          5
     1  O    0.000000
     2  C    1.397954   0.000000
     3  H    2.067238   1.087304   0.000000
     4  H    2.004169   1.080280   1.758215   0.000000
     5  H    2.067193   1.087293   1.767294   1.758186   0.000000
     6  H    0.938879   1.932586   2.336054   2.797037   2.336597
                    6
     6  H    0.000000
 Stoichiometry    CH4O
 Framework group  C1[X(CH4O)]
 Deg. of freedom    12
 Full point group                 C1      NOp   1
 Largest Abelian subgroup         C1      NOp   1
 Largest concise Abelian subgroup C1      NOp   1
                         Standard orientation:                         
 ---------------------------------------------------------------------
 Center     Atomic      Atomic             Coordinates (Angstroms)
 Number     Number       Type             X           Y           Z
 ---------------------------------------------------------------------
      1          8           0        0.735843    0.119505   -0.000007
      2          6           0       -0.655168   -0.019640    0.000000
      3          1           0       -1.011366   -0.544388   -0.883171
      4          1           0       -1.076529    0.975076   -0.000955
      5          1           0       -1.011468   -0.542694    0.884122
      6          1           0        1.143629   -0.726193    0.000058
 ---------------------------------------------------------------------
 Rotational constants (GHZ):    131.6853476     25.4608735     24.6055248
 Leave Link  202 at Sun Dec 29 12:26:44 2019, MaxMem=   91750400 cpu:       0.0
 (Enter /opt/g09gh/gaussian/g09/l601.exe)
 Copying SCF densities to generalized density rwf, IOpCl= 0 IROHF=0.

 **********************************************************************

            Population analysis using the SCF density.

 **********************************************************************

 Orbital symmetries:
       Occupied  (A) (A) (A) (A) (A) (A) (A) (A) (A)
       Virtual   (A) (A) (A) (A) (A) (A) (A) (A) (A) (A) (A) (A)
                 (A) (A) (A) (A) (A) (A) (A) (A) (A) (A) (A) (A)
                 (A) (A) (A) (A) (A) (A) (A) (A) (A) (A) (A) (A)
                 (A) (A) (A)
 The electronic state is 1-A.
 Alpha  occ. eigenvalues --  -20.54165 -11.26480  -1.36446  -0.92836  -0.69701
 Alpha  occ. eigenvalues --   -0.62229  -0.59735  -0.49808  -0.44492
 Alpha virt. eigenvalues --    0.15462   0.18911   0.22732   0.23399   0.34624
 Alpha virt. eigenvalues --    0.46135   0.48402   0.59620   0.70037   0.73724
 Alpha virt. eigenvalues --    0.79099   0.80581   0.94602   1.06463   1.07995
 Alpha virt. eigenvalues --    1.17526   1.54684   1.60221   1.69556   1.76419
 Alpha virt. eigenvalues --    1.77084   2.00243   2.36810   2.61908   2.70594
 Alpha virt. eigenvalues --    2.72487   3.16486   3.25780   3.37852   3.42114
 Alpha virt. eigenvalues --    3.51617   3.57724   3.83008   4.27331   5.38592
 Alpha virt. eigenvalues --    5.54226   5.93239  24.56800  51.52763
          Condensed to atoms (all electrons):
              1          2          3          4          5          6
     1  O    8.263059   0.217580  -0.034334  -0.028357  -0.034351   0.269349
     2  C    0.217580   4.979079   0.394327   0.391878   0.394327  -0.049591
     3  H   -0.034334   0.394327   0.538269  -0.032923  -0.040948  -0.004277
     4  H   -0.028357   0.391878  -0.032923   0.485588  -0.032939   0.007289
     5  H   -0.034351   0.394327  -0.040948  -0.032939   0.538265  -0.004260
     6  H    0.269349  -0.049591  -0.004277   0.007289  -0.004260   0.370199
 Mulliken atomic charges:
              1
     1  O   -0.652947
     2  C   -0.327600
     3  H    0.179886
     4  H    0.209465
     5  H    0.179906
     6  H    0.411290
 Sum of Mulliken atomic charges =   0.00000
 Mulliken charges with hydrogens summed into heavy atoms:
              1
     1  O   -0.241657
     2  C    0.241657
 Sum of Mulliken charges with hydrogens summed into heavy atoms =   0.00000
 Electronic spatial extent (au):  <R**2>=             82.6781
 Charge=              0.0000 electrons
 Dipole moment (field-independent basis, Debye):
    X=             -0.8848    Y=             -1.7069    Z=              0.0000  Tot=              1.9226
 Quadrupole moment (field-independent basis, Debye-Ang):
   XX=            -12.6384   YY=            -12.0948   ZZ=            -13.6208
   XY=             -2.4353   XZ=              0.0003   YZ=             -0.0002
 Traceless Quadrupole moment (field-independent basis, Debye-Ang):
   XX=              0.1462   YY=              0.6899   ZZ=             -0.8361
   XY=             -2.4353   XZ=              0.0003   YZ=             -0.0002
 Octapole moment (field-independent basis, Debye-Ang**2):
  XXX=              4.4511  YYY=             -0.6268  ZZZ=              0.0012  XYY=              1.7663
  XXY=             -2.5058  XXZ=              0.0000  XZZ=              0.5124  YZZ=             -0.6732
  YYZ=             -0.0014  XYZ=              0.0000
 Hexadecapole moment (field-independent basis, Debye-Ang**3):
 XXXX=            -58.3996 YYYY=            -19.0664 ZZZZ=            -18.9904 XXXY=             -4.0987
 XXXZ=              0.0006 YYYX=             -2.9850 YYYZ=             -0.0002 ZZZX=             -0.0013
 ZZZY=             -0.0002 XXYY=            -11.8870 XXZZ=            -13.5207 YYZZ=             -6.4466
 XXYZ=             -0.0005 YYXZ=              0.0019 ZZXY=              0.0523
 N-N= 4.085273895549D+01 E-N=-3.530770046222D+02  KE= 1.151619056812D+02
 No NMR shielding tensors so no spin-rotation constants.
 Leave Link  601 at Sun Dec 29 12:26:44 2019, MaxMem=   91750400 cpu:       0.1
 (Enter /opt/g09gh/gaussian/g09/l9999.exe)
 1\1\GINC-NODE36\FOpt\RHF\6-311G(d)\C1H4O1\BDW2292\29-Dec-2019\0\\#P op
 t=(,maxcycle=400) HF/6-311G* MaxDisk=100GB\\methanol Rotatable Bond Op
 timization on node36.bme.utexas.edu\\0,1\O,0.7215659796,0.0186271494,0
 .2229482894\C,-0.6637974931,-0.0499118207,0.0487511276\H,-0.9518079177
 ,0.1106041603,-0.9873539067\H,-1.1013293242,0.7337912281,0.6499004923\
 H,-1.0685525904,-1.0032146165,0.3797989577\H,1.1430343458,-0.648599100
 6,-0.2856449602\\Version=EM64L-G09RevA.02\State=1-A\HF=-115.0637284\RM
 SD=2.393e-09\RMSF=1.262e-05\Dipole=-0.3356749,-0.5107991,-0.4456073\Qu
 adrupole=0.1681585,0.1404186,-0.3085771,-1.4373306,-1.105533,0.4992233
 \PG=C01 [X(C1H4O1)]\\@


 ERROR IS THE FORCE THAT WELDS MEN TOGETHER....
 TRUTH IS COMMUNICATED TO MEN ONLY BY DEEDS OF TRUTH.
           TOLSTOI,MY RELIGION
 Job cpu time:  0 days  0 hours  0 minutes 11.7 seconds.
 File lengths (MBytes):  RWF=      5 Int=      0 D2E=      0 Chk=      1 Scr=      1
 Normal termination of Gaussian 09 at Sun Dec 29 12:26:44 2019.
