 Entering Gaussian System, Link 0=g09
 Input=methanol-sp-6-1-2-3-313.com
 Output=methanol-sp-6-1-2-3-313.log
 Initial command:
 /opt/g09gh/gaussian/g09/l1.exe /scratch/bdw2292/Gau-methanol/Gau-41302.inp -scrdir=/scratch/bdw2292/Gau-methanol/
 Entering Link 1 = /opt/g09gh/gaussian/g09/l1.exe PID=     41303.
  
 Copyright (c) 1988,1990,1992,1993,1995,1998,2003,2009, Gaussian, Inc.
                  All Rights Reserved.
  
 This is part of the Gaussian(R) 09 program.  It is based on
 the Gaussian(R) 03 system (copyright 2003, Gaussian, Inc.),
 the Gaussian(R) 98 system (copyright 1998, Gaussian, Inc.),
 the Gaussian(R) 94 system (copyright 1995, Gaussian, Inc.),
 the Gaussian 92(TM) system (copyright 1992, Gaussian, Inc.),
 the Gaussian 90(TM) system (copyright 1990, Gaussian, Inc.),
 the Gaussian 88(TM) system (copyright 1988, Gaussian, Inc.),
 the Gaussian 86(TM) system (copyright 1986, Carnegie Mellon
 University), and the Gaussian 82(TM) system (copyright 1983,
 Carnegie Mellon University). Gaussian is a federally registered
 trademark of Gaussian, Inc.
  
 This software contains proprietary and confidential information,
 including trade secrets, belonging to Gaussian, Inc.
  
 This software is provided under written license and may be
 used, copied, transmitted, or stored only in accord with that
 written license.
  
 The following legend is applicable only to US Government
 contracts under FAR:
  
                    RESTRICTED RIGHTS LEGEND
  
 Use, reproduction and disclosure by the US Government is
 subject to restrictions as set forth in subparagraphs (a)
 and (c) of the Commercial Computer Software - Restricted
 Rights clause in FAR 52.227-19.
  
 Gaussian, Inc.
 340 Quinnipiac St., Bldg. 40, Wallingford CT 06492
  
  
 ---------------------------------------------------------------
 Warning -- This program may not be used in any manner that
 competes with the business of Gaussian, Inc. or will provide
 assistance to any competitor of Gaussian, Inc.  The licensee
 of this program is prohibited from giving any competitor of
 Gaussian, Inc. access to this program.  By using this program,
 the user acknowledges that Gaussian, Inc. is engaged in the
 business of creating and licensing software in the field of
 computational chemistry and represents and warrants to the
 licensee that it is not a competitor of Gaussian, Inc. and that
 it will not use this program in any manner prohibited above.
 ---------------------------------------------------------------
  

 Cite this work as:
 Gaussian 09, Revision A.02,
 M. J. Frisch, G. W. Trucks, H. B. Schlegel, G. E. Scuseria, 
 M. A. Robb, J. R. Cheeseman, G. Scalmani, V. Barone, B. Mennucci, 
 G. A. Petersson, H. Nakatsuji, M. Caricato, X. Li, H. P. Hratchian, 
 A. F. Izmaylov, J. Bloino, G. Zheng, J. L. Sonnenberg, M. Hada, 
 M. Ehara, K. Toyota, R. Fukuda, J. Hasegawa, M. Ishida, T. Nakajima, 
 Y. Honda, O. Kitao, H. Nakai, T. Vreven, J. A. Montgomery, Jr., 
 J. E. Peralta, F. Ogliaro, M. Bearpark, J. J. Heyd, E. Brothers, 
 K. N. Kudin, V. N. Staroverov, R. Kobayashi, J. Normand, 
 K. Raghavachari, A. Rendell, J. C. Burant, S. S. Iyengar, J. Tomasi, 
 M. Cossi, N. Rega, J. M. Millam, M. Klene, J. E. Knox, J. B. Cross, 
 V. Bakken, C. Adamo, J. Jaramillo, R. Gomperts, R. E. Stratmann, 
 O. Yazyev, A. J. Austin, R. Cammi, C. Pomelli, J. W. Ochterski, 
 R. L. Martin, K. Morokuma, V. G. Zakrzewski, G. A. Voth, 
 P. Salvador, J. J. Dannenberg, S. Dapprich, A. D. Daniels, 
 O. Farkas, J. B. Foresman, J. V. Ortiz, J. Cioslowski, 
 and D. J. Fox, Gaussian, Inc., Wallingford CT, 2009.
 
 ******************************************
 Gaussian 09:  EM64L-G09RevA.02 11-Jun-2009
                29-Dec-2019 
 ******************************************
 %RWF=/scratch/bdw2292/Gau-methanol/,100GB
 %Nosave
 %Chk=methanol-sp-6-1-2-3-313.chk
 %Mem=700MB
 %Nproc=1
 Will use up to    1 processors via shared memory.
 ----------------------------------------------------------------------
 #P MP2/6-311++G(2d,2p) SP SCF=(qc,maxcycle=800) Guess=Indo MaxDisk=100
 GB SCRF=(PCM)
 ----------------------------------------------------------------------
 1/38=1/1;
 2/12=2,17=6,18=5,40=1/2;
 3/5=4,6=6,7=1212,11=9,16=1,25=1,30=1,70=2201,72=1/1,2,3;
 4/5=4,11=3/1;
 5/5=2,7=800,8=3,38=5/8;
 8/10=2/1;
 9/16=-3/6;
 6/7=2,8=2,9=2,10=2/1;
 99/5=1,9=1/99;
 Leave Link    1 at Sun Dec 29 12:29:28 2019, MaxMem=   91750400 cpu:       0.0
 (Enter /opt/g09gh/gaussian/g09/l101.exe)
 ---------------------------------------------------------------
 methanol Rotatable Bond SP Calculation on node36.bme.utexas.edu
 ---------------------------------------------------------------
 Symbolic Z-matrix:
 Charge =  0 Multiplicity = 1
 O                     0.74976   0.12872   0.07236 
 C                    -0.67765   0.00046   0.00769 
 H                    -0.93699  -0.5796   -0.88311 
 H                    -1.11384   1.00333  -0.01721 
 H                    -1.00754  -0.5295    0.90689 
 H                     1.11117  -0.76177  -0.0867 
 
 NAtoms=      6 NQM=      6 NQMF=      0 NMic=      0 NMicF=      0 NTot=      6.
                    Isotopes and Nuclear Properties:
 (Nuclear quadrupole moments (NQMom) in fm**2, nuclear magnetic moments (NMagM)
  in nuclear magnetons)

  Atom         1           2           3           4           5           6
 IAtWgt=          16          12           1           1           1           1
 AtmWgt=  15.9949146  12.0000000   1.0078250   1.0078250   1.0078250   1.0078250
 NucSpn=           0           0           1           1           1           1
 AtZEff=   0.0000000   0.0000000   0.0000000   0.0000000   0.0000000   0.0000000
 NQMom=    0.0000000   0.0000000   0.0000000   0.0000000   0.0000000   0.0000000
 NMagM=    0.0000000   0.0000000   2.7928460   2.7928460   2.7928460   2.7928460
 Leave Link  101 at Sun Dec 29 12:29:28 2019, MaxMem=   91750400 cpu:       0.1
 (Enter /opt/g09gh/gaussian/g09/l202.exe)
                          Input orientation:                          
 ---------------------------------------------------------------------
 Center     Atomic      Atomic             Coordinates (Angstroms)
 Number     Number       Type             X           Y           Z
 ---------------------------------------------------------------------
      1          8           0        0.749763    0.128715    0.072359
      2          6           0       -0.677654    0.000456    0.007690
      3          1           0       -0.936990   -0.579600   -0.883107
      4          1           0       -1.113844    1.003331   -0.017212
      5          1           0       -1.007545   -0.529499    0.906891
      6          1           0        1.111166   -0.761771   -0.086696
 ---------------------------------------------------------------------
                    Distance matrix (angstroms):
                    1          2          3          4          5
     1  O    0.000000
     2  C    1.434626   0.000000
     3  H    2.063919   1.094184   0.000000
     4  H    2.060584   1.093910   1.812932   0.000000
     5  H    2.053733   1.094643   1.792088   1.792996   0.000000
     6  H    0.974103   1.946735   2.205085   2.840965   2.351617
                    6
     6  H    0.000000
 Stoichiometry    CH4O
 Framework group  C1[X(CH4O)]
 Deg. of freedom    12
 Full point group                 C1      NOp   1
 Largest Abelian subgroup         C1      NOp   1
 Largest concise Abelian subgroup C1      NOp   1
                         Standard orientation:                         
 ---------------------------------------------------------------------
 Center     Atomic      Atomic             Coordinates (Angstroms)
 Number     Number       Type             X           Y           Z
 ---------------------------------------------------------------------
      1          8           0       -0.749871   -0.130952   -0.002502
      2          6           0        0.677008    0.017935   -0.002872
      3          1           0        0.950372    0.769179   -0.749962
      4          1           0        1.125881   -0.955695   -0.220123
      5          1           0        0.978904    0.355855    0.993577
      6          1           0       -1.118233    0.770669    0.013758
 ---------------------------------------------------------------------
 Rotational constants (GHZ):    124.2872872     24.7217090     23.7411488
 Leave Link  202 at Sun Dec 29 12:29:28 2019, MaxMem=   91750400 cpu:       0.0
 (Enter /opt/g09gh/gaussian/g09/l301.exe)
 Standard basis: 6-311++G(2d,2p) (5D, 7F)
 Ernie: Thresh=  0.10000D-02 Tol=  0.10000D-05 Strict=F.
 There are    94 symmetry adapted basis functions of A   symmetry.
 Integral buffers will be    131072 words long.
 Raffenetti 1 integral format.
 Two-electron integral symmetry is turned on.
    94 basis functions,   132 primitive gaussians,    98 cartesian basis functions
     9 alpha electrons        9 beta electrons
       nuclear repulsion energy        40.0875929887 Hartrees.
 IExCor=    0 DFT=F Ex=HF Corr=None ExCW=0 ScaHFX=  1.000000
 ScaDFX=  1.000000  1.000000  1.000000  1.000000 ScalE2=  1.000000  1.000000
 IRadAn=      0 IRanWt=     -1 IRanGd=            0 ICorTp=0
 NAtoms=    6 NActive=    6 NUniq=    6 SFac= 7.50D-01 NAtFMM=   80 NAOKFM=F Big=F
 ------------------------------------------------------------------------------
 Polarizable Continuum Model (PCM)
 =================================
 Model                : PCM.
 Atomic radii         : UFF (Universal Force Field).
 Polarization charges : Total charges.
 Charge compensation  : None.
 Solution method      : Matrix inversion.
 Cavity type          : Scaled VdW (van der Waals Surface) (Alpha=1.100).
 Cavity algorithm     : GePol (No added spheres)
                        Default sphere list used, NSphG=    6.
                        Lebedev-Laikov grids with approx.  5.0 points / Ang**2.
                        Smoothing algorithm: Karplus/York (Gamma=1.0000).
                        Polarization charges: spherical gaussians, with
                                              point-specific exponents (IZeta= 3).
                        Self-potential: point-specific (ISelfS= 7).
                        Self-field    : sphere-specific E.n sum rule (ISelfD= 2).
 Solvent              : Water, Eps=  78.355300 Eps(inf)=   1.777849
 ------------------------------------------------------------------------------
 Spheres list:
 ISph  on   Nord    Re0     Alpha      Xe            Ye            Ze
    1   O      1    1.750   1.100     -0.749871     -0.130952     -0.002502
    2   C      2    1.926   1.100      0.677008      0.017935     -0.002872
    3   H      3    1.443   1.100      0.950372      0.769179     -0.749962
    4   H      4    1.443   1.100      1.125881     -0.955695     -0.220123
    5   H      5    1.443   1.100      0.978904      0.355855      0.993577
    6   H      6    1.443   1.100     -1.118233      0.770669      0.013758
 ------------------------------------------------------------------------------
 GePol: Number of generator spheres                  =       6
 GePol: Total number of spheres                      =       6
 GePol: Number of exposed spheres                    =       6 (100.00%)
 GePol: Number of points                             =     618
 GePol: Average weight of points                     =       0.14
 GePol: Minimum weight of points                     =   0.30D-09
 GePol: Maximum weight of points                     =    0.20577
 GePol: Number of points with low weight             =      26
 GePol: Fraction of low-weight points (<1% of avg)   =       4.21%
 GePol: Cavity surface area                          =     83.722 Ang**2
 GePol: Cavity volume                                =     65.110 Ang**3
 Leave Link  301 at Sun Dec 29 12:29:28 2019, MaxMem=   91750400 cpu:       0.1
 (Enter /opt/g09gh/gaussian/g09/l302.exe)
 NPDir=0 NMtPBC=     1 NCelOv=     1 NCel=       1 NClECP=     1 NCelD=      1
         NCelK=      1 NCelE2=     1 NClLst=     1 CellRange=     0.0.
 One-electron integrals computed using PRISM.
 NBasis=    94 RedAO= T  NBF=    94
 NBsUse=    94 1.00D-06 NBFU=    94
 Leave Link  302 at Sun Dec 29 12:29:29 2019, MaxMem=   91750400 cpu:       0.1
 (Enter /opt/g09gh/gaussian/g09/l303.exe)
 DipDrv:  MaxL=1.
 Leave Link  303 at Sun Dec 29 12:29:29 2019, MaxMem=   91750400 cpu:       0.0
 (Enter /opt/g09gh/gaussian/g09/l401.exe)
 Projected INDO guess.
 Initial guess orbital symmetries:
       Occupied  (A) (A) (A) (A) (A) (A) (A) (A) (A)
       Virtual   (A) (A) (A) (A) (A) (A) (A) (A) (A) (A) (A) (A)
                 (A) (A) (A) (A) (A) (A) (A) (A) (A) (A) (A) (A)
                 (A) (A) (A) (A) (A) (A) (A) (A) (A) (A) (A) (A)
                 (A) (A) (A) (A) (A) (A) (A) (A) (A) (A) (A) (A)
                 (A) (A) (A) (A) (A) (A) (A) (A) (A) (A) (A) (A)
                 (A) (A) (A) (A) (A) (A) (A) (A) (A) (A) (A) (A)
                 (A) (A) (A) (A) (A) (A) (A) (A) (A) (A) (A) (A)
                 (A)
 The electronic state of the initial guess is 1-A.
 Leave Link  401 at Sun Dec 29 12:29:29 2019, MaxMem=   91750400 cpu:       0.1
 (Enter /opt/g09gh/gaussian/g09/l508.exe)
 Direct SCF.
 Tight linear equation convergence will be used.
 RHF wavefunction.
 Quadratic Convergence SCF Method.
 Line search only if initial step raises energy.
 Integral symmetry usage will be decided dynamically.
 ReadGW:  IGet=1 IStart=           2 Next=           2 LGW=           0.
 Keep R1 ints in memory in canonical form, NReq=15241208.
 Symmetry not used in FoFDir.
 MinBra= 0 MaxBra= 2 Meth= 1.
 IRaf=       0 NMat=   1 IRICut=       1 DoRegI=T DoRafI=F ISym2E= 0 JSym2E=0.
 Iteration   1 EE= -114.500283873817                                    Grad=2.170D+00
 Gradient too large for Newton-Raphson -- use scaled steepest descent instead.
     ILin= 1 X=0.000D+00 Y=-1.145002838738D+02 DE= 0.00D+00
     ILin= 2 X=3.000D-01 Y=-1.147771851826D+02 DE=-2.77D-01
     ILin= 3 X=4.243D-01 Y=-1.148654579849D+02 DE=-3.65D-01
     ILin= 4 X=6.000D-01 Y=-1.149634823348D+02 DE=-4.63D-01
     ILin= 5 X=8.485D-01 Y=-1.150478809700D+02 DE=-5.48D-01
     ILin= 6 X=1.200D+00 Y=-1.150574296183D+02 DE=-5.57D-01
     ILin= 7 X=1.697D+00 Y=-1.148490886377D+02 DE=-3.49D-01
     An  expanding polynomial of degree  7 produced  1.0504
 Iteration   2 EE= -115.069181189630     Delta-E=       -0.568897315813 Grad=1.802D-01
 Gradient too large for Newton-Raphson -- use scaled steepest descent instead.
     ILin= 1 X=0.000D+00 Y=-1.150691811896D+02 DE= 0.00D+00
     ILin= 2 X=1.050D+00 Y=-1.150830498832D+02 DE=-1.39D-02
     ILin= 3 X=1.485D+00 Y=-1.150747612713D+02 DE=-5.58D-03
     An  expanding polynomial of degree  3 produced  0.8292
 Iteration   3 EE= -115.084137367598     Delta-E=       -0.014956177967 Grad=6.904D-02
 Gradient too large for Newton-Raphson -- use scaled steepest descent instead.
     ILin= 1 X=0.000D+00 Y=-1.150841373676D+02 DE= 0.00D+00
     ILin= 2 X=8.292D-01 Y=-1.150870634863D+02 DE=-2.93D-03
     ILin= 3 X=1.173D+00 Y=-1.150870459687D+02 DE=-2.91D-03
     An  expanding polynomial of degree  3 produced  0.9926
 Iteration   4 EE= -115.087145700098     Delta-E=       -0.003008332500 Grad=3.693D-02
 Gradient too large for Newton-Raphson -- use scaled steepest descent instead.
     ILin= 1 X=0.000D+00 Y=-1.150871457001D+02 DE= 0.00D+00
     ILin= 2 X=9.926D-01 Y=-1.150878690329D+02 DE=-7.23D-04
     ILin= 3 X=1.404D+00 Y=-1.150875692917D+02 DE=-4.24D-04
     An  expanding polynomial of degree  3 produced  0.8472
 Iteration   5 EE= -115.087891142806     Delta-E=       -0.000745442708 Grad=1.738D-02
 Gradient too large for Newton-Raphson -- use scaled steepest descent instead.
     ILin= 1 X=0.000D+00 Y=-1.150878911428D+02 DE= 0.00D+00
     ILin= 2 X=8.472D-01 Y=-1.150880859760D+02 DE=-1.95D-04
     ILin= 3 X=1.198D+00 Y=-1.150880801374D+02 DE=-1.89D-04
     An  expanding polynomial of degree  3 produced  0.9822
 Iteration   6 EE= -115.088089744458     Delta-E=       -0.000198601652 Grad=9.887D-03
 QCNR:  CnvC1=3.91D-09 CnvC2=3.91D-08
 LinEq1:  Iter=  0 NonCon=     1 RMS=1.89D-04 Max=1.51D-03
 AX will form     1 AO Fock derivatives at one time.
 LinEq1:  Iter=  1 NonCon=     1 RMS=1.10D-04 Max=8.87D-04
 LinEq1:  Iter=  2 NonCon=     1 RMS=4.12D-06 Max=3.48D-05
 LinEq1:  Iter=  3 NonCon=     1 RMS=1.38D-06 Max=9.48D-06
 LinEq1:  Iter=  4 NonCon=     1 RMS=1.85D-07 Max=1.29D-06
 LinEq1:  Iter=  5 NonCon=     1 RMS=1.64D-08 Max=1.19D-07
 LinEq1:  Iter=  6 NonCon=     0 RMS=1.43D-09 Max=8.07D-09
 Linear equations converged to 3.912D-09 3.912D-08 after     6 iterations.
 Angle between quadratic step and gradient=  46.50 degrees.
     ILin= 1 X=0.000D+00 Y=-1.150880897445D+02 DE= 0.00D+00
     ILin= 2 X=1.000D+00 Y=-1.150881641279D+02 DE=-7.44D-05
     ILin= 3 X=1.414D+00 Y=-1.150881515778D+02 DE=-6.18D-05
     An  expanding polynomial of degree  3 produced  1.0024
 Iteration   7 EE= -115.088164128210     Delta-E=       -0.000074383752 Grad=2.205D-05
 QCNR:  CnvC1=2.20D-10 CnvC2=2.20D-09
 LinEq1:  Iter=  0 NonCon=     1 RMS=3.75D-07 Max=3.23D-06
 LinEq1:  Iter=  1 NonCon=     1 RMS=7.78D-08 Max=5.95D-07
 LinEq1:  Iter=  2 NonCon=     1 RMS=2.54D-08 Max=2.44D-07
 LinEq1:  Iter=  3 NonCon=     1 RMS=4.54D-09 Max=2.28D-08
 LinEq1:  Iter=  4 NonCon=     1 RMS=1.02D-09 Max=6.41D-09
 LinEq1:  Iter=  5 NonCon=     1 RMS=2.91D-10 Max=2.43D-09
 LinEq1:  Iter=  6 NonCon=     0 RMS=6.12D-11 Max=4.46D-10
 Linear equations converged to 2.205D-10 2.205D-09 after     6 iterations.
 Angle between quadratic step and gradient=  43.14 degrees.
     ILin= 1 X=0.000D+00 Y=-1.150881641282D+02 DE= 0.00D+00
     ILin= 2 X=1.000D+00 Y=-1.150881641285D+02 DE=-3.23D-10
 Iteration   8 EE= -115.088164128533     Delta-E=       -0.000000000323 Grad=9.525D-09
 Error on total polarization charges =  0.00633
 Rotation gradient small -- convergence achieved.
 SCF Done:  E(RHF) =  -115.088164129     a.u. after    8 cycles
            Convg  =    0.9525D-08                    36 Fock formations.
              S**2 =  0.0000                  -V/T =  2.0016
 Leave Link  508 at Sun Dec 29 12:29:40 2019, MaxMem=   91750400 cpu:      11.0
 (Enter /opt/g09gh/gaussian/g09/l801.exe)
 ExpMin= 3.60D-02 ExpMax= 8.59D+03 ExpMxC= 1.30D+03 IAcc=3 IRadAn=         5 AccDes= 0.00D+00
 HarFok:  IExCor=  205 AccDes= 0.00D+00 IRadAn=         5 IDoV=-2
 ScaDFX=  1.000000  1.000000  1.000000  1.000000
 Largest valence mixing into a core orbital is  1.37D-04
 Largest core mixing into a valence orbital is  3.63D-05
 Range of M.O.s used for correlation:     3    94
 NBasis=    94 NAE=     9 NBE=     9 NFC=     2 NFV=     0
 NROrb=     92 NOA=     7 NOB=     7 NVA=    85 NVB=    85

 **** Warning!!: The largest alpha MO coefficient is  0.15667020D+02

 Leave Link  801 at Sun Dec 29 12:29:40 2019, MaxMem=   91750400 cpu:       0.4
 (Enter /opt/g09gh/gaussian/g09/l906.exe)
 FulOut=F Deriv=F AODrv=F NAtomX=     6
   MMem=        1402  MDisk=           7 MDiskD=           7
  W3Min=       58310 MinDsk=      182258 NBas6D=          98
 NBas2D=        4983    NTT=        4851    LW2=     2000000
    MDV=    91690351 MDiskM=       12711 NBas2p=        4983
 Fully in-core method, ICMem=    31042459.
 IMap=   1   2   3   4   5   6   7
 JobTyp=1 Pass  1 fully in-core, NPsUse=  1.
 Compute canonical integrals, IntTyp=   4.
 Symmetry not used in FoFDir.
 MinBra= 0 MaxBra= 2 Meth= 1.
 IRaf=       0 NMat=   1 IRICut=       1 DoRegI=T DoRafI=F ISym2E= 0 JSym2E=0.
 Spin components of T(2) and E(2):
     alpha-alpha T2 =       0.1321131261D-01 E2=     -0.4650461066D-01
     alpha-beta  T2 =       0.8252684656D-01 E2=     -0.2991792219D+00
     beta-beta   T2 =       0.1321131261D-01 E2=     -0.4650461066D-01
 The integrals were generated   1 times.
 ANorm=    0.1053066699D+01
 E2 =    -0.3921884432D+00 EUMP2 =    -0.11548035257172D+03
 Leave Link  906 at Sun Dec 29 12:29:42 2019, MaxMem=   91750400 cpu:       1.8
 (Enter /opt/g09gh/gaussian/g09/l601.exe)
 Copying SCF densities to generalized density rwf, IOpCl= 0 IROHF=0.

 **********************************************************************

            Population analysis using the SCF density.

 **********************************************************************

 Orbital symmetries:
       Occupied  (A) (A) (A) (A) (A) (A) (A) (A) (A)
       Virtual   (A) (A) (A) (A) (A) (A) (A) (A) (A) (A) (A) (A)
                 (A) (A) (A) (A) (A) (A) (A) (A) (A) (A) (A) (A)
                 (A) (A) (A) (A) (A) (A) (A) (A) (A) (A) (A) (A)
                 (A) (A) (A) (A) (A) (A) (A) (A) (A) (A) (A) (A)
                 (A) (A) (A) (A) (A) (A) (A) (A) (A) (A) (A) (A)
                 (A) (A) (A) (A) (A) (A) (A) (A) (A) (A) (A) (A)
                 (A) (A) (A) (A) (A) (A) (A) (A) (A) (A) (A) (A)
                 (A)
 The electronic state is 1-A.
 Alpha  occ. eigenvalues --  -20.56200 -11.27063  -1.35510  -0.92085  -0.68730
 Alpha  occ. eigenvalues --   -0.62049  -0.59392  -0.50869  -0.45210
 Alpha virt. eigenvalues --    0.04438   0.06758   0.07711   0.08055   0.12578
 Alpha virt. eigenvalues --    0.15443   0.15856   0.18646   0.26698   0.27718
 Alpha virt. eigenvalues --    0.28156   0.29830   0.30443   0.32105   0.34344
 Alpha virt. eigenvalues --    0.38745   0.46272   0.56147   0.57078   0.67778
 Alpha virt. eigenvalues --    0.72778   0.73819   0.75712   0.76532   0.79096
 Alpha virt. eigenvalues --    0.79802   0.87648   0.95458   1.04670   1.05744
 Alpha virt. eigenvalues --    1.14647   1.20991   1.21874   1.29022   1.29939
 Alpha virt. eigenvalues --    1.32430   1.35567   1.40829   1.50756   1.53124
 Alpha virt. eigenvalues --    1.55965   1.64177   1.66809   1.69301   1.77395
 Alpha virt. eigenvalues --    1.80694   2.11093   2.23085   2.26167   2.54132
 Alpha virt. eigenvalues --    2.54651   2.89464   2.93279   3.10507   3.25373
 Alpha virt. eigenvalues --    3.50014   3.53112   3.65705   3.67678   3.70127
 Alpha virt. eigenvalues --    3.94804   3.97075   4.00172   4.13164   4.16365
 Alpha virt. eigenvalues --    4.24835   4.30893   4.41323   4.44663   4.46436
 Alpha virt. eigenvalues --    4.49272   4.57074   4.77161   5.43147   5.44934
 Alpha virt. eigenvalues --    5.59363   5.97344   6.45651   7.46886   7.55638
 Alpha virt. eigenvalues --    7.61515   7.72767   8.01148  25.11106  51.63464
          Condensed to atoms (all electrons):
              1          2          3          4          5          6
     1  O    8.267836   0.152180  -0.036988  -0.052025  -0.048609   0.277248
     2  C    0.152180   4.422184   0.438276   0.434199   0.438447  -0.023418
     3  H   -0.036988   0.438276   0.632155  -0.030065  -0.037037  -0.009611
     4  H   -0.052025   0.434199  -0.030065   0.627122  -0.036897   0.007285
     5  H   -0.048609   0.438447  -0.037037  -0.036897   0.643113  -0.003681
     6  H    0.277248  -0.023418  -0.009611   0.007285  -0.003681   0.468985
 Mulliken atomic charges:
              1
     1  O   -0.559641
     2  C    0.138132
     3  H    0.043271
     4  H    0.050381
     5  H    0.044664
     6  H    0.283193
 Sum of Mulliken atomic charges =   0.00000
 Mulliken charges with hydrogens summed into heavy atoms:
              1
     1  O   -0.276448
     2  C    0.276448
 Sum of Mulliken charges with hydrogens summed into heavy atoms =   0.00000
 Electronic spatial extent (au):  <R**2>=             84.5159
 Charge=              0.0000 electrons
 Dipole moment (field-independent basis, Debye):
    X=              1.2656    Y=              1.9278    Z=              0.0198  Tot=              2.3062
 Quadrupole moment (field-independent basis, Debye-Ang):
   XX=            -13.1470   YY=            -11.8858   ZZ=            -13.7570
   XY=             -2.5405   XZ=             -0.0924   YZ=              0.0104
 Traceless Quadrupole moment (field-independent basis, Debye-Ang):
   XX=             -0.2171   YY=              1.0441   ZZ=             -0.8270
   XY=             -2.5405   XZ=             -0.0924   YZ=              0.0104
 Octapole moment (field-independent basis, Debye-Ang**2):
  XXX=             -3.3132  YYY=              1.3819  ZZZ=              0.4283  XYY=             -1.5284
  XXY=              2.6908  XXZ=             -0.0097  XZZ=              0.0177  YZZ=              0.8630
  YYZ=             -0.4211  XYZ=             -0.0083
 Hexadecapole moment (field-independent basis, Debye-Ang**3):
 XXXX=            -62.2520 YYYY=            -19.6895 ZZZZ=            -19.5924 XXXY=             -4.6177
 XXXZ=             -0.2240 YYYX=             -3.3524 YYYZ=             -0.0848 ZZZX=              0.3654
 ZZZY=              0.0296 XXYY=            -12.2528 XXZZ=            -14.5537 YYZZ=             -6.6709
 XXYZ=              0.1142 YYXZ=             -0.5307 ZZXY=              0.0313
 N-N= 4.008759298869D+01 E-N=-3.513760089717D+02  KE= 1.149046605999D+02
 Leave Link  601 at Sun Dec 29 12:29:42 2019, MaxMem=   91750400 cpu:       0.0
 (Enter /opt/g09gh/gaussian/g09/l9999.exe)
 1\1\GINC-NODE36\SP\RMP2-FC\6-311++G(2d,2p)\C1H4O1\BDW2292\29-Dec-2019\
 0\\#P MP2/6-311++G(2d,2p) SP SCF=(qc,maxcycle=800) Guess=Indo MaxDisk=
 100GB SCRF=(PCM)\\methanol Rotatable Bond SP Calculation on node36.bme
 .utexas.edu\\0,1\O,0,0.749763,0.128715,0.072359\C,0,-0.677654,0.000456
 ,0.00769\H,0,-0.93699,-0.5796,-0.883107\H,0,-1.113844,1.003331,-0.0172
 12\H,0,-1.007545,-0.529499,0.906891\H,0,1.111166,-0.761771,-0.086696\\
 Version=EM64L-G09RevA.02\State=1-A\HF=-115.0881641\MP2=-115.4803526\RM
 SD=0.000e+00\PG=C01 [X(C1H4O1)]\\@


 FAULTILY FAULTLESS, ICILY REGULAR, SPLENDIDLY NULL...
           MAUDE BY TENNYSON
 Job cpu time:  0 days  0 hours  0 minutes 13.8 seconds.
 File lengths (MBytes):  RWF=     13 Int=      0 D2E=      0 Chk=      2 Scr=      1
 Normal termination of Gaussian 09 at Sun Dec 29 12:29:42 2019.
