Generated by Psi4
        SP                        DF-MP2                      6-311G**
Number of atoms                            I               11
Charge                                     I                0
Multiplicity                               I                1
Number of electrons                        I               58
Number of alpha electrons                  I               29
Number of beta electrons                   I               29
Number of basis functions                  I              146
Number of independent functions            I              146
Atomic numbers                             I   N=          11
          15           8           8           8           8           6
           1           1           1           1           1
Nuclear charges                            R   N=          11
  1.50000000e+01  8.00000000e+00  8.00000000e+00  8.00000000e+00  8.00000000e+00
  6.00000000e+00  1.00000000e+00  1.00000000e+00  1.00000000e+00  1.00000000e+00
  1.00000000e+00
Current cartesian coordinates              R   N=          33
  7.93521010e-01  1.13676497e-01 -2.34894460e-02 -1.79622607e+00  1.62628962e+00
 -1.02422911e-01  3.68355344e-01 -1.90723317e+00 -2.24702824e+00  6.36545147e-01
 -1.67219187e+00  2.45193148e+00  3.06210083e+00  1.70508206e+00 -1.26952667e-01
 -4.16901972e+00  3.37414361e-01 -6.08719183e-03 -5.61594617e+00  1.79984697e+00
  9.78107331e-02 -4.27270780e+00 -8.70454966e-01  1.66828221e+00 -4.43774685e+00
 -7.97651633e-01 -1.71085095e+00  1.91780244e+00 -2.77311044e+00 -2.67333263e+00
  1.62205309e+00 -9.33028924e-01  3.80087108e+00
Integer atomic weights                     I   N=          11
          30          15          15          15          15          12
           1           1           1           1           1
Real atomic weights                        R   N=          11
  3.09737620e+01  1.59949146e+01  1.59949146e+01  1.59949146e+01  1.59949146e+01
  1.20000000e+01  1.00782503e+00  1.00782503e+00  1.00782503e+00  1.00782503e+00
  1.00782503e+00
Number of primitive shells                 I              138
Number of contracted shells                I               72
Pure/Cartesian d shells                    I                0
Pure/Cartesian f shells                    I                0
Highest angular momentum                   I                2
Largest degree of contraction              I                6
Shell types                                I   N=          72
           0           0           0           0           0           0
           1           1           1           1           1          -2
           0           0           1           0           1           0
           1          -2           0           0           1           0
           1           0           1          -2           0           0
           1           0           1           0           1          -2
           0           0           1           0           1           0
           1          -2           0           0           1           0
           1           0           1          -2           0           0
           0           1           0           0           0           1
           0           0           0           1           0           0
           0           1           0           0           0           1
Number of primitives per shell             I   N=          72
           6           3           1           1           1           1
           4           2           1           1           1           1
           6           3           3           1           1           1
           1           1           6           3           3           1
           1           1           1           1           6           3
           3           1           1           1           1           1
           6           3           3           1           1           1
           1           1           6           3           3           1
           1           1           1           1           3           1
           1           1           3           1           1           1
           3           1           1           1           3           1
           1           1           3           1           1           1
Shell to atom map                          I   N=          72
           1           1           1           1           1           1
           1           1           1           1           1           1
           2           2           2           2           2           2
           2           2           3           3           3           3
           3           3           3           3           4           4
           4           4           4           4           4           4
           5           5           5           5           5           5
           5           5           6           6           6           6
           6           6           6           6           7           7
           7           7           8           8           8           8
           9           9           9           9          10          10
          10          10          11          11          11          11
Primitive exponents                        R   N=         138
  7.74924000e+04  1.16058000e+04  2.64596000e+03  7.54976000e+02  2.48755000e+02
  9.11565000e+01  9.11565000e+01  3.62257000e+01  1.52113000e+01  4.79417000e+00
  1.80793000e+00  3.56816000e-01  1.14783000e-01  3.84843000e+02  9.05521000e+01
  2.91339000e+01  1.08862000e+01  4.35259000e+00  1.77706000e+00  6.97005000e-01
  2.53532000e-01  6.84930000e-02  5.50000000e-01  8.58850000e+03  1.29723000e+03
  2.99296000e+02  8.73771000e+01  2.56789000e+01  3.74004000e+00  4.21175000e+01
  9.62837000e+00  2.85332000e+00  4.21175000e+01  9.62837000e+00  2.85332000e+00
  9.05661000e-01  9.05661000e-01  2.55611000e-01  2.55611000e-01  1.29200000e+00
  8.58850000e+03  1.29723000e+03  2.99296000e+02  8.73771000e+01  2.56789000e+01
  3.74004000e+00  4.21175000e+01  9.62837000e+00  2.85332000e+00  4.21175000e+01
  9.62837000e+00  2.85332000e+00  9.05661000e-01  9.05661000e-01  2.55611000e-01
  2.55611000e-01  1.29200000e+00  8.58850000e+03  1.29723000e+03  2.99296000e+02
  8.73771000e+01  2.56789000e+01  3.74004000e+00  4.21175000e+01  9.62837000e+00
  2.85332000e+00  4.21175000e+01  9.62837000e+00  2.85332000e+00  9.05661000e-01
  9.05661000e-01  2.55611000e-01  2.55611000e-01  1.29200000e+00  8.58850000e+03
  1.29723000e+03  2.99296000e+02  8.73771000e+01  2.56789000e+01  3.74004000e+00
  4.21175000e+01  9.62837000e+00  2.85332000e+00  4.21175000e+01  9.62837000e+00
  2.85332000e+00  9.05661000e-01  9.05661000e-01  2.55611000e-01  2.55611000e-01
  1.29200000e+00  4.56324000e+03  6.82024000e+02  1.54973000e+02  4.44553000e+01
  1.30290000e+01  1.82773000e+00  2.09642000e+01  4.80331000e+00  1.45933000e+00
  2.09642000e+01  4.80331000e+00  1.45933000e+00  4.83456000e-01  4.83456000e-01
  1.45585000e-01  1.45585000e-01  6.26000000e-01  3.38650000e+01  5.09479000e+00
  1.15879000e+00  3.25840000e-01  1.02741000e-01  7.50000000e-01  3.38650000e+01
  5.09479000e+00  1.15879000e+00  3.25840000e-01  1.02741000e-01  7.50000000e-01
  3.38650000e+01  5.09479000e+00  1.15879000e+00  3.25840000e-01  1.02741000e-01
  7.50000000e-01  3.38650000e+01  5.09479000e+00  1.15879000e+00  3.25840000e-01
  1.02741000e-01  7.50000000e-01  3.38650000e+01  5.09479000e+00  1.15879000e+00
  3.25840000e-01  1.02741000e-01  7.50000000e-01
Contraction coefficients                   R   N=         138
  7.81000147e-04  6.06800114e-03  3.11600059e-02  1.23431023e-01  3.78209071e-01
  5.63262106e-01  1.60255011e-01  6.27647045e-01  2.63849019e-01  1.00000000e+00
  1.00000000e+00  1.00000000e+00  1.00000000e+00  9.20599888e-03  6.98739915e-02
  2.92469964e-01  7.28102911e-01  6.28348873e-01  4.28043913e-01  1.00000000e+00
  1.00000000e+00  1.00000000e+00  1.00000000e+00  1.89515008e-03  1.43859006e-02
  7.07320031e-02  2.40001011e-01  5.94797026e-01  2.80802012e-01  1.13889012e-01
  9.20811101e-01 -3.27447036e-03  3.65113974e-02  2.37152983e-01  8.19701941e-01
  1.00000000e+00  1.00000000e+00  1.00000000e+00  1.00000000e+00  1.00000000e+00
  1.89515008e-03  1.43859006e-02  7.07320031e-02  2.40001011e-01  5.94797026e-01
  2.80802012e-01  1.13889012e-01  9.20811101e-01 -3.27447036e-03  3.65113974e-02
  2.37152983e-01  8.19701941e-01  1.00000000e+00  1.00000000e+00  1.00000000e+00
  1.00000000e+00  1.00000000e+00  1.89515008e-03  1.43859006e-02  7.07320031e-02
  2.40001011e-01  5.94797026e-01  2.80802012e-01  1.13889012e-01  9.20811101e-01
 -3.27447036e-03  3.65113974e-02  2.37152983e-01  8.19701941e-01  1.00000000e+00
  1.00000000e+00  1.00000000e+00  1.00000000e+00  1.00000000e+00  1.89515008e-03
  1.43859006e-02  7.07320031e-02  2.40001011e-01  5.94797026e-01  2.80802012e-01
  1.13889012e-01  9.20811101e-01 -3.27447036e-03  3.65113974e-02  2.37152983e-01
  8.19701941e-01  1.00000000e+00  1.00000000e+00  1.00000000e+00  1.00000000e+00
  1.00000000e+00  1.96665025e-03  1.52306019e-02  7.61269097e-02  2.60801033e-01
  6.16462078e-01  2.21006028e-01  1.14660081e-01  9.19999648e-01 -3.03068213e-03
  4.02486927e-02  2.37593957e-01  8.15853851e-01  1.00000000e+00  1.00000000e+00
  1.00000000e+00  1.00000000e+00  1.00000000e+00  2.54938145e-02  1.90373109e-01
  8.52161486e-01  1.00000000e+00  1.00000000e+00  1.00000000e+00  2.54938145e-02
  1.90373109e-01  8.52161486e-01  1.00000000e+00  1.00000000e+00  1.00000000e+00
  2.54938145e-02  1.90373109e-01  8.52161486e-01  1.00000000e+00  1.00000000e+00
  1.00000000e+00  2.54938145e-02  1.90373109e-01  8.52161486e-01  1.00000000e+00
  1.00000000e+00  1.00000000e+00  2.54938145e-02  1.90373109e-01  8.52161486e-01
  1.00000000e+00  1.00000000e+00  1.00000000e+00
Coordinates of each shell                  R   N=         216
  7.93521010e-01  1.13676497e-01 -2.34894460e-02  7.93521010e-01  1.13676497e-01
 -2.34894460e-02  7.93521010e-01  1.13676497e-01 -2.34894460e-02  7.93521010e-01
  1.13676497e-01 -2.34894460e-02  7.93521010e-01  1.13676497e-01 -2.34894460e-02
  7.93521010e-01  1.13676497e-01 -2.34894460e-02  7.93521010e-01  1.13676497e-01
 -2.34894460e-02  7.93521010e-01  1.13676497e-01 -2.34894460e-02  7.93521010e-01
  1.13676497e-01 -2.34894460e-02  7.93521010e-01  1.13676497e-01 -2.34894460e-02
  7.93521010e-01  1.13676497e-01 -2.34894460e-02  7.93521010e-01  1.13676497e-01
 -2.34894460e-02 -1.79622607e+00  1.62628962e+00 -1.02422911e-01 -1.79622607e+00
  1.62628962e+00 -1.02422911e-01 -1.79622607e+00  1.62628962e+00 -1.02422911e-01
 -1.79622607e+00  1.62628962e+00 -1.02422911e-01 -1.79622607e+00  1.62628962e+00
 -1.02422911e-01 -1.79622607e+00  1.62628962e+00 -1.02422911e-01 -1.79622607e+00
  1.62628962e+00 -1.02422911e-01 -1.79622607e+00  1.62628962e+00 -1.02422911e-01
  3.68355344e-01 -1.90723317e+00 -2.24702824e+00  3.68355344e-01 -1.90723317e+00
 -2.24702824e+00  3.68355344e-01 -1.90723317e+00 -2.24702824e+00  3.68355344e-01
 -1.90723317e+00 -2.24702824e+00  3.68355344e-01 -1.90723317e+00 -2.24702824e+00
  3.68355344e-01 -1.90723317e+00 -2.24702824e+00  3.68355344e-01 -1.90723317e+00
 -2.24702824e+00  3.68355344e-01 -1.90723317e+00 -2.24702824e+00  6.36545147e-01
 -1.67219187e+00  2.45193148e+00  6.36545147e-01 -1.67219187e+00  2.45193148e+00
  6.36545147e-01 -1.67219187e+00  2.45193148e+00  6.36545147e-01 -1.67219187e+00
  2.45193148e+00  6.36545147e-01 -1.67219187e+00  2.45193148e+00  6.36545147e-01
 -1.67219187e+00  2.45193148e+00  6.36545147e-01 -1.67219187e+00  2.45193148e+00
  6.36545147e-01 -1.67219187e+00  2.45193148e+00  3.06210083e+00  1.70508206e+00
 -1.26952667e-01  3.06210083e+00  1.70508206e+00 -1.26952667e-01  3.06210083e+00
  1.70508206e+00 -1.26952667e-01  3.06210083e+00  1.70508206e+00 -1.26952667e-01
  3.06210083e+00  1.70508206e+00 -1.26952667e-01  3.06210083e+00  1.70508206e+00
 -1.26952667e-01  3.06210083e+00  1.70508206e+00 -1.26952667e-01  3.06210083e+00
  1.70508206e+00 -1.26952667e-01 -4.16901972e+00  3.37414361e-01 -6.08719183e-03
 -4.16901972e+00  3.37414361e-01 -6.08719183e-03 -4.16901972e+00  3.37414361e-01
 -6.08719183e-03 -4.16901972e+00  3.37414361e-01 -6.08719183e-03 -4.16901972e+00
  3.37414361e-01 -6.08719183e-03 -4.16901972e+00  3.37414361e-01 -6.08719183e-03
 -4.16901972e+00  3.37414361e-01 -6.08719183e-03 -4.16901972e+00  3.37414361e-01
 -6.08719183e-03 -5.61594617e+00  1.79984697e+00  9.78107331e-02 -5.61594617e+00
  1.79984697e+00  9.78107331e-02 -5.61594617e+00  1.79984697e+00  9.78107331e-02
 -5.61594617e+00  1.79984697e+00  9.78107331e-02 -4.27270780e+00 -8.70454966e-01
  1.66828221e+00 -4.27270780e+00 -8.70454966e-01  1.66828221e+00 -4.27270780e+00
 -8.70454966e-01  1.66828221e+00 -4.27270780e+00 -8.70454966e-01  1.66828221e+00
 -4.43774685e+00 -7.97651633e-01 -1.71085095e+00 -4.43774685e+00 -7.97651633e-01
 -1.71085095e+00 -4.43774685e+00 -7.97651633e-01 -1.71085095e+00 -4.43774685e+00
 -7.97651633e-01 -1.71085095e+00  1.91780244e+00 -2.77311044e+00 -2.67333263e+00
  1.91780244e+00 -2.77311044e+00 -2.67333263e+00  1.91780244e+00 -2.77311044e+00
 -2.67333263e+00  1.91780244e+00 -2.77311044e+00 -2.67333263e+00  1.62205309e+00
 -9.33028924e-01  3.80087108e+00  1.62205309e+00 -9.33028924e-01  3.80087108e+00
  1.62205309e+00 -9.33028924e-01  3.80087108e+00  1.62205309e+00 -9.33028924e-01
  3.80087108e+00
Total Energy                               R     -6.822270492121339e+02
Alpha Orbital Energies                     R   N=         146
 -8.01190934e+01 -2.06111503e+01 -2.06089891e+01 -2.05979854e+01 -2.05162270e+01
 -1.13012763e+01 -7.64211657e+00 -5.54035109e+00 -5.54015029e+00 -5.53991240e+00
 -1.46849864e+00 -1.39516732e+00 -1.39442699e+00 -1.30948295e+00 -9.73530774e-01
 -8.56716675e-01 -7.62406821e-01 -7.23049740e-01 -6.86247835e-01 -6.57143491e-01
 -6.44110116e-01 -6.36628285e-01 -5.89881404e-01 -5.68427609e-01 -5.50771752e-01
 -5.21557640e-01 -4.97170440e-01 -4.76573209e-01 -4.71330482e-01  1.26626654e-01
  1.64844543e-01  1.69143910e-01  2.14751846e-01  2.26545712e-01  2.38500445e-01
  2.65041774e-01  2.75207472e-01  2.93652577e-01  3.63016251e-01  3.86833119e-01
  4.01610021e-01  4.19522279e-01  4.61021594e-01  4.63145702e-01  5.44198533e-01
  5.85680882e-01  6.06817840e-01  6.68228274e-01  7.56425099e-01  7.67445067e-01
  7.73974780e-01  8.56518109e-01  8.64036047e-01  8.98615653e-01  9.42040480e-01
  9.84360380e-01  1.00318461e+00  1.02239239e+00  1.03528666e+00  1.10233608e+00
  1.13650911e+00  1.16817362e+00  1.17924338e+00  1.18494332e+00  1.26040554e+00
  1.27114669e+00  1.29670175e+00  1.30754550e+00  1.40816720e+00  1.44723672e+00
  1.46333203e+00  1.51258999e+00  1.52985541e+00  1.57996572e+00  1.60441067e+00
  1.66911044e+00  1.69417501e+00  1.70420238e+00  1.72293323e+00  1.75339696e+00
  1.76609485e+00  1.84129378e+00  1.88956000e+00  1.90188231e+00  1.94043330e+00
  1.95319762e+00  1.96992692e+00  2.16227528e+00  2.24424657e+00  2.25242461e+00
  2.26364869e+00  2.37144261e+00  2.39308876e+00  2.63093396e+00  2.68669698e+00
  2.70092665e+00  2.72887738e+00  2.79181394e+00  2.80631394e+00  2.82681604e+00
  3.08282929e+00  3.14382374e+00  3.20095945e+00  3.22439898e+00  3.22923938e+00
  3.24869120e+00  3.28002810e+00  3.32810483e+00  3.38706414e+00  3.43654803e+00
  3.44130867e+00  3.45406280e+00  3.49047159e+00  3.50180274e+00  3.53483355e+00
  3.60528682e+00  3.74271033e+00  3.77975625e+00  3.94208351e+00  4.12995006e+00
  4.14283175e+00  4.16892981e+00  4.20018889e+00  4.37360012e+00  5.30734691e+00
  5.34133752e+00  5.36456912e+00  5.38716947e+00  5.42458900e+00  5.44370748e+00
  5.52724314e+00  5.57159754e+00  5.74998305e+00  5.95898740e+00  5.97445648e+00
  6.00886373e+00  7.61298473e+00  1.47883823e+01  1.48002945e+01  1.50529347e+01
  2.49884086e+01  5.14641895e+01  5.14974498e+01  5.15065868e+01  5.15972300e+01
  1.66129189e+02
Alpha MO coefficients                      R   N=       21316
  4.19271896e-01  6.46642485e-01  1.07511066e-02 -1.06188468e-03  4.37748591e-04
 -6.58944781e-05 -5.87974447e-05 -4.65770617e-05  2.56041621e-06  2.03735538e-05
  1.61055130e-05 -6.85926344e-07 -1.60211533e-05 -1.41217282e-05  1.95333029e-07
  1.87657968e-05  2.69873264e-05 -8.78370394e-07  1.75081178e-05  1.61066803e-05
 -3.55486839e-06 -8.25796657e-06  1.11495760e-06  3.27055747e-07  6.26672981e-06
  7.85513676e-06  5.62186065e-07 -4.33113654e-07  3.67162165e-06 -2.06762670e-06
  2.96932710e-07  1.89459981e-05 -1.14180909e-05  6.13152917e-06 -9.07967264e-07
 -7.55022282e-05 -3.48439527e-05  3.73055120e-05 -9.14049137e-07  1.17304679e-05
 -6.53797965e-07  6.60393831e-07 -7.32188578e-06  1.34226815e-05  3.80287710e-07
  2.86678520e-07  9.98777587e-07  2.88589437e-06  3.55622934e-06  1.22489229e-05
 -4.01933628e-06 -8.03714921e-06 -1.05464884e-05 -4.85622504e-05 -1.85049070e-05
 -2.29388924e-05 -2.39723301e-05 -3.56943511e-06 -3.63386211e-06 -1.62750633e-05
  3.77381534e-06 -1.93643006e-06  3.31249252e-07  4.95743293e-07  4.36865787e-07
  2.27282695e-06 -4.00883946e-06  1.09964408e-05 -1.94134610e-06 -6.98052655e-06
  1.10942746e-05 -5.05566837e-05 -1.47530139e-05 -3.66269741e-05  1.11532628e-05
 -7.95816491e-06 -1.34856850e-06  1.27513288e-05  5.63170737e-06 -4.49161394e-06
  1.78309897e-07  1.22389219e-06 -3.98120485e-06 -3.00393334e-06  2.32043489e-07
  1.28821543e-05  2.19154315e-05  1.60906670e-05 -1.18704554e-06 -8.67604540e-05
  4.64829168e-05  2.99390138e-05 -1.76855420e-06  1.09993578e-05  1.35487811e-06
  8.53939982e-07 -6.66056614e-06 -1.78150878e-05 -1.72586705e-07  3.90566098e-07
 -2.04262934e-06  1.30142224e-06  2.81085538e-08 -8.17095380e-06  5.64163924e-06
 -4.91221810e-06  7.07391221e-08  3.94494582e-05  3.69749445e-05 -2.33153315e-05
  3.20506330e-07  7.63889079e-07  2.58099459e-08 -1.94590347e-07  7.37340323e-06
  2.34507082e-07  3.12631386e-07  1.00364990e-05  6.32121820e-06 -3.90256890e-07
 -2.06143048e-06 -5.48432988e-07  1.52498014e-06 -1.78891482e-05  5.58110191e-06
 -2.01077389e-06  1.30741663e-06  2.45978031e-06  1.13437436e-06 -1.44222811e-05
  1.71891131e-06 -2.97859398e-06  1.84603685e-06 -2.19030182e-06 -3.57076479e-07
  1.73681274e-05  7.70103418e-06 -8.58355489e-07  8.32383229e-06  8.71121598e-06
 -5.71187487e-07  2.85149022e-05  6.83740040e-06 -3.05352416e-06  4.03358437e-06
 -1.19406322e-05  2.99883478e-06  6.61846850e-06 -2.09331079e-06 -7.56505404e-05
  7.65068993e-05  4.78965312e-04  1.24255913e-06  6.88913129e-06  7.21222434e-06
  3.32002398e-06  3.00771944e-05  3.21856045e-05 -2.16638664e-06 -3.95459721e-05
 -4.95553637e-05 -3.29750762e-05 -1.50482608e-04 -1.52883503e-04 -1.83632098e-04
 -8.56825763e-05 -1.04743645e-04  3.81281109e-05  9.57398482e-06  9.07848177e-05
 -5.72479558e-05  7.92866046e-06 -3.12763551e-04 -2.69598755e-04 -5.85652478e-06
  8.91508275e-07  2.31035600e-06  1.94261298e-05  1.17781101e-05  1.29303257e-05
  1.17037724e-06 -1.17583945e-04 -5.97753562e-05  1.43607318e-05  2.48469179e-05
 -2.62955453e-06  3.25851199e-06  5.46460146e-08  2.78590407e-06  7.86580022e-08
  5.51441489e-01  4.71652148e-01  1.39022566e-03  2.06076263e-04  6.86421436e-04
  5.65187232e-03 -5.02636436e-04 -1.41354454e-05 -1.82702054e-04 -6.64731835e-04
  1.49646787e-04 -1.08123117e-04 -6.84230516e-05  1.51719428e-05  1.35276609e-05
 -7.56324573e-05 -1.49028962e-05  4.82191844e-05 -1.91654957e-03 -1.64164754e-03
 -3.66302849e-07 -4.06468669e-06  2.86391958e-06  1.02705500e-05 -1.25156247e-05
 -1.19610560e-06  5.88470285e-06 -1.66252548e-04  2.06255198e-05 -8.20430503e-06
  4.10384667e-05 -6.32100795e-06 -3.90691007e-06 -4.74982310e-06 -3.10037590e-06
 -3.97400188e-07 -4.77980728e-05 -4.20221408e-05  7.94879798e-06  8.59999575e-06
  6.90818075e-06  1.13886086e-05 -2.36815311e-05 -1.55565409e-05 -1.20519478e-05
 -2.94505643e-05  6.12040408e-05  5.49380568e-05  5.95381057e-05 -7.82729467e-07
 -4.14190770e-06 -5.27381647e-06  9.49759815e-07 -5.44318154e-07  4.37918704e-08
  8.29142433e-07  2.02812835e-06 -3.34046951e-06 -1.33255680e-06  6.34652739e-06
 -2.90180180e-06  7.99079148e-06  1.78274808e-05 -1.00657859e-04 -2.14380871e-05
 -2.95046667e-05  1.23704633e-05  3.33197303e-06 -2.72708486e-06 -1.01079337e-05
 -5.45639171e-07  1.03779817e-05 -3.20023625e-06  3.18712557e-05  2.29174791e-06
  5.21171525e-06 -4.65359692e-06 -7.54169467e-08  4.75757396e-06 -1.73306563e-05
 -4.45810013e-05 -9.93999204e-06 -1.22215829e-06  1.12558879e-05 -2.03545852e-06
  7.26486593e-06  2.01912274e-05  4.23639188e-06  9.02653996e-06  1.11058240e-05
  1.84911545e-04  5.43602516e-05  4.37581226e-05 -3.45034698e-05  5.02832274e-05
  4.23296969e-05 -6.47736352e-07  2.29275607e-05  3.84849325e-05 -6.31386744e-06
 -1.54212199e-06 -1.57151447e-05  2.89138756e-06  6.82435725e-06 -5.00625770e-06
 -6.67184517e-05  3.92015902e-05  5.82432139e-04  1.28669459e-06  6.02879366e-06
 -7.98735112e-06 -1.49742160e-06  2.23144586e-05 -3.54399115e-05  1.57176643e-05
 -2.42518940e-05  4.74388212e-05 -4.85717904e-05 -1.48699388e-04  1.91396089e-04
 -1.16170731e-04 -1.85013775e-04  3.17295932e-05  6.40181588e-05 -1.36424577e-06
 -9.31463072e-05 -2.74465384e-05 -5.20325800e-06 -3.91431548e-04 -3.36527902e-04
 -3.51060327e-06  3.05993914e-06 -2.23013016e-06  1.99815444e-05  1.05533156e-06
  3.83856096e-06 -4.75862398e-06 -1.30853183e-04 -3.05975168e-05  5.14516611e-05
 -2.76104509e-05 -1.24455823e-07 -3.87286779e-06  3.68250528e-06  1.77787659e-06
  1.31390884e-06  1.91824781e-03  1.63696379e-03  7.06532013e-06 -9.35955354e-07
 -1.60711837e-06  5.47562653e-05 -1.12941466e-05  3.97760805e-06 -5.59818773e-06
 -1.49705161e-04  5.13157690e-05 -2.73787197e-05 -6.47716991e-05 -6.67500945e-06
  9.82672490e-07  2.21191625e-06 -9.09832808e-08 -7.35120303e-07  5.51446228e-01
  4.71653891e-01  7.84978920e-04  1.35712621e-03 -2.73582139e-05  5.63821631e-03
 -2.87048195e-04 -4.48893094e-04 -7.02613389e-05 -6.94943672e-04  9.01043815e-05
  3.73588866e-05  1.80673536e-04 -6.67776343e-05 -5.96544458e-05  1.33703707e-05
  1.32328818e-05 -3.36726541e-05 -5.62467449e-05 -5.03942221e-05  7.51407897e-06
  1.11868340e-05 -6.00545461e-06  2.03625333e-05 -2.16342644e-05 -2.68318274e-05
  6.15990909e-06 -5.00109408e-05  4.55267602e-05  8.65038730e-05 -4.91870026e-05
 -2.47513111e-06  4.20536819e-06  5.60958585e-06  4.90288749e-06 -1.09193070e-06
  2.62545164e-07 -2.90711606e-07  4.80574315e-07 -3.38216989e-06  6.38517801e-07
  1.47347522e-05  7.50713533e-06  1.59604632e-05 -7.94052196e-06 -7.80260842e-05
 -3.32721800e-05  3.17855821e-05 -2.70950318e-06 -3.76466403e-06  1.12609450e-08
  5.41385049e-06  5.17790536e-06  9.34610031e-06  1.81199700e-06 -4.09194796e-06
 -6.76816672e-06 -2.03348017e-07 -2.15054269e-06 -1.75688702e-06 -2.01714857e-08
  1.26393733e-05  2.52523334e-05  1.70534251e-06  6.23846617e-06 -1.32118968e-05
 -2.80086044e-06  2.67252030e-05 -3.92627217e-05 -3.90761006e-06  7.92867767e-07
  1.68795041e-06  1.08311444e-05 -5.02586929e-05 -4.88609808e-05  3.02437802e-06
 -7.83182399e-06 -1.27246340e-05  1.87391437e-04  6.30896540e-05  4.71793947e-05
 -2.90849736e-05  1.36496832e-06 -7.59370532e-05  3.20060135e-06  7.13199947e-06
 -2.95514629e-06 -7.83261979e-05  7.97858349e-05  4.08344979e-04  1.01894072e-05
 -4.06646056e-06  2.78359941e-07  3.70182040e-05 -2.29148742e-05  3.59362141e-07
 -4.24739285e-05  5.54208019e-05  8.56768165e-07 -2.17880502e-04  1.57181169e-06
 -7.71078363e-06 -1.15399029e-04  8.86190141e-05  2.27352523e-05 -3.62563705e-05
  5.10783213e-06  1.31668845e-06  6.33766050e-05 -6.22984734e-05  5.51443504e-01
  4.71646875e-01 -1.27946184e-05 -1.51707448e-03  1.07075548e-04  5.71503542e-03
  6.55051893e-05  5.20562521e-04 -3.41099706e-05 -8.40946941e-04  3.25410132e-05
 -4.14929125e-05 -2.90189644e-06  9.20112282e-05  3.57856257e-06  5.78489874e-06
 -6.80968192e-05 -4.63714198e-05  3.16145792e-04  2.68299206e-04  3.46012578e-06
 -2.51161242e-06 -6.63294039e-07  2.90590275e-05 -6.29434787e-06 -4.01611801e-06
 -4.30428066e-06 -1.38593870e-04  4.28268763e-05 -5.74297391e-05 -4.32043381e-05
  5.67532638e-07  5.66284206e-06 -3.83794677e-06  2.51654215e-06  4.72140558e-06
  3.92181674e-04  3.33050508e-04  5.94653658e-06 -3.81855827e-06  3.44449116e-06
  2.90690262e-05 -9.94029659e-06  2.42414523e-06 -3.71426420e-06 -1.02149023e-04
  6.94314420e-05 -5.29257881e-05  6.30489605e-05  1.65410208e-06 -5.28604339e-06
  4.44788602e-06  2.59486342e-06  6.89096835e-06 -4.66789942e-05 -4.27120789e-05
  8.01889874e-06 -2.78631736e-06 -1.54159671e-07  2.47079518e-05 -1.42850811e-05
  4.55395867e-06  7.11603654e-07 -5.73919727e-05  4.64613958e-05 -2.87717006e-05
 -1.50870147e-06 -4.83611907e-07  7.15297127e-08 -2.54504929e-07  3.17557677e-07
  1.67799662e-06 -2.48002845e-06 -2.49099263e-05  2.34817118e-05  2.93112775e-05
 -2.51730875e-06  7.73157244e-05  1.87216078e-04  3.67654386e-05 -1.96996302e-06
  3.38734282e-04  8.02375526e-05  1.38145209e-04 -1.19081415e-05 -3.06054916e-05
 -2.44049238e-06 -7.50524620e-07  7.46475036e-05  6.24155736e-05  1.92696811e-05
 -7.02118078e-05 -4.00655622e-05  1.25574555e-05 -1.21478087e-05 -3.00962507e-07
  8.07527373e-06 -6.42649711e-05 -2.35714306e-06 -2.12348166e-05 -1.92167886e-05
 -4.05193351e-06  6.47273522e-06 -6.43655552e-05 -2.00733652e-06 -1.60121444e-05
 -1.80688346e-05  6.21890375e-06  2.74060227e-06 -1.34618617e-05  3.26523669e-05
 -6.87656540e-07  5.30476093e-06  6.50107138e-06  4.79487965e-06 -2.30434323e-05
 -2.54512730e-05  2.29554090e-08  3.97521568e-06  3.48041575e-06  5.35336238e-06
  1.04089029e-05  5.16556977e-06 -1.50151997e-04  2.17518413e-04  2.55288318e-04
 -9.16455116e-06 -6.85071537e-06  3.99364603e-07 -6.16767544e-05 -4.22436196e-05
  3.52222794e-06  8.65269755e-05  5.42722101e-05 -7.22477748e-06  2.07861771e-04
  1.75478457e-04 -2.70667209e-07  2.45562950e-04  1.28025230e-04  8.65267166e-06
 -7.60421483e-05 -7.29321191e-06 -7.93567825e-06  4.59679146e-05  1.20153021e-04
  4.83691217e-05  4.10066504e-05 -7.82806292e-06 -1.01195789e-06 -3.62755112e-07
  3.94181693e-06  1.37722838e-05  4.34342740e-06  1.13139924e-06 -2.81953191e-05
 -7.75495560e-05 -3.15919930e-05 -2.73485305e-06 -1.46726754e-06 -4.47985182e-07
  2.01415010e-08 -1.18981461e-06 -6.37879821e-07  4.96088519e-05  4.29915406e-05
 -7.47016250e-06 -9.28222128e-06 -3.35017717e-06 -4.02383743e-06  1.56688891e-05
  1.57620691e-05  3.75446471e-06  3.83224068e-05 -5.60944640e-05 -4.92847242e-05
  1.01288209e-05  3.68328897e-06 -6.32935724e-07 -3.24927427e-08 -1.74375024e-07
 -5.05618674e-06  5.78868712e-05  4.99449960e-05 -6.55159623e-06 -7.80774988e-06
  6.17318966e-06  1.71887021e-06  1.17374354e-05  1.24846760e-05 -8.57149783e-06
 -1.79245156e-05 -7.80712506e-05 -5.89349611e-05 -8.20827701e-06  1.56900413e-06
 -1.04759794e-07 -1.11026632e-06 -1.18299757e-06 -6.33442369e-06  5.51489481e-01
  4.71687632e-01 -1.35233440e-03 -1.00045736e-03  8.22988455e-05  5.40376503e-03
  4.26631799e-04  3.12700961e-04 -2.53316209e-05 -5.40545270e-04 -6.10081583e-05
 -4.29456927e-05  3.38875718e-06  1.37691615e-06  1.63358208e-06 -6.79636852e-06
 -1.61663663e-06  4.31273472e-06 -4.59782340e-07  1.42896830e-06  5.47082423e-06
  4.06673592e-06 -5.26006094e-07 -1.74608357e-05 -2.62346881e-05 -2.09205411e-05
  1.72516531e-06 -6.52155806e-07  7.84792174e-05 -3.33246954e-05 -2.46938970e-06
  4.92730120e-06  1.31729280e-06 -6.51030924e-08 -8.12931951e-08 -1.28930293e-07
 -3.41512603e-06  2.96850551e-05  2.06822466e-05  4.68305073e-07 -3.17705657e-06
 -4.61316409e-07  3.36992992e-06 -3.02771264e-05  5.66901209e-05 -1.96634087e-06
 -1.01179962e-06  6.27666544e-06  3.68957258e-06 -2.86663001e-05  4.95539772e-05
 -3.49219592e-06 -3.13437081e-07 -6.50762713e-06  4.64606631e-06 -9.31746957e-06
 -2.30519496e-05  1.43728362e-06 -5.62052652e-06 -9.51135185e-06  2.20792110e-06
  4.01450086e-05 -4.52653783e-05 -6.67096966e-06 -1.11812658e-05  2.76369659e-07
 -4.57584869e-07 -6.09233989e-07 -3.08876512e-06  2.22347274e-05 -5.70977006e-05
 -4.59679805e-05 -8.54513049e-07  1.79936317e-06 -1.34264527e-07 -7.96996375e-06
  6.10913683e-07  1.47772255e-07  2.49393949e-05 -1.31901822e-06 -1.49679890e-06
  2.58309030e-05 -2.16653004e-05  1.00069311e-05  3.37615978e-05 -6.58557140e-06
  4.95288591e-06  5.39747923e-06 -1.26508428e-06 -2.84442734e-06 -1.84193765e-05
  2.32375345e-06 -6.61284871e-05 -1.20984215e-04 -6.67035525e-05 -4.32604714e-05
  3.34726587e-06  2.53850605e-04 -4.92044354e-04 -2.68824760e-04  1.93584580e-05
  5.73142479e-04 -1.74358351e-04 -1.67938923e-04  1.21396650e-05 -1.25864246e-04
 -1.41650449e-05 -8.98698497e-06  9.98405587e-05  1.86208934e-04  4.19470128e-07
  7.51250814e-07  5.05402165e-07 -2.79243719e-07  8.81522340e-07 -1.10430011e-06
  3.57687374e-06  3.41567405e-06 -3.64731549e-06 -1.45037434e-05 -1.11350279e-05
  1.03858513e-05  1.33146223e-05  1.26918294e-06  3.31117610e-07  1.71991425e-09
 -2.41198378e-06  2.66162773e-06  3.02479073e-07  2.49072006e-07  1.56768088e-06
  1.26238963e-08 -4.40881974e-07  3.89756388e-06 -2.82372020e-08 -4.47959259e-09
 -9.10557720e-07 -3.59602052e-05 -5.17273780e-06 -1.18732938e-05 -1.75815007e-05
 -1.76723678e-06 -2.33488282e-06 -2.64323961e-06 -1.36861479e-06 -1.95547441e-06
 -3.26908028e-07  8.25447716e-08 -3.40226902e-06  1.48289402e-06 -2.20371398e-07
 -6.36797030e-06  1.51722458e-06 -2.09662452e-06  6.43940646e-07  2.28214086e-05
 -2.93341320e-05  1.28015060e-07 -1.22271745e-06 -1.78883201e-06 -7.79783141e-08
 -8.03335913e-08  1.77896962e-06  2.00727297e-06  5.63469155e-01  4.66569019e-01
  1.22128715e-03  5.89066993e-04 -1.99826935e-05  4.03767790e-03 -9.10791621e-04
 -4.57526128e-04  1.68960612e-05 -1.35746671e-03  1.38341599e-04  5.04582058e-05
 -8.71611523e-07  1.86040325e-04  2.20736005e-05  1.62540660e-05 -2.00849737e-04
 -2.84941712e-04  3.30852334e-04  7.85298931e-05  2.78312345e-04  2.34248227e-05
  4.89001571e-05  1.02330820e-06  3.35955056e-04  6.74875500e-05  2.87351084e-04
  4.25622777e-05  6.85339495e-06  2.49933913e-05  3.34056568e-04  5.77438974e-05
  2.87865796e-04  3.79413837e-05  3.46963598e-06 -3.37981600e-05 -3.58192349e-06