
    -----------------------------------------------------------------------
          Psi4: An Open-Source Ab Initio Electronic Structure Package
                               Psi4 1.3.2 release

                         Git: Rev {HEAD} ecbda83 


    R. M. Parrish, L. A. Burns, D. G. A. Smith, A. C. Simmonett,
    A. E. DePrince III, E. G. Hohenstein, U. Bozkaya, A. Yu. Sokolov,
    R. Di Remigio, R. M. Richard, J. F. Gonthier, A. M. James,
    H. R. McAlexander, A. Kumar, M. Saitow, X. Wang, B. P. Pritchard,
    P. Verma, H. F. Schaefer III, K. Patkowski, R. A. King, E. F. Valeev,
    F. A. Evangelista, J. M. Turney, T. D. Crawford, and C. D. Sherrill,
    J. Chem. Theory Comput. 13(7) pp 3185--3197 (2017).
    (doi: 10.1021/acs.jctc.7b00174)


                         Additional Contributions by
    P. Kraus, H. Kruse, M. H. Lechner, M. C. Schieber, R. A. Shaw,
    A. Alenaizan, R. Galvelis, Z. L. Glick, S. Lehtola, and J. P. Misiewicz

    -----------------------------------------------------------------------


    Psi4 started on: Monday, 06 April 2020 02:33PM

    Process ID: 107480
    Host:       bme-nova.bme.utexas.edu
    PSIDATADIR: /home/bdw2292/miniconda3/envs/p4env/share/psi4
    Memory:     500.0 MiB
    Threads:    1
    
  ==> Input File <==

--------------------------------------------------------------------------
molecule { 
0 1
 P    0.510800    0.049700   -0.008500
 O   -0.905700    0.829100   -0.093600
 O    0.391800   -1.088600   -1.150800
 O    0.379400   -0.789100    1.367700
 O    1.724000    0.928200   -0.101900
 C   -2.100200    0.070800   -0.013000
 H   -2.950000    0.753700   -0.092900
 H   -2.158500   -0.448900    0.946600
 H   -2.151600   -0.648800   -0.833800
 H    1.169800   -1.655700   -1.338500
 H    1.158900   -1.284500    1.697800
}
set {
 geom_maxiter 400
}
memory 20GB
set_num_threads(4)
psi4_io.set_default_path("/scratch/bdw2292")
optimize('wb97x-d/6-31G*')
clean()
--------------------------------------------------------------------------

  Memory set to  18.626 GiB by Python driver.
  Threads set to 4 by Python driver.
gradient() will perform analytic gradient computation.

*** tstart() called on bme-nova.bme.utexas.edu
*** at Mon Apr  6 14:33:13 2020

   => Loading Basis Set <=

    Name: 6-31G*
    Role: ORBITAL
    Keyword: BASIS
    atoms 1    entry P          line   292 file /home/bdw2292/miniconda3/envs/p4env/share/psi4/basis/6-31gs.gbs 
    atoms 2-5  entry O          line   145 file /home/bdw2292/miniconda3/envs/p4env/share/psi4/basis/6-31gs.gbs 
    atoms 6    entry C          line   111 file /home/bdw2292/miniconda3/envs/p4env/share/psi4/basis/6-31gs.gbs 
    atoms 7-11 entry H          line    44 file /home/bdw2292/miniconda3/envs/p4env/share/psi4/basis/6-31gs.gbs 


         ---------------------------------------------------------
                                   SCF
               by Justin Turney, Rob Parrish, Andy Simmonett
                          and Daniel G. A. Smith
                              RKS Reference
                        4 Threads,  19073 MiB Core
         ---------------------------------------------------------

  ==> Geometry <==

    Molecular point group: c1
    Full point group: C1

    Geometry (in Angstrom), charge = 0, multiplicity = 1:

       Center              X                  Y                   Z               Mass       
    ------------   -----------------  -----------------  -----------------  -----------------
         P            0.411928008212     0.075118573205    -0.011225015726    30.973761998420
         O           -1.004571991788     0.854518573205    -0.096325015726    15.994914619570
         O            0.292928008212    -1.063181426795    -1.153525015726    15.994914619570
         O            0.280528008212    -0.763681426795     1.364974984274    15.994914619570
         O            1.625128008212     0.953618573205    -0.104625015726    15.994914619570
         C           -2.199071991788     0.096218573205    -0.015725015726    12.000000000000
         H           -3.048871991788     0.779118573205    -0.095625015726     1.007825032230
         H           -2.257371991788    -0.423481426795     0.943874984274     1.007825032230
         H           -2.250471991788    -0.623381426795    -0.836525015726     1.007825032230
         H            1.070928008212    -1.630281426795    -1.341225015726     1.007825032230
         H            1.060028008212    -1.259081426795     1.695074984274     1.007825032230

  Running in c1 symmetry.

  Rotational constants: A =      0.14400  B =      0.08264  C =      0.08200 [cm^-1]
  Rotational constants: A =   4317.03201  B =   2477.61454  C =   2458.24987 [MHz]
  Nuclear repulsion =  359.246727741828181

  Charge       = 0
  Multiplicity = 1
  Electrons    = 58
  Nalpha       = 29
  Nbeta        = 29

  ==> Algorithm <==

  SCF Algorithm Type is DF.
  DIIS enabled.
  MOM disabled.
  Fractional occupation disabled.
  Guess Type is SAD.
  Energy threshold   = 1.00e-08
  Density threshold  = 1.00e-08
  Integral threshold = 0.00e+00

  ==> Primary Basis <==

  Basis Set: 6-31G*
    Blend: 6-31G*
    Number of shells: 48
    Number of basis function: 104
    Number of Cartesian functions: 104
    Spherical Harmonics?: false
    Max angular momentum: 2

  ==> DFT Potential <==

   => Composite Functional: WB97X-D <= 

    wB97X-D Hyb-GGA Exchange-Correlation Functional

    J.-D. Chai and M. Head-Gordon, Phys. Chem. Chem. Phys. 10, 6615 (2008)

    Deriv               =              1
    GGA                 =           TRUE
    Meta                =          FALSE

    Exchange Hybrid     =           TRUE
    MP2 Hybrid          =          FALSE

   => Exchange-Correlation Functionals <=

    1.0000   wB97D range-separated functional

   => Exact (HF) Exchange <=

    0.7780            HF,LR [omega = 0.2000]
    0.2220               HF 

   => Molecular Quadrature <=

    Radial Scheme          =       TREUTLER
    Pruning Scheme         =           FLAT
    Nuclear Scheme         =       TREUTLER

    BS radius alpha        =              1
    Pruning alpha          =              1
    Radial Points          =             75
    Spherical Points       =            302
    Total Points           =         245858
    Total Blocks           =           1931
    Max Points             =            256
    Max Functions          =            101

   => WB97X-D: Empirical Dispersion <=

    Chai and Head-Gordon Dispersion Correction
    Chai, J.-D.; Head-Gordon, M. (2010), J. Chem. Phys., 132: 6615-6620

        s6 =       1.000000

   => Loading Basis Set <=

    Name: (6-31G* AUX)
    Role: JKFIT
    Keyword: DF_BASIS_SCF
    atoms 1    entry P          line   519 file /home/bdw2292/miniconda3/envs/p4env/share/psi4/basis/cc-pvdz-jkfit.gbs 
    atoms 2-5  entry O          line   221 file /home/bdw2292/miniconda3/envs/p4env/share/psi4/basis/cc-pvdz-jkfit.gbs 
    atoms 6    entry C          line   121 file /home/bdw2292/miniconda3/envs/p4env/share/psi4/basis/cc-pvdz-jkfit.gbs 
    atoms 7-11 entry H          line    51 file /home/bdw2292/miniconda3/envs/p4env/share/psi4/basis/cc-pvdz-jkfit.gbs 

  ==> Pre-Iterations <==

   -------------------------------------------------------
    Irrep   Nso     Nmo     Nalpha   Nbeta   Ndocc  Nsocc
   -------------------------------------------------------
     A        104     104       0       0       0       0
   -------------------------------------------------------
    Total     104     104      29      29      29       0
   -------------------------------------------------------

  ==> Integral Setup <==

  ==> DiskDFJK: Density-Fitted J/K Matrices <==

    J tasked:                  Yes
    K tasked:                  Yes
    wK tasked:                 Yes
    Omega:               2.000E-01
    OpenMP threads:              4
    Integrals threads:           4
    Memory [MiB]:            13742
    Algorithm:                Core
    Integral Cache:           NONE
    Schwarz Cutoff:          1E-12
    Fitting Condition:       1E-10

   => Auxiliary Basis Set <=

  Basis Set: (6-31G* AUX)
    Blend: CC-PVDZ-JKFIT
    Number of shells: 201
    Number of basis function: 660
    Number of Cartesian functions: 660
    Spherical Harmonics?: false
    Max angular momentum: 3

  Cached 100.0% of DFT collocation blocks in 0.550 [GiB].

  Minimum eigenvalue in the overlap matrix is 6.0613612937E-03.
  Using Symmetric Orthogonalization.

  SCF Guess: Superposition of Atomic Densities via on-the-fly atomic UHF.

  ==> Iterations <==

                           Total Energy        Delta E     RMS |[F,P]|

   @DF-RKS iter SAD:  -682.60241136936543   -6.82602e+02   0.00000e+00 
   @DF-RKS iter   1:  -682.94417072355282   -3.41759e-01   9.28532e-03 DIIS
   @DF-RKS iter   2:  -682.87773425031230    6.64365e-02   1.05217e-02 DIIS
   @DF-RKS iter   3:  -683.29716128272071   -4.19427e-01   1.38832e-03 DIIS
   @DF-RKS iter   4:  -683.30441334918407   -7.25207e-03   4.45475e-04 DIIS
   @DF-RKS iter   5:  -683.30518576419684   -7.72415e-04   8.97682e-05 DIIS
   @DF-RKS iter   6:  -683.30522491106422   -3.91469e-05   2.28804e-05 DIIS
   @DF-RKS iter   7:  -683.30522741361733   -2.50255e-06   8.13482e-06 DIIS
   @DF-RKS iter   8:  -683.30522770480206   -2.91185e-07   3.13893e-06 DIIS
   @DF-RKS iter   9:  -683.30522775478346   -4.99814e-08   8.23446e-07 DIIS
   @DF-RKS iter  10:  -683.30522775908742   -4.30396e-09   1.92055e-07 DIIS
   @DF-RKS iter  11:  -683.30522775942597   -3.38559e-10   3.49581e-08 DIIS
   @DF-RKS iter  12:  -683.30522775944689   -2.09184e-11   7.75038e-09 DIIS
  Energy and wave function converged.


  ==> Post-Iterations <==

    Orbital Energies [Eh]
    ---------------------

    Doubly Occupied:                                                      

       1A    -77.408490     2A    -19.318764     3A    -19.318103  
       4A    -19.317398     5A    -19.231833     6A    -10.356986  
       7A     -6.813440     8A     -4.963244     9A     -4.962996  
      10A     -4.960595    11A     -1.203211    12A     -1.145774  
      13A     -1.137204    14A     -1.048971    15A     -0.817527  
      16A     -0.737662    17A     -0.670724    18A     -0.613686  
      19A     -0.569944    20A     -0.552473    21A     -0.538759  
      22A     -0.499124    23A     -0.497688    24A     -0.443542  
      25A     -0.439195    26A     -0.435287    27A     -0.402186  
      28A     -0.376385    29A     -0.364211  

    Virtual:                                                              

      30A      0.100095    31A      0.147956    32A      0.173123  
      33A      0.198375    34A      0.209220    35A      0.235163  
      36A      0.238610    37A      0.267677    38A      0.277631  
      39A      0.280725    40A      0.410026    41A      0.422922  
      42A      0.437170    43A      0.476730    44A      0.595974  
      45A      0.635291    46A      0.666337    47A      0.675369  
      48A      0.759104    49A      0.866349    50A      0.871179  
      51A      0.904510    52A      0.934976    53A      0.936344  
      54A      0.976828    55A      0.984038    56A      0.993411  
      57A      1.029358    58A      1.070790    59A      1.075136  
      60A      1.087248    61A      1.097134    62A      1.126665  
      63A      1.179562    64A      1.205995    65A      1.235059  
      66A      1.254913    67A      1.287380    68A      1.332627  
      69A      1.389165    70A      1.421160    71A      1.537926  
      72A      1.569992    73A      1.590412    74A      1.662705  
      75A      1.752705    76A      1.778290    77A      1.806738  
      78A      1.822947    79A      1.859486    80A      1.911700  
      81A      1.915929    82A      1.965028    83A      2.044219  
      84A      2.107182    85A      2.137367    86A      2.189957  
      87A      2.205804    88A      2.253044    89A      2.276263  
      90A      2.434983    91A      2.453526    92A      2.457658  
      93A      2.522410    94A      2.560597    95A      2.721986  
      96A      2.754172    97A      2.846673    98A      2.947486  
      99A      3.586218   100A      3.780500   101A      3.830920  
     102A      3.973779   103A      4.065659   104A      4.331449  

    Final Occupation by Irrep:
              A 
    DOCC [    29 ]

  @DF-RKS Final Energy:  -683.30522775944689

   => Energetics <=

    Nuclear Repulsion Energy =            359.2467277418281810
    One-Electron Energy =               -1655.3312817255452956
    Two-Electron Energy =                 658.8602499434949777
    DFT Exchange-Correlation Energy =     -46.0774288676068693
    Empirical Dispersion Energy =          -0.0034948516178352
    VV10 Nonlocal Energy =                  0.0000000000000000
    Total Energy =                       -683.3052277594467796

Computation Completed


Properties will be evaluated at   0.000000,   0.000000,   0.000000 [a0]

Properties computed using the SCF density matrix

  Nuclear Dipole Moment: [e a0]
     X:    -5.4598      Y:    -3.0289      Z:     0.3531

  Electronic Dipole Moment: [e a0]
     X:     4.9870      Y:     1.2450      Z:    -0.1520

  Dipole Moment: [e a0]
     X:    -0.4728      Y:    -1.7839      Z:     0.2010     Total:     1.8564

  Dipole Moment: [D]
     X:    -1.2017      Y:    -4.5342      Z:     0.5110     Total:     4.7185


*** tstop() called on bme-nova.bme.utexas.edu at Mon Apr  6 14:33:21 2020
Module time:
	user time   =      27.00 seconds =       0.45 minutes
	system time =       1.57 seconds =       0.03 minutes
	total time  =          8 seconds =       0.13 minutes
Total time:
	user time   =      27.00 seconds =       0.45 minutes
	system time =       1.57 seconds =       0.03 minutes
	total time  =          8 seconds =       0.13 minutes

*** tstart() called on bme-nova.bme.utexas.edu
*** at Mon Apr  6 14:33:21 2020


         ------------------------------------------------------------
                                   SCF GRAD                          
                          Rob Parrish, Justin Turney,                
                       Andy Simmonett, and Alex Sokolov              
         ------------------------------------------------------------

  ==> Geometry <==

    Molecular point group: c1
    Full point group: C1

    Geometry (in Angstrom), charge = 0, multiplicity = 1:

       Center              X                  Y                   Z               Mass       
    ------------   -----------------  -----------------  -----------------  -----------------
         P            0.411928008212     0.075118573205    -0.011225015726    30.973761998420
         O           -1.004571991788     0.854518573205    -0.096325015726    15.994914619570
         O            0.292928008212    -1.063181426795    -1.153525015726    15.994914619570
         O            0.280528008212    -0.763681426795     1.364974984274    15.994914619570
         O            1.625128008212     0.953618573205    -0.104625015726    15.994914619570
         C           -2.199071991788     0.096218573205    -0.015725015726    12.000000000000
         H           -3.048871991788     0.779118573205    -0.095625015726     1.007825032230
         H           -2.257371991788    -0.423481426795     0.943874984274     1.007825032230
         H           -2.250471991788    -0.623381426795    -0.836525015726     1.007825032230
         H            1.070928008212    -1.630281426795    -1.341225015726     1.007825032230
         H            1.060028008212    -1.259081426795     1.695074984274     1.007825032230

  Nuclear repulsion =  359.246727741828181

  ==> Basis Set <==

  Basis Set: 6-31G*
    Blend: 6-31G*
    Number of shells: 48
    Number of basis function: 104
    Number of Cartesian functions: 104
    Spherical Harmonics?: false
    Max angular momentum: 2

  ==> DFJKGrad: Density-Fitted SCF Gradients <==

    Gradient:                    1
    J tasked:                  Yes
    K tasked:                  Yes
    wK tasked:                 Yes
    Omega:               2.000E-01
    OpenMP threads:              4
    Integrals threads:           4
    Memory [MiB]:            14305
    Schwarz Cutoff:          0E+00
    Fitting Condition:       1E-10

   => Auxiliary Basis Set <=

  Basis Set: (6-31G* AUX)
    Blend: CC-PVDZ-JKFIT
    Number of shells: 201
    Number of basis function: 660
    Number of Cartesian functions: 660
    Spherical Harmonics?: false
    Max angular momentum: 3

  ==> DFT Potential <==

   => Composite Functional: WB97X-D <= 

    wB97X-D Hyb-GGA Exchange-Correlation Functional

    J.-D. Chai and M. Head-Gordon, Phys. Chem. Chem. Phys. 10, 6615 (2008)

    Deriv               =              1
    GGA                 =           TRUE
    Meta                =          FALSE

    Exchange Hybrid     =           TRUE
    MP2 Hybrid          =          FALSE

   => Exchange-Correlation Functionals <=

    1.0000   wB97D range-separated functional

   => Exact (HF) Exchange <=

    0.7780            HF,LR [omega = 0.2000]
    0.2220               HF 

   => Molecular Quadrature <=

    Radial Scheme          =       TREUTLER
    Pruning Scheme         =           FLAT
    Nuclear Scheme         =       TREUTLER

    BS radius alpha        =              1
    Pruning alpha          =              1
    Radial Points          =             75
    Spherical Points       =            302
    Total Points           =         245858
    Total Blocks           =           1931
    Max Points             =            256
    Max Functions          =            101


  -Total Gradient:
     Atom            X                  Y                   Z
    ------   -----------------  -----------------  -----------------
       1       -0.036775033526    -0.025681928401     0.000633603632
       2       -0.027385684752     0.014047756128    -0.000392741405
       3        0.001804343340     0.005875680785     0.006209203744
       4        0.001049213041     0.005410055795    -0.007673309472
       5        0.033724447728     0.023409664662    -0.001846456438
       6        0.011516966350     0.006124381696    -0.000710787890
       7       -0.004127014781    -0.002686563312     0.000224650788
       8        0.000068418383     0.001125600358    -0.000195324570
       9        0.000224783563     0.001202329194    -0.000028522528
      10        0.009266503341    -0.016073892182    -0.007284420116
      11        0.009257030165    -0.013711456947     0.010991132992


*** tstop() called on bme-nova.bme.utexas.edu at Mon Apr  6 14:33:24 2020
Module time:
	user time   =       9.57 seconds =       0.16 minutes
	system time =       1.12 seconds =       0.02 minutes
	total time  =          3 seconds =       0.05 minutes
Total time:
	user time   =      36.58 seconds =       0.61 minutes
	system time =       2.69 seconds =       0.04 minutes
	total time  =         11 seconds =       0.18 minutes

			-----------------------------------------
			 OPTKING 2.0: for geometry optimizations 
			  - R.A. King,  Bethel University        
			-----------------------------------------

	Internal coordinates to be generated automatically.
	Detected frag 1 with atoms:  1 2 3 4 5 6 7 8 9 10 11
	---Fragment 1 Bond Connectivity---
	 1 : 2 3 4 5
	 2 : 1 6
	 3 : 1 10
	 4 : 1 11
	 5 : 1
	 6 : 2 7 8 9
	 7 : 6
	 8 : 6
	 9 : 6
	 10 : 3
	 11 : 4

	---Fragment 1 Geometry and Gradient---
	 P           0.7784311189        0.1419535303       -0.0212122055
	 O          -1.8983659378        1.6148060725       -0.1820278988
	 O           0.5535537100       -2.0091217183       -2.1798463586
	 O           0.5301211060       -1.4431487437        2.5794288884
	 O           3.0710468543        1.8020779315       -0.1977126256
	 C          -4.1556437946        0.1818267515       -0.0297159730
	 H          -5.7615330561        1.4723207226       -0.1807050905
	 H          -4.2658148278       -0.8002639159        1.7836652169
	 H          -4.2527757175       -1.1780201683       -1.5808031768
	 H           2.0237606356       -3.0807854041       -2.5345479523
	 H           2.0031626208       -2.3793190663        3.2032274824
	            -0.0367750335       -0.0256819284        0.0006336036
	            -0.0273856848        0.0140477561       -0.0003927414
	             0.0018043433        0.0058756808        0.0062092037
	             0.0010492130        0.0054100558       -0.0076733095
	             0.0337244477        0.0234096647       -0.0018464564
	             0.0115169664        0.0061243817       -0.0007107879
	            -0.0041270148       -0.0026865633        0.0002246508
	             0.0000684184        0.0011256004       -0.0001953246
	             0.0002247836        0.0012023292       -0.0000285225
	             0.0092665033       -0.0160738922       -0.0072844201
	             0.0092570302       -0.0137114569        0.0109911330

	Previous optimization step data not found.  Starting new optimization.

	---Fragment 1 Intrafragment Coordinates---
	 - Coordinate -           - BOHR/RAD -       - ANG/DEG -
	 R(1,2)           =         3.059477	       1.619005
	 R(1,3)           =         3.055715	       1.617015
	 R(1,4)           =         3.055739	       1.617027
	 R(1,5)           =         2.836063	       1.500780
	 R(2,6)           =         2.678046	       1.417161
	 R(3,10)          =         1.853587	       0.980876
	 R(4,11)          =         1.853481	       0.980820
	 R(6,7)           =         2.065685	       1.093113
	 R(6,8)           =         2.065185	       1.092849
	 R(6,9)           =         2.065064	       1.092785
	 B(1,2,6)         =         2.067889	     118.481309
	 B(1,3,10)        =         2.075793	     118.934161
	 B(1,4,11)        =         2.075850	     118.937431
	 B(2,1,3)         =         1.810451	     103.731223
	 B(2,1,4)         =         1.796055	     102.906371
	 B(2,1,5)         =         2.006666	     114.973493
	 B(2,6,7)         =         1.893179	     108.471177
	 B(2,6,8)         =         1.927686	     110.448281
	 B(2,6,9)         =         1.927599	     110.443294
	 B(3,1,4)         =         1.802951	     103.301494
	 B(3,1,5)         =         2.012625	     115.314928
	 B(4,1,5)         =         2.006777	     114.979850
	 B(7,6,8)         =         1.896311	     108.650641
	 B(7,6,9)         =         1.896438	     108.657922
	 B(8,6,9)         =         1.921832	     110.112860
	 D(1,2,6,7)       =        -3.136155	    -179.688431
	 D(1,2,6,8)       =         1.070570	      61.339162
	 D(1,2,6,9)       =        -1.059591	     -60.710085
	 D(2,1,3,10)      =         3.060787	     175.370157
	 D(2,1,4,11)      =        -3.034003	    -173.835581
	 D(3,1,2,6)       =         0.928161	      53.179712
	 D(3,1,4,11)      =         1.369070	      78.441911
	 D(4,1,2,6)       =        -0.946254	     -54.216352
	 D(4,1,3,10)      =        -1.353154	     -77.530031
	 D(5,1,2,6)       =        -3.141504	    -179.994901
	 D(5,1,3,10)      =         0.851016	      48.759637
	 D(5,1,4,11)      =        -0.838825	     -48.061142

	Current energy   :      -683.3052277594

	Generating empirical Hessian (Schlegel '84) for each fragment.
	Taking RFO optimization step.
	Going to follow RFO solution 1.
	Using RFO vector 1.
	Norm of target step-size    0.24000
	Projected energy change by RFO approximation:        -0.0160997354

	Back-transformation to cartesian coordinates...
	Could not converge backtransformation.
	Using first guess instead.

	--- Internal Coordinate Step in ANG or DEG, aJ/ANG or AJ/DEG ---
	 ---------------------------------------------------------------------------
	   Coordinate                Previous        Force       Change         New 
	   ----------                --------       ------       ------       ------
	    1 R(1,2)          =      1.619005    -0.218243    -0.028604     1.590402
	    2 R(1,3)          =      1.617015    -0.057474    -0.005027     1.611988
	    3 R(1,4)          =      1.617027    -0.050927    -0.004822     1.612205
	    4 R(1,5)          =      1.500780    -0.339705    -0.028102     1.472678
	    5 R(2,6)          =      1.417161     0.083997     0.012559     1.429720
	    6 R(3,10)         =      0.980876    -0.148913    -0.016923     0.963953
	    7 R(4,11)         =      0.980820    -0.148701    -0.016760     0.964060
	    8 R(6,7)          =      1.093113    -0.012097     0.000181     1.093295
	    9 R(6,8)          =      1.092849     0.006097     0.001499     1.094348
	   10 R(6,9)          =      1.092785     0.007058     0.001634     1.094419
	   11 B(1,2,6)        =    118.481309     0.000589     1.692138   120.173447
	   12 B(1,3,10)       =    118.934161    -0.001122    -4.957916   113.976245
	   13 B(1,4,11)       =    118.937431    -0.001116    -4.937134   114.000297
	   14 B(2,1,3)        =    103.731223    -0.000831    -3.651162   100.080061
	   15 B(2,1,4)        =    102.906371    -0.000630    -2.745434   100.160937
	   16 B(2,1,5)        =    114.973493     0.000325     0.552105   115.525597
	   17 B(2,6,7)        =    108.471177    -0.000559    -2.570866   105.900310
	   18 B(2,6,8)        =    110.448281     0.000139     0.677285   111.125566
	   19 B(2,6,9)        =    110.443294     0.000159     0.764368   111.207662
	   20 B(3,1,4)        =    103.301494     0.000705     2.522028   105.823522
	   21 B(3,1,5)        =    115.314928     0.000141     1.060468   116.375395
	   22 B(4,1,5)        =    114.979850     0.000172     1.471980   116.451830
	   23 B(7,6,8)        =    108.650641     0.000158     0.593983   109.244624
	   24 B(7,6,9)        =    108.657922     0.000154     0.598614   109.256536
	   25 B(8,6,9)        =    110.112860    -0.000058    -0.114844   109.998016
	   26 D(1,2,6,7)      =   -179.688431    -0.000001    -0.212236  -179.900667
	   27 D(1,2,6,8)      =     61.339162     0.000014     0.239719    61.578881
	   28 D(1,2,6,9)      =    -60.710085    -0.000015    -0.611936   -61.322021
	   29 D(2,1,3,10)     =    175.370157     0.000021    -2.071167   173.298990
	   30 D(2,1,4,11)     =   -173.835581    -0.000047     1.540780  -172.294801
	   31 D(3,1,2,6)      =     53.179712     0.000041     0.672160    53.851872
	   32 D(3,1,4,11)     =     78.441911     0.000154     5.635631    84.077542
	   33 D(4,1,2,6)      =    -54.216352    -0.000025    -0.185377   -54.401729
	   34 D(4,1,3,10)     =    -77.530031    -0.000143    -5.483912   -83.013943
	   35 D(5,1,2,6)      =   -179.994901    -0.000015    -0.356626  -180.351527
	   36 D(5,1,3,10)     =     48.759637     0.000051    -0.677589    48.082048
	   37 D(5,1,4,11)     =    -48.061142    -0.000035     1.086253   -46.974888
	 ---------------------------------------------------------------------------
	Successfully symmetrized geometry.

  ==> Convergence Check <==

  Measures of convergence in internal coordinates in au.
  Criteria marked as inactive (o), active & met (*), and active & unmet ( ).
  --------------------------------------------------------------------------------------------- ~
   Step     Total Energy     Delta E     MAX Force     RMS Force      MAX Disp      RMS Disp    ~
  --------------------------------------------------------------------------------------------- ~
    Convergence Criteria    1.00e-06 *    3.00e-04 *             o    1.20e-03 *             o  ~
  --------------------------------------------------------------------------------------------- ~
      1    -683.30522776   -6.83e+02      4.12e-02      1.08e-02 o    9.84e-02      3.96e-02 o  ~
  ---------------------------------------------------------------------------------------------

	Writing optimization data to binary file.
	Structure for next step:
	Cartesian Geometry (in Angstrom)
	    P     0.4383706050   0.0523437115  -0.0024651191
	    O    -0.9597099110   0.8050695516  -0.0927525957
	    O     0.2454147015  -1.0422062492  -1.1700408114
	    O     0.2427593807  -0.7455113971   1.3847512102
	    O     1.6297108612   0.9123028323  -0.1022622873
	    C    -2.1805802618   0.0651424115  -0.0147559905
	    H    -2.9835074075   0.8019464085  -0.1026240149
	    H    -2.2682521191  -0.4510121499   0.9462308573
	    H    -2.2601714536  -0.6549842664  -0.8350218961
	    H     1.0379845182  -1.5573434824  -1.3589098617
	    H     1.0390892002  -1.1902430533   1.6969753348
			--------------------------
			 OPTKING Finished Execution 
			--------------------------

    Structure for next step:
    Molecular point group: c1
    Full point group: C1

    Geometry (in Angstrom), charge = 0, multiplicity = 1:

    P            0.434276144790     0.068395597659    -0.006134695197
    O           -0.963804376626     0.821121440676    -0.096422172110
    O            0.241320240583    -1.026154367317    -1.173710392107
    O            0.238664919798    -0.729459514099     1.381081639596
    O            1.625616405741     0.928354721888    -0.105931863807
    C           -2.184674732223     0.081194297738    -0.018425566663
    H           -2.987601881077     0.817998297608    -0.106293591372
    H           -2.272346589913    -0.434960265713     0.942561284917
    H           -2.264265924419    -0.638932383043    -0.838691475457
    H            1.033890060378    -1.541291602594    -1.362579443174
    H            1.034994742424    -1.174191171982     1.693305765335

gradient() will perform analytic gradient computation.

*** tstart() called on bme-nova.bme.utexas.edu
*** at Mon Apr  6 14:33:24 2020

   => Loading Basis Set <=

    Name: 6-31G*
    Role: ORBITAL
    Keyword: BASIS
    atoms 1    entry P          line   292 file /home/bdw2292/miniconda3/envs/p4env/share/psi4/basis/6-31gs.gbs 
    atoms 2-5  entry O          line   145 file /home/bdw2292/miniconda3/envs/p4env/share/psi4/basis/6-31gs.gbs 
    atoms 6    entry C          line   111 file /home/bdw2292/miniconda3/envs/p4env/share/psi4/basis/6-31gs.gbs 
    atoms 7-11 entry H          line    44 file /home/bdw2292/miniconda3/envs/p4env/share/psi4/basis/6-31gs.gbs 


         ---------------------------------------------------------
                                   SCF
               by Justin Turney, Rob Parrish, Andy Simmonett
                          and Daniel G. A. Smith
                              RKS Reference
                        4 Threads,  19073 MiB Core
         ---------------------------------------------------------

  ==> Geometry <==

    Molecular point group: c1
    Full point group: C1

    Geometry (in Angstrom), charge = 0, multiplicity = 1:

       Center              X                  Y                   Z               Mass       
    ------------   -----------------  -----------------  -----------------  -----------------
         P            0.434276144790     0.068395597659    -0.006134695197    30.973761998420
         O           -0.963804376626     0.821121440676    -0.096422172110    15.994914619570
         O            0.241320240583    -1.026154367317    -1.173710392107    15.994914619570
         O            0.238664919798    -0.729459514099     1.381081639596    15.994914619570
         O            1.625616405741     0.928354721888    -0.105931863807    15.994914619570
         C           -2.184674732223     0.081194297738    -0.018425566663    12.000000000000
         H           -2.987601881077     0.817998297608    -0.106293591372     1.007825032230
         H           -2.272346589913    -0.434960265713     0.942561284917     1.007825032230
         H           -2.264265924419    -0.638932383043    -0.838691475457     1.007825032230
         H            1.033890060378    -1.541291602594    -1.362579443174     1.007825032230
         H            1.034994742424    -1.174191171982     1.693305765335     1.007825032230

  Running in c1 symmetry.

  Rotational constants: A =      0.14729  B =      0.08481  C =      0.08308 [cm^-1]
  Rotational constants: A =   4415.56993  B =   2542.51861  C =   2490.64085 [MHz]
  Nuclear repulsion =  362.774852368925053

  Charge       = 0
  Multiplicity = 1
  Electrons    = 58
  Nalpha       = 29
  Nbeta        = 29

  ==> Algorithm <==

  SCF Algorithm Type is DF.
  DIIS enabled.
  MOM disabled.
  Fractional occupation disabled.
  Guess Type is READ.
  Energy threshold   = 1.00e-08
  Density threshold  = 1.00e-08
  Integral threshold = 0.00e+00

  ==> Primary Basis <==

  Basis Set: 6-31G*
    Blend: 6-31G*
    Number of shells: 48
    Number of basis function: 104
    Number of Cartesian functions: 104
    Spherical Harmonics?: false
    Max angular momentum: 2

  ==> DFT Potential <==

   => Composite Functional: WB97X-D <= 

    wB97X-D Hyb-GGA Exchange-Correlation Functional

    J.-D. Chai and M. Head-Gordon, Phys. Chem. Chem. Phys. 10, 6615 (2008)

    Deriv               =              1
    GGA                 =           TRUE
    Meta                =          FALSE

    Exchange Hybrid     =           TRUE
    MP2 Hybrid          =          FALSE

   => Exchange-Correlation Functionals <=

    1.0000   wB97D range-separated functional

   => Exact (HF) Exchange <=

    0.7780            HF,LR [omega = 0.2000]
    0.2220               HF 

   => Molecular Quadrature <=

    Radial Scheme          =       TREUTLER
    Pruning Scheme         =           FLAT
    Nuclear Scheme         =       TREUTLER

    BS radius alpha        =              1
    Pruning alpha          =              1
    Radial Points          =             75
    Spherical Points       =            302
    Total Points           =         245840
    Total Blocks           =           1917
    Max Points             =            256
    Max Functions          =            101

   => WB97X-D: Empirical Dispersion <=

    Chai and Head-Gordon Dispersion Correction
    Chai, J.-D.; Head-Gordon, M. (2010), J. Chem. Phys., 132: 6615-6620

        s6 =       1.000000

   => Loading Basis Set <=

    Name: (6-31G* AUX)
    Role: JKFIT
    Keyword: DF_BASIS_SCF
    atoms 1    entry P          line   519 file /home/bdw2292/miniconda3/envs/p4env/share/psi4/basis/cc-pvdz-jkfit.gbs 
    atoms 2-5  entry O          line   221 file /home/bdw2292/miniconda3/envs/p4env/share/psi4/basis/cc-pvdz-jkfit.gbs 
    atoms 6    entry C          line   121 file /home/bdw2292/miniconda3/envs/p4env/share/psi4/basis/cc-pvdz-jkfit.gbs 
    atoms 7-11 entry H          line    51 file /home/bdw2292/miniconda3/envs/p4env/share/psi4/basis/cc-pvdz-jkfit.gbs 

   => Loading Basis Set <=

    Name: 6-31G*
    Role: ORBITAL
    Keyword: BASIS
    atoms 1    entry P          line   292 file /home/bdw2292/miniconda3/envs/p4env/share/psi4/basis/6-31gs.gbs 
    atoms 2-5  entry O          line   145 file /home/bdw2292/miniconda3/envs/p4env/share/psi4/basis/6-31gs.gbs 
    atoms 6    entry C          line   111 file /home/bdw2292/miniconda3/envs/p4env/share/psi4/basis/6-31gs.gbs 
    atoms 7-11 entry H          line    44 file /home/bdw2292/miniconda3/envs/p4env/share/psi4/basis/6-31gs.gbs 

  Reading orbitals from file 180, no projection.

  ==> Pre-Iterations <==

   -------------------------------------------------------
    Irrep   Nso     Nmo     Nalpha   Nbeta   Ndocc  Nsocc
   -------------------------------------------------------
     A        104     104       0       0       0       0
   -------------------------------------------------------
    Total     104     104      29      29      29       0
   -------------------------------------------------------

  ==> Integral Setup <==

  ==> DiskDFJK: Density-Fitted J/K Matrices <==

    J tasked:                  Yes
    K tasked:                  Yes
    wK tasked:                 Yes
    Omega:               2.000E-01
    OpenMP threads:              4
    Integrals threads:           4
    Memory [MiB]:            13734
    Algorithm:                Core
    Integral Cache:           NONE
    Schwarz Cutoff:          1E-12
    Fitting Condition:       1E-10

   => Auxiliary Basis Set <=

  Basis Set: (6-31G* AUX)
    Blend: CC-PVDZ-JKFIT
    Number of shells: 201
    Number of basis function: 660
    Number of Cartesian functions: 660
    Spherical Harmonics?: false
    Max angular momentum: 3

  Cached 100.0% of DFT collocation blocks in 0.557 [GiB].

  Minimum eigenvalue in the overlap matrix is 6.0913652425E-03.
  Using Symmetric Orthogonalization.

  SCF Guess: Orbitals guess was supplied from a previous computation.

  ==> Iterations <==

                           Total Energy        Delta E     RMS |[F,P]|

   @DF-RKS iter   0:  -683.36187602054076   -6.83362e+02   1.69915e-03 
   @DF-RKS iter   1:  -683.31050307611667    5.13729e-02   3.25332e-04 DIIS
   @DF-RKS iter   2:  -683.31076181935521   -2.58743e-04   2.93971e-04 DIIS
   @DF-RKS iter   3:  -683.31109122780276   -3.29408e-04   6.03248e-05 DIIS
   @DF-RKS iter   4:  -683.31110760076479   -1.63730e-05   2.06356e-05 DIIS
   @DF-RKS iter   5:  -683.31111006949459   -2.46873e-06   9.28051e-06 DIIS
   @DF-RKS iter   6:  -683.31111045059561   -3.81101e-07   2.66890e-06 DIIS
   @DF-RKS iter   7:  -683.31111049013509   -3.95395e-08   5.96149e-07 DIIS
   @DF-RKS iter   8:  -683.31111049280537   -2.67028e-09   1.73520e-07 DIIS
   @DF-RKS iter   9:  -683.31111049306890   -2.63526e-10   3.26201e-08 DIIS
   @DF-RKS iter  10:  -683.31111049308367   -1.47793e-11   8.66876e-09 DIIS
  Energy and wave function converged.


  ==> Post-Iterations <==

    Orbital Energies [Eh]
    ---------------------

    Doubly Occupied:                                                      

       1A    -77.399570     2A    -19.319503     3A    -19.319315  
       4A    -19.307366     5A    -19.236941     6A    -10.356056  
       7A     -6.807194     8A     -4.956885     9A     -4.956562  
      10A     -4.954283    11A     -1.210052    12A     -1.146869  
      13A     -1.141746    14A     -1.064111    15A     -0.817634  
      16A     -0.732530    17A     -0.670250    18A     -0.608928  
      19A     -0.573980    20A     -0.546569    21A     -0.539032  
      22A     -0.510461    23A     -0.498253    24A     -0.451155  
      25A     -0.441200    26A     -0.434539    27A     -0.398984  
      28A     -0.388281    29A     -0.374277  

    Virtual:                                                              

      30A      0.107567    31A      0.159926    32A      0.177487  
      33A      0.195144    34A      0.210140    35A      0.237922  
      36A      0.241627    37A      0.280443    38A      0.285189  
      39A      0.286890    40A      0.415779    41A      0.426001  
      42A      0.441618    43A      0.477744    44A      0.597236  
      45A      0.642621    46A      0.663368    47A      0.672267  
      48A      0.762650    49A      0.862054    50A      0.864840  
      51A      0.907755    52A      0.931674    53A      0.933572  
      54A      0.982904    55A      0.998308    56A      1.015069  
      57A      1.028547    58A      1.070599    59A      1.074212  
      60A      1.092839    61A      1.101599    62A      1.124636  
      63A      1.165894    64A      1.215916    65A      1.235274  
      66A      1.274002    67A      1.277363    68A      1.323171  
      69A      1.416822    70A      1.441918    71A      1.530822  
      72A      1.581008    73A      1.597865    74A      1.654706  
      75A      1.755649    76A      1.776246    77A      1.818600  
      78A      1.822679    79A      1.845897    80A      1.907040  
      81A      1.909988    82A      1.970363    83A      2.071005  
      84A      2.094602    85A      2.131046    86A      2.202095  
      87A      2.219233    88A      2.281937    89A      2.286655  
      90A      2.427722    91A      2.458303    92A      2.460796  
      93A      2.516399    94A      2.592447    95A      2.735632  
      96A      2.795117    97A      2.849614    98A      2.962902  
      99A      3.577408   100A      3.793300   101A      3.820715  
     102A      3.981314   103A      4.077337   104A      4.336690  

    Final Occupation by Irrep:
              A 
    DOCC [    29 ]

  @DF-RKS Final Energy:  -683.31111049308367

   => Energetics <=

    Nuclear Repulsion Energy =            362.7748523689250533
    One-Electron Energy =               -1662.3390384516085305
    Two-Electron Energy =                 662.3730468608243882
    DFT Exchange-Correlation Energy =     -46.1164614690394359
    Empirical Dispersion Energy =          -0.0035098021850589
    VV10 Nonlocal Energy =                  0.0000000000000000
    Total Energy =                       -683.3111104930836746

Computation Completed


Properties will be evaluated at   0.000000,   0.000000,   0.000000 [a0]

Properties computed using the SCF density matrix

  Nuclear Dipole Moment: [e a0]
     X:    -5.5083      Y:    -2.8485      Z:     0.3134

  Electronic Dipole Moment: [e a0]
     X:     5.1242      Y:     1.1658      Z:    -0.1130

  Dipole Moment: [e a0]
     X:    -0.3841      Y:    -1.6827      Z:     0.2004     Total:     1.7376

  Dipole Moment: [D]
     X:    -0.9762      Y:    -4.2771      Z:     0.5094     Total:     4.4166


*** tstop() called on bme-nova.bme.utexas.edu at Mon Apr  6 14:33:29 2020
Module time:
	user time   =      21.10 seconds =       0.35 minutes
	system time =       0.43 seconds =       0.01 minutes
	total time  =          5 seconds =       0.08 minutes
Total time:
	user time   =      57.78 seconds =       0.96 minutes
	system time =       3.12 seconds =       0.05 minutes
	total time  =         16 seconds =       0.27 minutes

*** tstart() called on bme-nova.bme.utexas.edu
*** at Mon Apr  6 14:33:29 2020


         ------------------------------------------------------------
                                   SCF GRAD                          
                          Rob Parrish, Justin Turney,                
                       Andy Simmonett, and Alex Sokolov              
         ------------------------------------------------------------

  ==> Geometry <==

    Molecular point group: c1
    Full point group: C1

    Geometry (in Angstrom), charge = 0, multiplicity = 1:

       Center              X                  Y                   Z               Mass       
    ------------   -----------------  -----------------  -----------------  -----------------
         P            0.434276144790     0.068395597659    -0.006134695197    30.973761998420
         O           -0.963804376626     0.821121440676    -0.096422172110    15.994914619570
         O            0.241320240583    -1.026154367317    -1.173710392107    15.994914619570
         O            0.238664919798    -0.729459514099     1.381081639596    15.994914619570
         O            1.625616405741     0.928354721888    -0.105931863807    15.994914619570
         C           -2.184674732223     0.081194297738    -0.018425566663    12.000000000000
         H           -2.987601881077     0.817998297608    -0.106293591372     1.007825032230
         H           -2.272346589913    -0.434960265713     0.942561284917     1.007825032230
         H           -2.264265924419    -0.638932383043    -0.838691475457     1.007825032230
         H            1.033890060378    -1.541291602594    -1.362579443174     1.007825032230
         H            1.034994742424    -1.174191171982     1.693305765335     1.007825032230

  Nuclear repulsion =  362.774852368925053

  ==> Basis Set <==

  Basis Set: 6-31G*
    Blend: 6-31G*
    Number of shells: 48
    Number of basis function: 104
    Number of Cartesian functions: 104
    Spherical Harmonics?: false
    Max angular momentum: 2

  ==> DFJKGrad: Density-Fitted SCF Gradients <==

    Gradient:                    1
    J tasked:                  Yes
    K tasked:                  Yes
    wK tasked:                 Yes
    Omega:               2.000E-01
    OpenMP threads:              4
    Integrals threads:           4
    Memory [MiB]:            14305
    Schwarz Cutoff:          0E+00
    Fitting Condition:       1E-10

   => Auxiliary Basis Set <=

  Basis Set: (6-31G* AUX)
    Blend: CC-PVDZ-JKFIT
    Number of shells: 201
    Number of basis function: 660
    Number of Cartesian functions: 660
    Spherical Harmonics?: false
    Max angular momentum: 3

  ==> DFT Potential <==

   => Composite Functional: WB97X-D <= 

    wB97X-D Hyb-GGA Exchange-Correlation Functional

    J.-D. Chai and M. Head-Gordon, Phys. Chem. Chem. Phys. 10, 6615 (2008)

    Deriv               =              1
    GGA                 =           TRUE
    Meta                =          FALSE

    Exchange Hybrid     =           TRUE
    MP2 Hybrid          =          FALSE

   => Exchange-Correlation Functionals <=

    1.0000   wB97D range-separated functional

   => Exact (HF) Exchange <=

    0.7780            HF,LR [omega = 0.2000]
    0.2220               HF 

   => Molecular Quadrature <=

    Radial Scheme          =       TREUTLER
    Pruning Scheme         =           FLAT
    Nuclear Scheme         =       TREUTLER

    BS radius alpha        =              1
    Pruning alpha          =              1
    Radial Points          =             75
    Spherical Points       =            302
    Total Points           =         245840
    Total Blocks           =           1917
    Max Points             =            256
    Max Functions          =            101


  -Total Gradient:
     Atom            X                  Y                   Z
    ------   -----------------  -----------------  -----------------
       1        0.003450593654    -0.014985300880     0.001942158113
       2       -0.003850177384     0.003918071180    -0.000392131034
       3       -0.000315542443     0.004270686290    -0.000431669716
       4       -0.000433503650     0.004154799969    -0.000485204523
       5        0.004018468855     0.008930598798    -0.001281187116
       6        0.005241448329    -0.003058717271     0.000270958999
       7       -0.001401615946     0.001110434884    -0.000128764296
       8       -0.001672781905    -0.000497239571     0.000478814277
       9       -0.001779902676    -0.000715508583    -0.000389453802
      10       -0.002242270361    -0.001731084797     0.001135347718
      11       -0.002172411021    -0.002089869394    -0.000638802979


*** tstop() called on bme-nova.bme.utexas.edu at Mon Apr  6 14:33:33 2020
Module time:
	user time   =       9.57 seconds =       0.16 minutes
	system time =       1.08 seconds =       0.02 minutes
	total time  =          4 seconds =       0.07 minutes
Total time:
	user time   =      67.35 seconds =       1.12 minutes
	system time =       4.20 seconds =       0.07 minutes
	total time  =         20 seconds =       0.33 minutes

			-----------------------------------------
			 OPTKING 2.0: for geometry optimizations 
			  - R.A. King,  Bethel University        
			-----------------------------------------

	Previous internal coordinate definitions found.
	---Fragment 1 Geometry and Gradient---
	 P           0.8206629765        0.1292489478       -0.0115928938
	 O          -1.8213263103        1.5516946386       -0.1822114977
	 O           0.4560291632       -1.9391507167       -2.2179911917
	 O           0.4510113342       -1.3784787013        2.6098660557
	 O           3.0719697919        1.7543361716       -0.2001822106
	 C          -4.1284369171        0.1534349857       -0.0348192747
	 H          -5.6457493271        1.5457927536       -0.2008657766
	 H          -4.2941127171       -0.8219557777        1.7811826850
	 H          -4.2788424724       -1.2074072166       -1.5848971924
	 H           1.9537690579       -2.9126190084       -2.5749019718
	 H           1.9558566045       -2.2188997340        3.1998841431
	             0.0034505937       -0.0149853009        0.0019421581
	            -0.0038501774        0.0039180712       -0.0003921310
	            -0.0003155424        0.0042706863       -0.0004316697
	            -0.0004335037        0.0041548000       -0.0004852045
	             0.0040184689        0.0089305988       -0.0012811871
	             0.0052414483       -0.0030587173        0.0002709590
	            -0.0014016159        0.0011104349       -0.0001287643
	            -0.0016727819       -0.0004972396        0.0004788143
	            -0.0017799027       -0.0007155086       -0.0003894538
	            -0.0022422704       -0.0017310848        0.0011353477
	            -0.0021724110       -0.0020898694       -0.0006388030

	---Fragment 1 Intrafragment Coordinates---
	 - Coordinate -           - BOHR/RAD -       - ANG/DEG -
	 R(1,2)           =         3.005423	       1.590402
	 R(1,3)           =         3.046215	       1.611988
	 R(1,4)           =         3.046626	       1.612205
	 R(1,5)           =         2.782958	       1.472678
	 R(2,6)           =         2.701780	       1.429720
	 R(3,10)          =         1.821607	       0.963953
	 R(4,11)          =         1.821809	       0.964060
	 R(6,7)           =         2.066027	       1.093295
	 R(6,8)           =         2.068018	       1.094348
	 R(6,9)           =         2.068153	       1.094419
	 B(1,2,6)         =         2.097422	     120.173447
	 B(1,3,10)        =         1.989261	     113.976245
	 B(1,4,11)        =         1.989681	     114.000297
	 B(2,1,3)         =         1.746727	     100.080061
	 B(2,1,4)         =         1.748138	     100.160937
	 B(2,1,5)         =         2.016302	     115.525597
	 B(2,6,7)         =         1.848309	     105.900310
	 B(2,6,8)         =         1.939507	     111.125566
	 B(2,6,9)         =         1.940940	     111.207662
	 B(3,1,4)         =         1.846969	     105.823522
	 B(3,1,5)         =         2.031134	     116.375395
	 B(4,1,5)         =         2.032468	     116.451830
	 B(7,6,8)         =         1.906678	     109.244624
	 B(7,6,9)         =         1.906886	     109.256536
	 B(8,6,9)         =         1.919828	     109.998016
	 D(1,2,6,7)       =        -3.139859	    -179.900667
	 D(1,2,6,8)       =         1.074754	      61.578881
	 D(1,2,6,9)       =        -1.070271	     -61.322021
	 D(2,1,3,10)      =         3.024638	     173.298990
	 D(2,1,4,11)      =        -3.007112	    -172.294801
	 D(3,1,2,6)       =         0.939892	      53.851872
	 D(3,1,4,11)      =         1.467430	      84.077542
	 D(4,1,2,6)       =        -0.949489	     -54.401729
	 D(4,1,3,10)      =        -1.448867	     -83.013943
	 D(5,1,2,6)       =         3.135457	     179.648473
	 D(5,1,3,10)      =         0.839190	      48.082048
	 D(5,1,4,11)      =        -0.819866	     -46.974888

	Current energy   :      -683.3111104931

	Energy change for the previous step:
		Projected    :        -0.0160997354
		Actual       :        -0.0058827336

	Performing BFGS update.
	Previous computed or guess Hessian on step 1.
	Steps to be used in Hessian update: 1
	Taking RFO optimization step.
	Going to follow RFO solution 1.
	Using RFO vector 1.
	Norm of target step-size    0.21102
	Projected energy change by RFO approximation:        -0.0052682523

	Back-transformation to cartesian coordinates...
	Could not converge backtransformation.
	Using first guess instead.

	--- Internal Coordinate Step in ANG or DEG, aJ/ANG or AJ/DEG ---
	 ---------------------------------------------------------------------------
	   Coordinate                Previous        Force       Change         New 
	   ----------                --------       ------       ------       ------
	    1 R(1,2)          =      1.590402    -0.025413    -0.007449     1.582952
	    2 R(1,3)          =      1.611988     0.016835     0.001784     1.613771
	    3 R(1,4)          =      1.612205     0.014686     0.001508     1.613713
	    4 R(1,5)          =      1.472678    -0.071491    -0.009720     1.462958
	    5 R(2,6)          =      1.429720    -0.007100     0.001115     1.430836
	    6 R(3,10)         =      0.963953     0.008940     0.001907     0.965859
	    7 R(4,11)         =      0.964060     0.008086     0.001965     0.966025
	    8 R(6,7)          =      1.093295    -0.014395    -0.002387     1.090908
	    9 R(6,8)          =      1.094348    -0.006181    -0.000938     1.093410
	   10 R(6,9)          =      1.094419    -0.007062    -0.001081     1.093339
	   11 B(1,2,6)        =    120.173447     0.000336     1.245035   121.418482
	   12 B(1,3,10)       =    113.976245    -0.000152    -1.464538   112.511707
	   13 B(1,4,11)       =    114.000297    -0.000166    -1.528127   112.472170
	   14 B(2,1,3)        =    100.080061     0.000273     0.996928   101.076989
	   15 B(2,1,4)        =    100.160937     0.000262     1.028679   101.189616
	   16 B(2,1,5)        =    115.525597     0.000116     0.971768   116.497365
	   17 B(2,6,7)        =    105.900310     0.000079     0.125937   106.026248
	   18 B(2,6,8)        =    111.125566    -0.000146    -0.652182   110.473384
	   19 B(2,6,9)        =    111.207662    -0.000165    -0.730862   110.476800
	   20 B(3,1,4)        =    105.823522    -0.000093    -0.260089   105.563432
	   21 B(3,1,5)        =    116.375395    -0.000207    -1.087333   115.288063
	   22 B(4,1,5)        =    116.451830    -0.000235    -1.205227   115.246603
	   23 B(7,6,8)        =    109.244624     0.000083     0.597052   109.841676
	   24 B(7,6,9)        =    109.256536     0.000085     0.590422   109.846959
	   25 B(8,6,9)        =    109.998016     0.000072     0.101273   110.099289
	   26 D(1,2,6,7)      =   -179.900667     0.000000    -0.153491  -180.054158
	   27 D(1,2,6,8)      =     61.578881    -0.000015    -0.593165    60.985716
	   28 D(1,2,6,9)      =    -61.322021     0.000014     0.236123   -61.085898
	   29 D(2,1,3,10)     =    173.298990    -0.000033    -4.468247   168.830743
	   30 D(2,1,4,11)     =   -172.294801     0.000036     4.535016  -167.759785
	   31 D(3,1,2,6)      =     53.851872     0.000003     0.220077    54.071949
	   32 D(3,1,4,11)     =     84.077542    -0.000046     3.187484    87.265027
	   33 D(4,1,2,6)      =    -54.401729    -0.000005    -0.033537   -54.435265
	   34 D(4,1,3,10)     =    -83.013943     0.000047    -3.097502   -86.111445
	   35 D(5,1,2,6)      =    179.648473     0.000004     0.153606   179.802079
	   36 D(5,1,3,10)     =     48.082048    -0.000085    -5.785502    42.296546
	   37 D(5,1,4,11)     =    -46.974888     0.000083     5.807252   -41.167636
	 ---------------------------------------------------------------------------
	Successfully symmetrized geometry.

  ==> Convergence Check <==

  Measures of convergence in internal coordinates in au.
  Criteria marked as inactive (o), active & met (*), and active & unmet ( ).
  ---------------------------------------------------------------------------------------------
   Step     Total Energy     Delta E     MAX Force     RMS Force      MAX Disp      RMS Disp   
  ---------------------------------------------------------------------------------------------
    Convergence Criteria    1.00e-06 *    3.00e-04 *             o    1.20e-03 *             o
  ---------------------------------------------------------------------------------------------
      2    -683.31111049   -5.88e-03      8.68e-03      2.63e-03 o    1.01e-01      3.44e-02 o  ~
  ---------------------------------------------------------------------------------------------

	Writing optimization data to binary file.
	Structure for next step:
	Cartesian Geometry (in Angstrom)
	    P     0.4188820402   0.0497994172  -0.0043696099
	    O    -0.9709912988   0.8019044649  -0.0956252519
	    O     0.2514253717  -1.0536451481  -1.1699708479
	    O     0.2481021426  -0.7565566852   1.3829641605
	    O     1.6186088777   0.8816343369  -0.0989903259
	    C    -2.2102777810   0.0908057792  -0.0194775544
	    H    -2.9951904987   0.8433114007  -0.1073806969
	    H    -2.2967334749  -0.4252460307   0.9406069375
	    H    -2.2905028442  -0.6268920093  -0.8403691612
	    H     1.0813992908  -1.5024888489  -1.3762886873
	    H     1.0813472080  -1.1305516148   1.6976605262
			--------------------------
			 OPTKING Finished Execution 
			--------------------------

    Structure for next step:
    Molecular point group: c1
    Full point group: C1

    Geometry (in Angstrom), charge = 0, multiplicity = 1:

    P            0.424798350176     0.069960799849    -0.006526576311
    O           -0.965074994352     0.822065850470    -0.097782218663
    O            0.257341680948    -1.033483769854    -1.172127818956
    O            0.254018451873    -0.736395305783     1.380807199481
    O            1.624525192324     0.901795722798    -0.101147292673
    C           -2.204361481391     0.110967162017    -0.021634520920
    H           -2.989274202170     0.863472786436    -0.109537663739
    H           -2.290817175681    -0.405084649987     0.938449974775
    H           -2.284586544877    -0.606730629312    -0.842526130943
    H            1.087315603321    -1.482327472401    -1.378445659152
    H            1.087263520504    -1.110390236838     1.695503566407

gradient() will perform analytic gradient computation.

*** tstart() called on bme-nova.bme.utexas.edu
*** at Mon Apr  6 14:33:33 2020

   => Loading Basis Set <=

    Name: 6-31G*
    Role: ORBITAL
    Keyword: BASIS
    atoms 1    entry P          line   292 file /home/bdw2292/miniconda3/envs/p4env/share/psi4/basis/6-31gs.gbs 
    atoms 2-5  entry O          line   145 file /home/bdw2292/miniconda3/envs/p4env/share/psi4/basis/6-31gs.gbs 
    atoms 6    entry C          line   111 file /home/bdw2292/miniconda3/envs/p4env/share/psi4/basis/6-31gs.gbs 
    atoms 7-11 entry H          line    44 file /home/bdw2292/miniconda3/envs/p4env/share/psi4/basis/6-31gs.gbs 


         ---------------------------------------------------------
                                   SCF
               by Justin Turney, Rob Parrish, Andy Simmonett
                          and Daniel G. A. Smith
                              RKS Reference
                        4 Threads,  19073 MiB Core
         ---------------------------------------------------------

  ==> Geometry <==

    Molecular point group: c1
    Full point group: C1

    Geometry (in Angstrom), charge = 0, multiplicity = 1:

       Center              X                  Y                   Z               Mass       
    ------------   -----------------  -----------------  -----------------  -----------------
         P            0.424798350176     0.069960799849    -0.006526576311    30.973761998420
         O           -0.965074994352     0.822065850470    -0.097782218663    15.994914619570
         O            0.257341680948    -1.033483769854    -1.172127818956    15.994914619570
         O            0.254018451873    -0.736395305783     1.380807199481    15.994914619570
         O            1.624525192324     0.901795722798    -0.101147292673    15.994914619570
         C           -2.204361481391     0.110967162017    -0.021634520920    12.000000000000
         H           -2.989274202170     0.863472786436    -0.109537663739     1.007825032230
         H           -2.290817175681    -0.405084649987     0.938449974775     1.007825032230
         H           -2.284586544877    -0.606730629312    -0.842526130943     1.007825032230
         H            1.087315603321    -1.482327472401    -1.378445659152     1.007825032230
         H            1.087263520504    -1.110390236838     1.695503566407     1.007825032230

  Running in c1 symmetry.

  Rotational constants: A =      0.14812  B =      0.08446  C =      0.08249 [cm^-1]
  Rotational constants: A =   4440.63987  B =   2531.95742  C =   2473.10177 [MHz]
  Nuclear repulsion =  362.916024051747002

  Charge       = 0
  Multiplicity = 1
  Electrons    = 58
  Nalpha       = 29
  Nbeta        = 29

  ==> Algorithm <==

  SCF Algorithm Type is DF.
  DIIS enabled.
  MOM disabled.
  Fractional occupation disabled.
  Guess Type is READ.
  Energy threshold   = 1.00e-08
  Density threshold  = 1.00e-08
  Integral threshold = 0.00e+00

  ==> Primary Basis <==

  Basis Set: 6-31G*
    Blend: 6-31G*
    Number of shells: 48
    Number of basis function: 104
    Number of Cartesian functions: 104
    Spherical Harmonics?: false
    Max angular momentum: 2

  ==> DFT Potential <==

   => Composite Functional: WB97X-D <= 

    wB97X-D Hyb-GGA Exchange-Correlation Functional

    J.-D. Chai and M. Head-Gordon, Phys. Chem. Chem. Phys. 10, 6615 (2008)

    Deriv               =              1
    GGA                 =           TRUE
    Meta                =          FALSE

    Exchange Hybrid     =           TRUE
    MP2 Hybrid          =          FALSE

   => Exchange-Correlation Functionals <=

    1.0000   wB97D range-separated functional

   => Exact (HF) Exchange <=

    0.7780            HF,LR [omega = 0.2000]
    0.2220               HF 

   => Molecular Quadrature <=

    Radial Scheme          =       TREUTLER
    Pruning Scheme         =           FLAT
    Nuclear Scheme         =       TREUTLER

    BS radius alpha        =              1
    Pruning alpha          =              1
    Radial Points          =             75
    Spherical Points       =            302
    Total Points           =         245829
    Total Blocks           =           1907
    Max Points             =            256
    Max Functions          =            101

   => WB97X-D: Empirical Dispersion <=

    Chai and Head-Gordon Dispersion Correction
    Chai, J.-D.; Head-Gordon, M. (2010), J. Chem. Phys., 132: 6615-6620

        s6 =       1.000000

   => Loading Basis Set <=

    Name: (6-31G* AUX)
    Role: JKFIT
    Keyword: DF_BASIS_SCF
    atoms 1    entry P          line   519 file /home/bdw2292/miniconda3/envs/p4env/share/psi4/basis/cc-pvdz-jkfit.gbs 
    atoms 2-5  entry O          line   221 file /home/bdw2292/miniconda3/envs/p4env/share/psi4/basis/cc-pvdz-jkfit.gbs 
    atoms 6    entry C          line   121 file /home/bdw2292/miniconda3/envs/p4env/share/psi4/basis/cc-pvdz-jkfit.gbs 
    atoms 7-11 entry H          line    51 file /home/bdw2292/miniconda3/envs/p4env/share/psi4/basis/cc-pvdz-jkfit.gbs 

   => Loading Basis Set <=

    Name: 6-31G*
    Role: ORBITAL
    Keyword: BASIS
    atoms 1    entry P          line   292 file /home/bdw2292/miniconda3/envs/p4env/share/psi4/basis/6-31gs.gbs 
    atoms 2-5  entry O          line   145 file /home/bdw2292/miniconda3/envs/p4env/share/psi4/basis/6-31gs.gbs 
    atoms 6    entry C          line   111 file /home/bdw2292/miniconda3/envs/p4env/share/psi4/basis/6-31gs.gbs 
    atoms 7-11 entry H          line    44 file /home/bdw2292/miniconda3/envs/p4env/share/psi4/basis/6-31gs.gbs 

  Reading orbitals from file 180, no projection.

  ==> Pre-Iterations <==

   -------------------------------------------------------
    Irrep   Nso     Nmo     Nalpha   Nbeta   Ndocc  Nsocc
   -------------------------------------------------------
     A        104     104       0       0       0       0
   -------------------------------------------------------
    Total     104     104      29      29      29       0
   -------------------------------------------------------

  ==> Integral Setup <==

  ==> DiskDFJK: Density-Fitted J/K Matrices <==

    J tasked:                  Yes
    K tasked:                  Yes
    wK tasked:                 Yes
    Omega:               2.000E-01
    OpenMP threads:              4
    Integrals threads:           4
    Memory [MiB]:            13736
    Algorithm:                Core
    Integral Cache:           NONE
    Schwarz Cutoff:          1E-12
    Fitting Condition:       1E-10

   => Auxiliary Basis Set <=

  Basis Set: (6-31G* AUX)
    Blend: CC-PVDZ-JKFIT
    Number of shells: 201
    Number of basis function: 660
    Number of Cartesian functions: 660
    Spherical Harmonics?: false
    Max angular momentum: 3

  Cached 100.0% of DFT collocation blocks in 0.555 [GiB].

  Minimum eigenvalue in the overlap matrix is 6.1593454675E-03.
  Using Symmetric Orthogonalization.

  SCF Guess: Orbitals guess was supplied from a previous computation.

  ==> Iterations <==

                           Total Energy        Delta E     RMS |[F,P]|

   @DF-RKS iter   0:  -683.31884609015481   -6.83319e+02   7.76656e-04 
   @DF-RKS iter   1:  -683.31229939129719    6.54670e-03   1.20773e-04 DIIS
   @DF-RKS iter   2:  -683.31240918870037   -1.09797e-04   8.10133e-05 DIIS
   @DF-RKS iter   3:  -683.31243513119705   -2.59425e-05   3.59312e-05 DIIS
   @DF-RKS iter   4:  -683.31244205284600   -6.92165e-06   9.89022e-06 DIIS
   @DF-RKS iter   5:  -683.31244252370198   -4.70856e-07   3.74084e-06 DIIS
   @DF-RKS iter   6:  -683.31244259629557   -7.25936e-08   1.02625e-06 DIIS
   @DF-RKS iter   7:  -683.31244260320943   -6.91387e-09   3.97520e-07 DIIS
   @DF-RKS iter   8:  -683.31244260407857   -8.69136e-10   1.18866e-07 DIIS
   @DF-RKS iter   9:  -683.31244260415087   -7.23048e-11   2.53328e-08 DIIS
   @DF-RKS iter  10:  -683.31244260415565   -4.77485e-12   7.10218e-09 DIIS
  Energy and wave function converged.


  ==> Post-Iterations <==

    Orbital Energies [Eh]
    ---------------------

    Doubly Occupied:                                                      

       1A    -77.397438     2A    -19.316844     3A    -19.316745  
       4A    -19.309990     5A    -19.235408     6A    -10.358837  
       7A     -6.805632     8A     -4.955290     9A     -4.954840  
      10A     -4.952809    11A     -1.209669    12A     -1.144070  
      13A     -1.143718    14A     -1.066575    15A     -0.821363  
      16A     -0.729349    17A     -0.664502    18A     -0.611418  
      19A     -0.573813    20A     -0.548561    21A     -0.541448  
      22A     -0.513371    23A     -0.495852    24A     -0.451878  
      25A     -0.439216    26A     -0.436460    27A     -0.400651  
      28A     -0.389813    29A     -0.374900  

    Virtual:                                                              

      30A      0.110962    31A      0.162780    32A      0.175435  
      33A      0.198508    34A      0.214891    35A      0.239092  
      36A      0.239529    37A      0.277907    38A      0.283724  
      39A      0.285839    40A      0.414081    41A      0.426442  
      42A      0.439596    43A      0.486382    44A      0.597219  
      45A      0.642852    46A      0.664871    47A      0.676206  
      48A      0.759517    49A      0.860836    50A      0.865233  
      51A      0.905851    52A      0.928913    53A      0.930445  
      54A      0.980570    55A      0.999389    56A      1.019396  
      57A      1.030769    58A      1.066808    59A      1.074083  
      60A      1.092904    61A      1.100464    62A      1.123559  
      63A      1.175510    64A      1.214724    65A      1.232123  
      66A      1.277605    67A      1.294280    68A      1.332162  
      69A      1.399301    70A      1.444269    71A      1.531211  
      72A      1.575441    73A      1.602143    74A      1.659597  
      75A      1.759142    76A      1.781113    77A      1.815565  
      78A      1.820365    79A      1.846337    80A      1.906367  
      81A      1.909030    82A      1.970646    83A      2.074310  
      84A      2.094059    85A      2.141192    86A      2.204687  
      87A      2.208605    88A      2.285940    89A      2.292574  
      90A      2.424077    91A      2.452488    92A      2.452974  
      93A      2.509086    94A      2.597852    95A      2.737553  
      96A      2.805113    97A      2.849314    98A      2.966209  
      99A      3.575166   100A      3.785756   101A      3.829016  
     102A      3.977992   103A      4.078879   104A      4.334054  

    Final Occupation by Irrep:
              A 
    DOCC [    29 ]

  @DF-RKS Final Energy:  -683.31244260415565

   => Energetics <=

    Nuclear Repulsion Energy =            362.9160240517470015
    One-Electron Energy =               -1662.6231665198513383
    Two-Electron Energy =                 662.5223087977019532
    DFT Exchange-Correlation Energy =     -46.1241073627266900
    Empirical Dispersion Energy =          -0.0035015710266039
    VV10 Nonlocal Energy =                  0.0000000000000000
    Total Energy =                       -683.3124426041557626

Computation Completed


Properties will be evaluated at   0.000000,   0.000000,   0.000000 [a0]

Properties computed using the SCF density matrix

  Nuclear Dipole Moment: [e a0]
     X:    -5.4383      Y:    -2.6343      Z:     0.2905

  Electronic Dipole Moment: [e a0]
     X:     5.0244      Y:     1.1152      Z:    -0.1097

  Dipole Moment: [e a0]
     X:    -0.4139      Y:    -1.5191      Z:     0.1808     Total:     1.5848

  Dipole Moment: [D]
     X:    -1.0520      Y:    -3.8612      Z:     0.4597     Total:     4.0282


*** tstop() called on bme-nova.bme.utexas.edu at Mon Apr  6 14:33:38 2020
Module time:
	user time   =      22.06 seconds =       0.37 minutes
	system time =       0.59 seconds =       0.01 minutes
	total time  =          5 seconds =       0.08 minutes
Total time:
	user time   =      89.51 seconds =       1.49 minutes
	system time =       4.80 seconds =       0.08 minutes
	total time  =         25 seconds =       0.42 minutes

*** tstart() called on bme-nova.bme.utexas.edu
*** at Mon Apr  6 14:33:38 2020


         ------------------------------------------------------------
                                   SCF GRAD                          
                          Rob Parrish, Justin Turney,                
                       Andy Simmonett, and Alex Sokolov              
         ------------------------------------------------------------

  ==> Geometry <==

    Molecular point group: c1
    Full point group: C1

    Geometry (in Angstrom), charge = 0, multiplicity = 1:

       Center              X                  Y                   Z               Mass       
    ------------   -----------------  -----------------  -----------------  -----------------
         P            0.424798350176     0.069960799849    -0.006526576311    30.973761998420
         O           -0.965074994352     0.822065850470    -0.097782218663    15.994914619570
         O            0.257341680948    -1.033483769854    -1.172127818956    15.994914619570
         O            0.254018451873    -0.736395305783     1.380807199481    15.994914619570
         O            1.624525192324     0.901795722798    -0.101147292673    15.994914619570
         C           -2.204361481391     0.110967162017    -0.021634520920    12.000000000000
         H           -2.989274202170     0.863472786436    -0.109537663739     1.007825032230
         H           -2.290817175681    -0.405084649987     0.938449974775     1.007825032230
         H           -2.284586544877    -0.606730629312    -0.842526130943     1.007825032230
         H            1.087315603321    -1.482327472401    -1.378445659152     1.007825032230
         H            1.087263520504    -1.110390236838     1.695503566407     1.007825032230

  Nuclear repulsion =  362.916024051747002

  ==> Basis Set <==

  Basis Set: 6-31G*
    Blend: 6-31G*
    Number of shells: 48
    Number of basis function: 104
    Number of Cartesian functions: 104
    Spherical Harmonics?: false
    Max angular momentum: 2

  ==> DFJKGrad: Density-Fitted SCF Gradients <==

    Gradient:                    1
    J tasked:                  Yes
    K tasked:                  Yes
    wK tasked:                 Yes
    Omega:               2.000E-01
    OpenMP threads:              4
    Integrals threads:           4
    Memory [MiB]:            14305
    Schwarz Cutoff:          0E+00
    Fitting Condition:       1E-10

   => Auxiliary Basis Set <=

  Basis Set: (6-31G* AUX)
    Blend: CC-PVDZ-JKFIT
    Number of shells: 201
    Number of basis function: 660
    Number of Cartesian functions: 660
    Spherical Harmonics?: false
    Max angular momentum: 3

  ==> DFT Potential <==

   => Composite Functional: WB97X-D <= 

    wB97X-D Hyb-GGA Exchange-Correlation Functional

    J.-D. Chai and M. Head-Gordon, Phys. Chem. Chem. Phys. 10, 6615 (2008)

    Deriv               =              1
    GGA                 =           TRUE
    Meta                =          FALSE

    Exchange Hybrid     =           TRUE
    MP2 Hybrid          =          FALSE

   => Exchange-Correlation Functionals <=

    1.0000   wB97D range-separated functional

   => Exact (HF) Exchange <=

    0.7780            HF,LR [omega = 0.2000]
    0.2220               HF 

   => Molecular Quadrature <=

    Radial Scheme          =       TREUTLER
    Pruning Scheme         =           FLAT
    Nuclear Scheme         =       TREUTLER

    BS radius alpha        =              1
    Pruning alpha          =              1
    Radial Points          =             75
    Spherical Points       =            302
    Total Points           =         245829
    Total Blocks           =           1907
    Max Points             =            256
    Max Functions          =            101


  -Total Gradient:
     Atom            X                  Y                   Z
    ------   -----------------  -----------------  -----------------
       1        0.006325203868    -0.001454691413     0.000359167113
       2       -0.001086621206     0.000752162005    -0.000115197970
       3        0.000401977938     0.003668840932    -0.000687903072
       4        0.000269892622     0.003841954418    -0.000275084898
       5       -0.005702469820    -0.001638161618     0.000104325311
       6        0.000263233759    -0.000946235128     0.000057899322
       7       -0.000376292397     0.000530116502    -0.000072737962
       8       -0.000301052274    -0.000218306799     0.000079629369
       9       -0.000318438815    -0.000211927212    -0.000024448719
      10       -0.000236178104    -0.002277926817     0.001146617874
      11       -0.000074626369    -0.002609439436    -0.000540138272


*** tstop() called on bme-nova.bme.utexas.edu at Mon Apr  6 14:33:41 2020
Module time:
	user time   =      11.36 seconds =       0.19 minutes
	system time =       0.57 seconds =       0.01 minutes
	total time  =          3 seconds =       0.05 minutes
Total time:
	user time   =     100.88 seconds =       1.68 minutes
	system time =       5.37 seconds =       0.09 minutes
	total time  =         28 seconds =       0.47 minutes

			-----------------------------------------
			 OPTKING 2.0: for geometry optimizations 
			  - R.A. King,  Bethel University        
			-----------------------------------------

	Previous internal coordinate definitions found.
	---Fragment 1 Geometry and Gradient---
	 P           0.8027525404        0.1322067512       -0.0123334418
	 O          -1.8237274299        1.5534793145       -0.1847816132
	 O           0.4863052977       -1.9530012801       -2.2150005619
	 O           0.4800253049       -1.3915854480        2.6093474391
	 O           3.0699076974        1.7041469372       -0.1911406815
	 C          -4.1656394813        0.2096975451       -0.0408833194
	 H          -5.6489095560        1.6317270832       -0.2069961849
	 H          -4.3290170655       -0.7654990461        1.7734134348
	 H          -4.3172428797       -1.1465547213       -1.5921436410
	 H           2.0547287022       -2.8011929511       -2.6048847746
	 H           2.0546302800       -2.0983334400        3.2040373852
	             0.0063252039       -0.0014546914        0.0003591671
	            -0.0010866212        0.0007521620       -0.0001151980
	             0.0004019779        0.0036688409       -0.0006879031
	             0.0002698926        0.0038419544       -0.0002750849
	            -0.0057024698       -0.0016381616        0.0001043253
	             0.0002632338       -0.0009462351        0.0000578993
	            -0.0003762924        0.0005301165       -0.0000727380
	            -0.0003010523       -0.0002183068        0.0000796294
	            -0.0003184388       -0.0002119272       -0.0000244487
	            -0.0002361781       -0.0022779268        0.0011466179
	            -0.0000746264       -0.0026094394       -0.0005401383

	---Fragment 1 Intrafragment Coordinates---
	 - Coordinate -           - BOHR/RAD -       - ANG/DEG -
	 R(1,2)           =         2.991346	       1.582952
	 R(1,3)           =         3.049586	       1.613771
	 R(1,4)           =         3.049476	       1.613713
	 R(1,5)           =         2.764590	       1.462958
	 R(2,6)           =         2.703888	       1.430836
	 R(3,10)          =         1.825210	       0.965859
	 R(4,11)          =         1.825522	       0.966025
	 R(6,7)           =         2.061517	       1.090908
	 R(6,8)           =         2.066246	       1.093410
	 R(6,9)           =         2.066110	       1.093339
	 B(1,2,6)         =         2.119152	     121.418482
	 B(1,3,10)        =         1.963700	     112.511707
	 B(1,4,11)        =         1.963010	     112.472170
	 B(2,1,3)         =         1.764126	     101.076989
	 B(2,1,4)         =         1.766092	     101.189616
	 B(2,1,5)         =         2.033263	     116.497365
	 B(2,6,7)         =         1.850507	     106.026248
	 B(2,6,8)         =         1.928124	     110.473384
	 B(2,6,9)         =         1.928184	     110.476800
	 B(3,1,4)         =         1.842429	     105.563432
	 B(3,1,5)         =         2.012156	     115.288063
	 B(4,1,5)         =         2.011433	     115.246603
	 B(7,6,8)         =         1.917099	     109.841676
	 B(7,6,9)         =         1.917191	     109.846959
	 B(8,6,9)         =         1.921595	     110.099289
	 D(1,2,6,7)       =         3.140647	     179.945842
	 D(1,2,6,8)       =         1.064402	      60.985716
	 D(1,2,6,9)       =        -1.066150	     -61.085898
	 D(2,1,3,10)      =         2.946652	     168.830743
	 D(2,1,4,11)      =        -2.927961	    -167.759785
	 D(3,1,2,6)       =         0.943734	      54.071949
	 D(3,1,4,11)      =         1.523062	      87.265027
	 D(4,1,2,6)       =        -0.950075	     -54.435265
	 D(4,1,3,10)      =        -1.502928	     -86.111445
	 D(5,1,2,6)       =         3.138138	     179.802079
	 D(5,1,3,10)      =         0.738214	      42.296546
	 D(5,1,4,11)      =        -0.718511	     -41.167636

	Current energy   :      -683.3124426042

	Energy change for the previous step:
		Projected    :        -0.0052682523
		Actual       :        -0.0013321111

	Performing BFGS update.
	Previous computed or guess Hessian on step 1.
	Steps to be used in Hessian update: 2 1
	Taking RFO optimization step.
	Going to follow RFO solution 1.
	Using RFO vector 1.
	Norm of target step-size    0.37697
	Projected energy change by RFO approximation:        -0.0066416791

	Back-transformation to cartesian coordinates...
	Could not converge backtransformation.
	Using first guess instead.

	--- Internal Coordinate Step in ANG or DEG, aJ/ANG or AJ/DEG ---
	 ---------------------------------------------------------------------------
	   Coordinate                Previous        Force       Change         New 
	   ----------                --------       ------       ------       ------
	    1 R(1,2)          =      1.582952    -0.010954    -0.008531     1.574421
	    2 R(1,3)          =      1.613771     0.011480     0.003111     1.616882
	    3 R(1,4)          =      1.613713     0.011725     0.003029     1.616742
	    4 R(1,5)          =      1.462958     0.045483    -0.000538     1.462421
	    5 R(2,6)          =      1.430836    -0.005996     0.000833     1.431669
	    6 R(3,10)         =      0.965859    -0.005390     0.008882     0.974742
	    7 R(4,11)         =      0.966025    -0.006728     0.009156     0.975180
	    8 R(6,7)          =      1.090908    -0.005076    -0.002300     1.088608
	    9 R(6,8)          =      1.093410    -0.001417    -0.000753     1.092657
	   10 R(6,9)          =      1.093339    -0.001244    -0.000772     1.092567
	   11 B(1,2,6)        =    121.418482     0.000013     0.829457   122.247939
	   12 B(1,3,10)       =    112.511707    -0.000068    -1.885530   110.626177
	   13 B(1,4,11)       =    112.472170    -0.000074    -1.983061   110.489109
[...]

    Radial Scheme          =       TREUTLER
    Pruning Scheme         =           FLAT
    Nuclear Scheme         =       TREUTLER

    BS radius alpha        =              1
    Pruning alpha          =              1
    Radial Points          =             75
    Spherical Points       =            302
    Total Points           =         245845
    Total Blocks           =           1903
    Max Points             =            256
    Max Functions          =            101


  -Total Gradient:
     Atom            X                  Y                   Z
    ------   -----------------  -----------------  -----------------
       1       -0.000069144698    -0.000034524788    -0.000081508190
       2       -0.000048814394    -0.000019533667     0.000027197340
       3       -0.000160522014    -0.000255982150     0.000203223621
       4       -0.000100787779    -0.000087887637    -0.000002843378
       5       -0.000040242651    -0.000125425905     0.000006817210
       6       -0.000087919424    -0.000053101083    -0.000011594491
       7       -0.000066302643    -0.000028591723     0.000015230964
       8       -0.000077404081    -0.000038638356     0.000015566837
       9       -0.000088201968    -0.000039679859     0.000013869652
      10       -0.000058664094     0.000074407409    -0.000135148465
      11       -0.000094344242    -0.000046774130     0.000013938304


*** tstop() called on bme-nova.bme.utexas.edu at Mon Apr  6 14:40:19 2020
Module time:
	user time   =      10.30 seconds =       0.17 minutes
	system time =       0.95 seconds =       0.02 minutes
	total time  =          4 seconds =       0.07 minutes
Total time:
	user time   =    1532.51 seconds =      25.54 minutes
	system time =      65.19 seconds =       1.09 minutes
	total time  =        426 seconds =       7.10 minutes

			-----------------------------------------
			 OPTKING 2.0: for geometry optimizations 
			  - R.A. King,  Bethel University        
			-----------------------------------------

	Previous internal coordinate definitions found.
	---Fragment 1 Geometry and Gradient---
	 P           0.7935210099        0.1136764966       -0.0234894460
	 O          -1.7962260735        1.6262896247       -0.1024229106
	 O           0.3683553441       -1.9072331718       -2.2470282353
	 O           0.6365451469       -1.6721918734        2.4519314769
	 O           3.0621008266        1.7050820611       -0.1269526667
	 C          -4.1690197244        0.3374143609       -0.0060871918
	 H          -5.6159461717        1.7998469726        0.0978107331
	 H          -4.2727078006       -0.8704549663        1.6682822095
	 H          -4.4377468537       -0.7976516333       -1.7108509549
	 H           1.9178024365       -2.7731104422       -2.6733326274
	 H           1.6220530927       -0.9330289236        3.8008710775
	            -0.0000691447       -0.0000345248       -0.0000815082
	            -0.0000488144       -0.0000195337        0.0000271973
	            -0.0001605220       -0.0002559822        0.0002032236
	            -0.0001007878       -0.0000878876       -0.0000028434
	            -0.0000402427       -0.0001254259        0.0000068172
	            -0.0000879194       -0.0000531011       -0.0000115945
	            -0.0000663026       -0.0000285917        0.0000152310
	            -0.0000774041       -0.0000386384        0.0000155668
	            -0.0000882020       -0.0000396799        0.0000138697
	            -0.0000586641        0.0000744074       -0.0001351485
	            -0.0000943442       -0.0000467741        0.0000139383

	---Fragment 1 Intrafragment Coordinates---
	 - Coordinate -           - BOHR/RAD -       - ANG/DEG -
	 R(1,2)           =         3.000170	       1.587621
	 R(1,3)           =         3.034628	       1.605856
	 R(1,4)           =         3.056416	       1.617385
	 R(1,5)           =         2.773036	       1.467428
	 R(2,6)           =         2.701968	       1.429820
	 R(3,10)          =         1.825449	       0.965986
	 R(4,11)          =         1.826808	       0.966705
	 R(6,7)           =         2.059879	       1.090041
	 R(6,8)           =         2.067175	       1.093902
	 R(6,9)           =         2.065625	       1.093082
	 B(1,2,6)         =         2.113674	     121.104585
	 B(1,3,10)        =         1.947738	     111.597159
	 B(1,4,11)        =         1.911257	     109.506964
	 B(2,1,3)         =         1.767604	     101.276252
	 B(2,1,4)         =         1.845816	     105.757456
	 B(2,1,5)         =         1.999674	     114.572879
	 B(2,6,7)         =         1.854585	     106.259889
	 B(2,6,8)         =         1.930130	     110.588323
	 B(2,6,9)         =         1.925103	     110.300296
	 B(3,1,4)         =         1.769223	     101.369039
	 B(3,1,5)         =         2.059474	     117.999142
	 B(4,1,5)         =         1.990573	     114.051445
	 B(7,6,8)         =         1.916383	     109.800643
	 B(7,6,9)         =         1.918106	     109.899380
	 B(8,6,9)         =         1.918641	     109.930045
	 D(1,2,6,7)       =         3.047116	     174.586859
	 D(1,2,6,8)       =         0.968243	      55.476251
	 D(1,2,6,9)       =        -1.157856	     -66.340259
	 D(2,1,3,10)      =         2.941859	     168.556128
	 D(2,1,4,11)      =        -1.782269	    -102.116502
	 D(3,1,2,6)       =         0.909646	      52.118893
	 D(3,1,4,11)      =         2.662975	     152.577247
	 D(4,1,2,6)       =        -0.929477	     -53.255084
	 D(4,1,3,10)      =        -1.442112	     -82.626948
	 D(5,1,2,6)       =        -3.137126	    -179.744085
	 D(5,1,3,10)      =         0.744629	      42.664094
	 D(5,1,4,11)      =         0.430907	      24.689149

	Current energy   :      -683.3159459553

	Energy change for the previous step:
		Projected    :        -0.0000004754
		Actual       :        -0.0000003424

	Performing BFGS update.
	Previous computed or guess Hessian on step 1.
	Denominators (dg)(dq) or (dq)(dq) are very small.
	 Skipping Hessian update for step 51.
	Steps to be used in Hessian update: 50 49
	Taking RFO optimization step.
	Going to follow RFO solution 1.
	Using RFO vector 1.

	Determining step-restricting scale parameter for RS-RFO.
	Maximum step size allowed    0.00313

	 Iter      |step|        alpha        rfo_root  
	------------------------------------------------
	    0     0.25887       1.00000           1
	    1     0.16145      15.57689           1
	    2     0.09705      67.98403           1
	    3     0.05766     236.13146           1
	    4     0.03424     743.25402           1
	    5     0.02051    2191.87152           1
	    6     0.01253    6058.59338           1
	    7     0.00794   15366.34304           1
	    8     0.00534   34247.86470           1
	    9     0.00395   62864.72297           1
	   10     0.00332   89173.40007           1
	   11     0.00314   99494.59248           1
	   12     0.00313  100454.07275           1
	------------------------------------------------
	Norm of target step-size    0.00313
	Projected energy change by RFO approximation:        -0.0000008474

	Back-transformation to cartesian coordinates...
	Could not converge backtransformation.
	Using first guess instead.

	--- Internal Coordinate Step in ANG or DEG, aJ/ANG or AJ/DEG ---
	 ---------------------------------------------------------------------------
	   Coordinate                Previous        Force       Change         New 
	   ----------                --------       ------       ------       ------
	    1 R(1,2)          =      1.587621    -0.000003    -0.000010     1.587611
	    2 R(1,3)          =      1.605856     0.000207     0.000020     1.605876
	    3 R(1,4)          =      1.617385    -0.000061    -0.000003     1.617383
	    4 R(1,5)          =      1.467428    -0.000002    -0.000002     1.467426
	    5 R(2,6)          =      1.429820    -0.000055    -0.000014     1.429805
	    6 R(3,10)         =      0.965986     0.000031     0.000006     0.965993
	    7 R(4,11)         =      0.966705    -0.000084    -0.000007     0.966698
	    8 R(6,7)          =      1.090041    -0.000008    -0.000001     1.090040
	    9 R(6,8)          =      1.093902    -0.000001     0.000001     1.093903
	   10 R(6,9)          =      1.093082    -0.000005     0.000001     1.093083
	   11 B(1,2,6)        =    121.104585     0.000000     0.002458   121.107043
	   12 B(1,3,10)       =    111.597159     0.000001     0.006478   111.603637
	   13 B(1,4,11)       =    109.506964     0.000001     0.001975   109.508939
	   14 B(2,1,3)        =    101.276252    -0.000000    -0.003584   101.272668
	   15 B(2,1,4)        =    105.757456     0.000001     0.004929   105.762385
	   16 B(2,1,5)        =    114.572879    -0.000000    -0.001825   114.571054
	   17 B(2,6,7)        =    106.259889     0.000000     0.001274   106.261163
	   18 B(2,6,8)        =    110.588323     0.000000     0.000093   110.588416
	   19 B(2,6,9)        =    110.300296     0.000000     0.001044   110.301340
	   20 B(3,1,4)        =    101.369039     0.000000    -0.000587   101.368452
	   21 B(3,1,5)        =    117.999142    -0.000000     0.003103   118.002245
	   22 B(4,1,5)        =    114.051445    -0.000000    -0.001727   114.049719
	   23 B(7,6,8)        =    109.800643    -0.000000    -0.001038   109.799605
	   24 B(7,6,9)        =    109.899380    -0.000000    -0.000532   109.898849
	   25 B(8,6,9)        =    109.930045    -0.000000    -0.000791   109.929254
	   26 D(1,2,6,7)      =    174.586859     0.000000     0.001210   174.588069
	   27 D(1,2,6,8)      =     55.476251     0.000000     0.001649    55.477900
	   28 D(1,2,6,9)      =    -66.340259     0.000000     0.001883   -66.338376
	   29 D(2,1,3,10)     =    168.556128     0.000002     0.097584   168.653712
	   30 D(2,1,4,11)     =   -102.116502    -0.000000    -0.017439  -102.133941
	   31 D(3,1,2,6)      =     52.118893     0.000000     0.019513    52.138406
	   32 D(3,1,4,11)     =    152.577247    -0.000000    -0.014781   152.562466
	   33 D(4,1,2,6)      =    -53.255084     0.000000     0.019990   -53.235094
	   34 D(4,1,3,10)     =    -82.626948     0.000002     0.101628   -82.525320
	   35 D(5,1,2,6)      =   -179.744085     0.000000     0.019656  -179.724429
	   36 D(5,1,3,10)     =     42.664094     0.000002     0.100862    42.764956
	   37 D(5,1,4,11)     =     24.689149    -0.000000    -0.017195    24.671954
	 ---------------------------------------------------------------------------
	Successfully symmetrized geometry.

  ==> Convergence Check <==

  Measures of convergence in internal coordinates in au.
  Criteria marked as inactive (o), active & met (*), and active & unmet ( ).
  ---------------------------------------------------------------------------------------------
   Step     Total Energy     Delta E     MAX Force     RMS Force      MAX Disp      RMS Disp   
  ---------------------------------------------------------------------------------------------
    Convergence Criteria    1.00e-06 *    3.00e-04 *             o    1.20e-03 *             o
  ---------------------------------------------------------------------------------------------
     52    -683.31594596   -3.42e-07 *    1.25e-04 *    3.58e-05 o    1.77e-03      5.14e-04 o  ~
  ---------------------------------------------------------------------------------------------


  **** Optimization is complete! (in 52 steps) ****

  ==> Optimization Summary <==

  Measures of convergence in internal coordinates in au.
  --------------------------------------------------------------------------------------------------------------- ~
   Step         Total Energy             Delta E       MAX Force       RMS Force        MAX Disp        RMS Disp  ~
  --------------------------------------------------------------------------------------------------------------- ~
      1    -683.305227759447   -683.305227759447      0.04123268      0.01076474      0.09836032      0.03957394  ~
      2    -683.311110493084     -0.005882733637      0.00867738      0.00262973      0.10135567      0.03436244  ~
      3    -683.312442604156     -0.001332111072      0.00552064      0.00122403      0.16796949      0.06107117  ~
      4    -683.313370158044     -0.000927553888      0.00925043      0.00262172      0.05291010      0.02060144  ~
      5    -683.313886294506     -0.000516136462      0.00306914      0.00108694      0.05330086      0.02058693  ~
      6    -683.314214858456     -0.000328563950      0.00111770      0.00047229      0.05303860      0.02053776  ~
      7    -683.314459301713     -0.000244443257      0.00090358      0.00038272      0.05358540      0.02053432  ~
      8    -683.314664449149     -0.000205147437      0.00101484      0.00033644      0.15928529      0.06120951  ~
      9    -683.314933225882     -0.000268776732      0.00922899      0.00204784      0.04053373      0.01547779  ~
     10    -683.315146826455     -0.000213600574      0.00147507      0.00042475      0.12408862      0.04611478  ~
     11    -683.315248179784     -0.000101353328      0.00545903      0.00117550      0.10553270      0.03847381  ~
     12    -683.315336403546     -0.000088223762      0.00409068      0.00084753      0.07911113      0.02800377  ~
     13    -683.315379386373     -0.000042982828      0.00229373      0.00045657      0.02629585      0.00866642  ~
     14    -683.315390086046     -0.000010699672      0.00014422      0.00004861      0.07083345      0.02437480  ~
     15    -683.315394128460     -0.000004042415      0.00147582      0.00027336      0.05694876      0.01829594  ~
     16    -683.315393667553      0.000000460908      0.00125311      0.00022030      0.01506985      0.00442042  ~
     17    -683.315395816846     -0.000002149293      0.00014806      0.00004819      0.01483454      0.00543383  ~
     18    -683.315398426801     -0.000002609956      0.00079217      0.00015435      0.07425716      0.02599795  ~
     19    -683.315427239709     -0.000028812907      0.00112171      0.00025909      0.08125493      0.02609435  ~
     20    -683.315458771678     -0.000031531970      0.00376013      0.00068431      0.08647850      0.02585190  ~
     21    -683.315482753901     -0.000023982222      0.00556720      0.00115131      0.02847361      0.00849714  ~
     22    -683.315447086419      0.000035667482      0.00687700      0.00133153      0.08681953      0.02601969  ~
     23    -683.315559824390     -0.000112737971      0.00236008      0.00045827      0.02197797      0.00651507  ~
     24    -683.315582248258     -0.000022423868      0.00095975      0.00028122      0.00435761      0.00162651  ~
     25    -683.315589030412     -0.000006782154      0.00025719      0.00010864      0.00524972      0.00162778  ~
     26    -683.315593296972     -0.000004266560      0.00025902      0.00008182      0.00543351      0.00162603  ~
     27    -683.315597333072     -0.000004036100      0.00026015      0.00007734      0.01654563      0.00487889  ~
     28    -683.315609714255     -0.000012381183      0.00026720      0.00007794      0.01670155      0.00487810  ~
     29    -683.315622162303     -0.000012448048      0.00027049      0.00007824      0.01680876      0.00487786  ~
     30    -683.315634527672     -0.000012365368      0.00027116      0.00007922      0.01690391      0.00487774  ~
     31    -683.315646664847     -0.000012137175      0.00026995      0.00007974      0.01699452      0.00487809  ~
     32    -683.315658835056     -0.000012170209      0.00026933      0.00007968      0.01706028      0.00487828  ~
     33    -683.315670704567     -0.000011869512      0.00026849      0.00007928      0.01710815      0.00487854  ~
     34    -683.315682646167     -0.000011941599      0.00026742      0.00007856      0.01713276      0.00487886  ~
     35    -683.315694539770     -0.000011893604      0.00026713      0.00007795      0.01714058      0.00487888  ~
     36    -683.315706489740     -0.000011949970      0.00026794      0.00007791      0.01714397      0.00487874  ~
     37    -683.315718435012     -0.000011945271      0.00026888      0.00007823      0.05087394      0.01462353  ~
     38    -683.315755065688     -0.000036630676      0.00028417      0.00008131      0.01287280      0.00365859  ~
     39    -683.315764387757     -0.000009322069      0.00027218      0.00007746      0.03850490      0.01097865  ~
     40    -683.315791146235     -0.000026758478      0.00049791      0.00011172      0.03817157      0.01099461  ~
     41    -683.315815646459     -0.000024500224      0.00085408      0.00017199      0.03839237      0.01097163  ~
     42    -683.315840452668     -0.000024806209      0.00077710      0.00014894      0.03838687      0.01096832  ~
     43    -683.315863469823     -0.000023017155      0.00022748      0.00007805      0.00957679      0.00274405  ~
     44    -683.315869816591     -0.000006346768      0.00021784      0.00007115      0.00949021      0.00274365  ~
     45    -683.315875995066     -0.000006178474      0.00022668      0.00006743      0.02814420      0.00823310  ~
     46    -683.315892873664     -0.000016878598      0.00045488      0.00010055      0.02848310      0.00823169  ~
     47    -683.315909493083     -0.000016619419      0.00020247      0.00007566      0.02762779      0.00823653  ~
     48    -683.315923753685     -0.000014260602      0.00026028      0.00007002      0.02838262      0.00823145  ~
     49    -683.315935886425     -0.000012132740      0.00024952      0.00006449      0.02833548      0.00822775  ~
     50    -683.315944204539     -0.000008318114      0.00014600      0.00005249      0.00708697      0.00205714  ~
     51    -683.315945612948     -0.000001408409      0.00013330      0.00004045      0.00178123      0.00051435  ~
     52    -683.315945955309     -0.000000342361      0.00012472      0.00003576      0.00177374      0.00051437  ~
  --------------------------------------------------------------------------------------------------------------- ~

	Writing optimization data to binary file.
	Final energy is   -683.3159459553088
	Final (previous) structure:
	Cartesian Geometry (in Angstrom)
	    P     0.4199132330   0.0601550112  -0.0124300795
	    O    -0.9505218996   0.8605954040  -0.0541998699
	    O     0.1949252528  -1.0092643260  -1.1890761292
	    O     0.3368451840  -0.8848858278   1.2975062546
	    O     1.6203939679   0.9022905655  -0.0671804578
	    C    -2.2061502203   0.1785519897  -0.0032212032
	    H    -2.9718307187   0.9524379969   0.0517592107
	    H    -2.2610195871  -0.4606249293   0.8828169228
	    H    -2.3483544925  -0.4220990648  -0.9053433326
	    H     1.0148573400  -1.4674668429  -1.4146666974
	    H     0.8583535278  -0.4937376413   2.0113343470
	Saving final (previous) structure.
			--------------------------
			 OPTKING Finished Execution 
			--------------------------

    Final optimized geometry and variables:
    Molecular point group: c1
    Full point group: C1

    Geometry (in Angstrom), charge = 0, multiplicity = 1:

    P            0.419913234641     0.060155011405    -0.012430079510
    O           -0.950521903287     0.860595407344    -0.054199870158
    O            0.194925253532    -1.009264329926    -1.189076133835
    O            0.336845185324    -0.884885831247     1.297506259683
    O            1.620393974227     0.902290569073    -0.067180458076
    C           -2.206150228969     0.178551990366    -0.003221203191
    H           -2.971830730429     0.952438000609     0.051759210937
    H           -2.261019595948    -0.460624931070     0.882816926237
    H           -2.348354501683    -0.422099066422    -0.905343336195
    H            1.014857343959    -1.467466848684    -1.414666702954
    H            0.858353531165    -0.493737643288     2.011334354892

	Removing binary optimization data file.
	Cleaning optimization helper files.

    Psi4 stopped on: Monday, 06 April 2020 02:40PM
    Psi4 wall time for execution: 0:07:05.78

*** Psi4 exiting successfully. Buy a developer a beer!
