13
DiMethylPhosphate0H-opt.log	Energy: -453164.5845528
P          0.00003       -0.62999        0.00006
O          0.96832        0.42082       -0.82128
O         -0.96862        0.42046        0.82118
O          0.78627       -1.35302        1.04979
O         -0.78538       -1.35370       -1.04968
C          1.79810        1.27758       -0.05421
C         -1.79864        1.27695        0.05413
H          1.19774        1.95133        0.56940
H          2.39316        1.87228       -0.75152
H          2.46704        0.70054        0.59344
H         -2.46696        0.69964       -0.59395
H         -1.19855        1.95128       -0.56913
H         -2.39445        1.87107        0.75130
