DiMethylPhosphate0H Gaussian SP Calculation on node37.bme.utexas.edu    
SP        RMP2-FC                                                     6-311G(d,p)         
Number of atoms                            I               13
Info1-9                                    I   N=           9
          26          24           0           0           0         110
           1           2           1
Charge                                     I               -1
Multiplicity                               I                1
Number of electrons                        I               66
Number of alpha electrons                  I               33
Number of beta electrons                   I               33
Number of basis functions                  I              170
Number of independent functions            I              170
Number of point charges in /Mol/           I                0
Number of translation vectors              I                0
Atomic numbers                             I   N=          13
          15           8           8           8           8           6
           6           1           1           1           1           1
           1
Nuclear charges                            R   N=          13
  1.50000000E+01  8.00000000E+00  8.00000000E+00  8.00000000E+00  8.00000000E+00
  6.00000000E+00  6.00000000E+00  1.00000000E+00  1.00000000E+00  1.00000000E+00
  1.00000000E+00  1.00000000E+00  1.00000000E+00
Current cartesian coordinates              R   N=          39
 -6.59803696E-05  1.19050092E+00  1.03876792E-04 -1.82985201E+00 -7.95234527E-01
 -1.55198678E+00  1.83042846E+00 -7.94550670E-01  1.55180903E+00 -1.48583472E+00
  2.55682970E+00  1.98381176E+00  1.48414391E+00  2.55812209E+00 -1.98360968E+00
 -3.39791662E+00 -2.41427241E+00 -1.02447781E-01  3.39893128E+00 -2.41308041E+00
  1.02298376E-01 -2.26340072E+00 -3.68748680E+00  1.07601378E+00 -4.52241145E+00
 -3.53809059E+00 -1.42016326E+00 -4.66202428E+00 -1.32383611E+00  1.12144091E+00
  4.66187501E+00 -1.32213025E+00 -1.12239534E+00  2.26492356E+00 -3.68737559E+00
 -1.07549611E+00  4.52485461E+00 -3.53581024E+00  1.41974363E+00
Force Field                                I                0
Int Atom Types                             I   N=          13
           0           0           0           0           0           0
           0           0           0           0           0           0
           0
MM charges                                 R   N=          13
  0.00000000E+00  0.00000000E+00  0.00000000E+00  0.00000000E+00  0.00000000E+00
  0.00000000E+00  0.00000000E+00  0.00000000E+00  0.00000000E+00  0.00000000E+00
  0.00000000E+00  0.00000000E+00  0.00000000E+00
Integer atomic weights                     I   N=          13
          31          16          16          16          16          12
          12           1           1           1           1           1
           1
Real atomic weights                        R   N=          13
  3.09737634E+01  1.59949146E+01  1.59949146E+01  1.59949146E+01  1.59949146E+01
  1.20000000E+01  1.20000000E+01  1.00782504E+00  1.00782504E+00  1.00782504E+00
  1.00782504E+00  1.00782504E+00  1.00782504E+00
Atom fragment info                         I   N=          13
           0           0           0           0           0           0
           0           0           0           0           0           0
           0
Atom residue num                           I   N=          13
           0           0           0           0           0           0
           0           0           0           0           0           0
           0
Nuclear spins                              I   N=          13
           1           0           0           0           0           0
           0           1           1           1           1           1
           1
Nuclear ZEff                               R   N=          13
 -1.29400000E+01 -5.60000000E+00 -5.60000000E+00 -5.60000000E+00 -5.60000000E+00
 -3.60000000E+00 -3.60000000E+00 -1.00000000E+00 -1.00000000E+00 -1.00000000E+00
 -1.00000000E+00 -1.00000000E+00 -1.00000000E+00
Nuclear QMom                               R   N=          13
  0.00000000E+00  0.00000000E+00  0.00000000E+00  0.00000000E+00  0.00000000E+00
  0.00000000E+00  0.00000000E+00  0.00000000E+00  0.00000000E+00  0.00000000E+00
  0.00000000E+00  0.00000000E+00  0.00000000E+00
Nuclear GFac                               R   N=          13
  1.13160000E+00  0.00000000E+00  0.00000000E+00  0.00000000E+00  0.00000000E+00
  0.00000000E+00  0.00000000E+00  2.79284600E+00  2.79284600E+00  2.79284600E+00
  2.79284600E+00  2.79284600E+00  2.79284600E+00
MicOpt                                     I   N=          13
          -1          -1          -1          -1          -1          -1
          -1          -1          -1          -1          -1          -1
          -1
Number of contracted shells                I               66
Number of primitive shells                 I              131
Pure/Cartesian d shells                    I                0
Pure/Cartesian f shells                    I                0
Highest angular momentum                   I                2
Largest degree of contraction              I                6
Shell types                                I   N=          66
           0           0           0           0           0           0
           1           1           1           1           1          -2
           0          -1          -1          -1          -2           0
          -1          -1          -1          -2           0          -1
          -1          -1          -2           0          -1          -1
          -1          -2           0          -1          -1          -1
          -2           0          -1          -1          -1          -2
           0           0           0           1           0           0
           0           1           0           0           0           1
           0           0           0           1           0           0
           0           1           0           0           0           1
Number of primitives per shell             I   N=          66
           6           3           1           1           1           1
           4           2           1           1           1           1
           6           3           1           1           1           6
           3           1           1           1           6           3
           1           1           1           6           3           1
           1           1           6           3           1           1
           1           6           3           1           1           1
           3           1           1           1           3           1
           1           1           3           1           1           1
           3           1           1           1           3           1
           1           1           3           1           1           1
Shell to atom map                          I   N=          66
           1           1           1           1           1           1
           1           1           1           1           1           1
           2           2           2           2           2           3
           3           3           3           3           4           4
           4           4           4           5           5           5
           5           5           6           6           6           6
           6           7           7           7           7           7
           8           8           8           8           9           9
           9           9          10          10          10          10
          11          11          11          11          12          12
          12          12          13          13          13          13
Primitive exponents                        R   N=         131
  7.74924000E+04  1.16058000E+04  2.64596000E+03  7.54976000E+02  2.48755000E+02
  9.11565000E+01  9.11565000E+01  3.62257000E+01  1.52113000E+01  4.79417000E+00
  1.80793000E+00  3.56816000E-01  1.14783000E-01  3.84843000E+02  9.05521000E+01
  2.91339000E+01  1.08862000E+01  4.35259000E+00  1.77706000E+00  6.97005000E-01
  2.53532000E-01  6.84930000E-02  5.50000000E-01  8.58850000E+03  1.29723000E+03
  2.99296000E+02  8.73771000E+01  2.56789000E+01  3.74004000E+00  4.21175000E+01
  9.62837000E+00  2.85332000E+00  9.05661000E-01  2.55611000E-01  1.29200000E+00
  8.58850000E+03  1.29723000E+03  2.99296000E+02  8.73771000E+01  2.56789000E+01
  3.74004000E+00  4.21175000E+01  9.62837000E+00  2.85332000E+00  9.05661000E-01
  2.55611000E-01  1.29200000E+00  8.58850000E+03  1.29723000E+03  2.99296000E+02
  8.73771000E+01  2.56789000E+01  3.74004000E+00  4.21175000E+01  9.62837000E+00
  2.85332000E+00  9.05661000E-01  2.55611000E-01  1.29200000E+00  8.58850000E+03
  1.29723000E+03  2.99296000E+02  8.73771000E+01  2.56789000E+01  3.74004000E+00
  4.21175000E+01  9.62837000E+00  2.85332000E+00  9.05661000E-01  2.55611000E-01
  1.29200000E+00  4.56324000E+03  6.82024000E+02  1.54973000E+02  4.44553000E+01
  1.30290000E+01  1.82773000E+00  2.09642000E+01  4.80331000E+00  1.45933000E+00
  4.83456000E-01  1.45585000E-01  6.26000000E-01  4.56324000E+03  6.82024000E+02
  1.54973000E+02  4.44553000E+01  1.30290000E+01  1.82773000E+00  2.09642000E+01
  4.80331000E+00  1.45933000E+00  4.83456000E-01  1.45585000E-01  6.26000000E-01
  3.38650000E+01  5.09479000E+00  1.15879000E+00  3.25840000E-01  1.02741000E-01
  7.50000000E-01  3.38650000E+01  5.09479000E+00  1.15879000E+00  3.25840000E-01
  1.02741000E-01  7.50000000E-01  3.38650000E+01  5.09479000E+00  1.15879000E+00
  3.25840000E-01  1.02741000E-01  7.50000000E-01  3.38650000E+01  5.09479000E+00
  1.15879000E+00  3.25840000E-01  1.02741000E-01  7.50000000E-01  3.38650000E+01
  5.09479000E+00  1.15879000E+00  3.25840000E-01  1.02741000E-01  7.50000000E-01
  3.38650000E+01  5.09479000E+00  1.15879000E+00  3.25840000E-01  1.02741000E-01
  7.50000000E-01
Contraction coefficients                   R   N=         131
  7.81000147E-04  6.06800114E-03  3.11600059E-02  1.23431023E-01  3.78209071E-01
  5.63262106E-01  1.60255011E-01  6.27647045E-01  2.63849019E-01  1.00000000E+00
  1.00000000E+00  1.00000000E+00  1.00000000E+00  9.20599888E-03  6.98739915E-02
  2.92469964E-01  7.28102911E-01  6.28348873E-01  4.28043913E-01  1.00000000E+00
  1.00000000E+00  1.00000000E+00  1.00000000E+00  1.89515008E-03  1.43859006E-02
  7.07320031E-02  2.40001011E-01  5.94797026E-01  2.80802012E-01  1.13889012E-01
  9.20811101E-01 -3.27447036E-03  1.00000000E+00  1.00000000E+00  1.00000000E+00
  1.89515008E-03  1.43859006E-02  7.07320031E-02  2.40001011E-01  5.94797026E-01
  2.80802012E-01  1.13889012E-01  9.20811101E-01 -3.27447036E-03  1.00000000E+00
  1.00000000E+00  1.00000000E+00  1.89515008E-03  1.43859006E-02  7.07320031E-02
  2.40001011E-01  5.94797026E-01  2.80802012E-01  1.13889012E-01  9.20811101E-01
 -3.27447036E-03  1.00000000E+00  1.00000000E+00  1.00000000E+00  1.89515008E-03
  1.43859006E-02  7.07320031E-02  2.40001011E-01  5.94797026E-01  2.80802012E-01
  1.13889012E-01  9.20811101E-01 -3.27447036E-03  1.00000000E+00  1.00000000E+00
  1.00000000E+00  1.96665025E-03  1.52306019E-02  7.61269097E-02  2.60801033E-01
  6.16462078E-01  2.21006028E-01  1.14660081E-01  9.19999648E-01 -3.03068213E-03
  1.00000000E+00  1.00000000E+00  1.00000000E+00  1.96665025E-03  1.52306019E-02
  7.61269097E-02  2.60801033E-01  6.16462078E-01  2.21006028E-01  1.14660081E-01
  9.19999648E-01 -3.03068213E-03  1.00000000E+00  1.00000000E+00  1.00000000E+00
  2.54938145E-02  1.90373109E-01  8.52161486E-01  1.00000000E+00  1.00000000E+00
  1.00000000E+00  2.54938145E-02  1.90373109E-01  8.52161486E-01  1.00000000E+00
  1.00000000E+00  1.00000000E+00  2.54938145E-02  1.90373109E-01  8.52161486E-01
  1.00000000E+00  1.00000000E+00  1.00000000E+00  2.54938145E-02  1.90373109E-01
  8.52161486E-01  1.00000000E+00  1.00000000E+00  1.00000000E+00  2.54938145E-02
  1.90373109E-01  8.52161486E-01  1.00000000E+00  1.00000000E+00  1.00000000E+00
  2.54938145E-02  1.90373109E-01  8.52161486E-01  1.00000000E+00  1.00000000E+00
  1.00000000E+00
P(S=P) Contraction coefficients            R   N=         131
  0.00000000E+00  0.00000000E+00  0.00000000E+00  0.00000000E+00  0.00000000E+00
  0.00000000E+00  0.00000000E+00  0.00000000E+00  0.00000000E+00  0.00000000E+00
  0.00000000E+00  0.00000000E+00  0.00000000E+00  0.00000000E+00  0.00000000E+00
  0.00000000E+00  0.00000000E+00  0.00000000E+00  0.00000000E+00  0.00000000E+00
  0.00000000E+00  0.00000000E+00  0.00000000E+00  0.00000000E+00  0.00000000E+00
  0.00000000E+00  0.00000000E+00  0.00000000E+00  0.00000000E+00  3.65113974E-02
  2.37152983E-01  8.19701941E-01  1.00000000E+00  1.00000000E+00  0.00000000E+00
  0.00000000E+00  0.00000000E+00  0.00000000E+00  0.00000000E+00  0.00000000E+00
  0.00000000E+00  3.65113974E-02  2.37152983E-01  8.19701941E-01  1.00000000E+00
  1.00000000E+00  0.00000000E+00  0.00000000E+00  0.00000000E+00  0.00000000E+00
  0.00000000E+00  0.00000000E+00  0.00000000E+00  3.65113974E-02  2.37152983E-01
  8.19701941E-01  1.00000000E+00  1.00000000E+00  0.00000000E+00  0.00000000E+00
  0.00000000E+00  0.00000000E+00  0.00000000E+00  0.00000000E+00  0.00000000E+00
  3.65113974E-02  2.37152983E-01  8.19701941E-01  1.00000000E+00  1.00000000E+00
  0.00000000E+00  0.00000000E+00  0.00000000E+00  0.00000000E+00  0.00000000E+00
  0.00000000E+00  0.00000000E+00  4.02486927E-02  2.37593957E-01  8.15853851E-01
  1.00000000E+00  1.00000000E+00  0.00000000E+00  0.00000000E+00  0.00000000E+00
  0.00000000E+00  0.00000000E+00  0.00000000E+00  0.00000000E+00  4.02486927E-02
  2.37593957E-01  8.15853851E-01  1.00000000E+00  1.00000000E+00  0.00000000E+00
  0.00000000E+00  0.00000000E+00  0.00000000E+00  0.00000000E+00  0.00000000E+00
  0.00000000E+00  0.00000000E+00  0.00000000E+00  0.00000000E+00  0.00000000E+00
  0.00000000E+00  0.00000000E+00  0.00000000E+00  0.00000000E+00  0.00000000E+00
  0.00000000E+00  0.00000000E+00  0.00000000E+00  0.00000000E+00  0.00000000E+00
  0.00000000E+00  0.00000000E+00  0.00000000E+00  0.00000000E+00  0.00000000E+00
  0.00000000E+00  0.00000000E+00  0.00000000E+00  0.00000000E+00  0.00000000E+00
  0.00000000E+00  0.00000000E+00  0.00000000E+00  0.00000000E+00  0.00000000E+00
  0.00000000E+00
Coordinates of each shell                  R   N=         198
 -6.59803696E-05  1.19050092E+00  1.03876792E-04 -6.59803696E-05  1.19050092E+00
  1.03876792E-04 -6.59803696E-05  1.19050092E+00  1.03876792E-04 -6.59803696E-05
  1.19050092E+00  1.03876792E-04 -6.59803696E-05  1.19050092E+00  1.03876792E-04
 -6.59803696E-05  1.19050092E+00  1.03876792E-04 -6.59803696E-05  1.19050092E+00
  1.03876792E-04 -6.59803696E-05  1.19050092E+00  1.03876792E-04 -6.59803696E-05
  1.19050092E+00  1.03876792E-04 -6.59803696E-05  1.19050092E+00  1.03876792E-04
 -6.59803696E-05  1.19050092E+00  1.03876792E-04 -6.59803696E-05  1.19050092E+00
  1.03876792E-04 -1.82985201E+00 -7.95234527E-01 -1.55198678E+00 -1.82985201E+00
 -7.95234527E-01 -1.55198678E+00 -1.82985201E+00 -7.95234527E-01 -1.55198678E+00
 -1.82985201E+00 -7.95234527E-01 -1.55198678E+00 -1.82985201E+00 -7.95234527E-01
 -1.55198678E+00  1.83042846E+00 -7.94550670E-01  1.55180903E+00  1.83042846E+00
 -7.94550670E-01  1.55180903E+00  1.83042846E+00 -7.94550670E-01  1.55180903E+00
  1.83042846E+00 -7.94550670E-01  1.55180903E+00  1.83042846E+00 -7.94550670E-01
  1.55180903E+00 -1.48583472E+00  2.55682970E+00  1.98381176E+00 -1.48583472E+00
  2.55682970E+00  1.98381176E+00 -1.48583472E+00  2.55682970E+00  1.98381176E+00
 -1.48583472E+00  2.55682970E+00  1.98381176E+00 -1.48583472E+00  2.55682970E+00
  1.98381176E+00  1.48414391E+00  2.55812209E+00 -1.98360968E+00  1.48414391E+00
  2.55812209E+00 -1.98360968E+00  1.48414391E+00  2.55812209E+00 -1.98360968E+00
  1.48414391E+00  2.55812209E+00 -1.98360968E+00  1.48414391E+00  2.55812209E+00
 -1.98360968E+00 -3.39791662E+00 -2.41427241E+00 -1.02447781E-01 -3.39791662E+00
 -2.41427241E+00 -1.02447781E-01 -3.39791662E+00 -2.41427241E+00 -1.02447781E-01
 -3.39791662E+00 -2.41427241E+00 -1.02447781E-01 -3.39791662E+00 -2.41427241E+00
 -1.02447781E-01  3.39893128E+00 -2.41308041E+00  1.02298376E-01  3.39893128E+00
 -2.41308041E+00  1.02298376E-01  3.39893128E+00 -2.41308041E+00  1.02298376E-01
  3.39893128E+00 -2.41308041E+00  1.02298376E-01  3.39893128E+00 -2.41308041E+00
  1.02298376E-01 -2.26340072E+00 -3.68748680E+00  1.07601378E+00 -2.26340072E+00
 -3.68748680E+00  1.07601378E+00 -2.26340072E+00 -3.68748680E+00  1.07601378E+00
 -2.26340072E+00 -3.68748680E+00  1.07601378E+00 -4.52241145E+00 -3.53809059E+00
 -1.42016326E+00 -4.52241145E+00 -3.53809059E+00 -1.42016326E+00 -4.52241145E+00
 -3.53809059E+00 -1.42016326E+00 -4.52241145E+00 -3.53809059E+00 -1.42016326E+00
 -4.66202428E+00 -1.32383611E+00  1.12144091E+00 -4.66202428E+00 -1.32383611E+00
  1.12144091E+00 -4.66202428E+00 -1.32383611E+00  1.12144091E+00 -4.66202428E+00
 -1.32383611E+00  1.12144091E+00  4.66187501E+00 -1.32213025E+00 -1.12239534E+00
  4.66187501E+00 -1.32213025E+00 -1.12239534E+00  4.66187501E+00 -1.32213025E+00
 -1.12239534E+00  4.66187501E+00 -1.32213025E+00 -1.12239534E+00  2.26492356E+00
 -3.68737559E+00 -1.07549611E+00  2.26492356E+00 -3.68737559E+00 -1.07549611E+00
  2.26492356E+00 -3.68737559E+00 -1.07549611E+00  2.26492356E+00 -3.68737559E+00
 -1.07549611E+00  4.52485461E+00 -3.53581024E+00  1.41974363E+00  4.52485461E+00
 -3.53581024E+00  1.41974363E+00  4.52485461E+00 -3.53581024E+00  1.41974363E+00
  4.52485461E+00 -3.53581024E+00  1.41974363E+00
Constraint Structure                       R   N=          39
 -6.59803696E-05  1.19050092E+00  1.03876792E-04 -1.82985201E+00 -7.95234527E-01
 -1.55198678E+00  1.83042846E+00 -7.94550670E-01  1.55180903E+00 -1.48583472E+00
  2.55682970E+00  1.98381176E+00  1.48414391E+00  2.55812209E+00 -1.98360968E+00
 -3.39791662E+00 -2.41427241E+00 -1.02447781E-01  3.39893128E+00 -2.41308041E+00
  1.02298376E-01 -2.26340072E+00 -3.68748680E+00  1.07601378E+00 -4.52241145E+00
 -3.53809059E+00 -1.42016326E+00 -4.66202428E+00 -1.32383611E+00  1.12144091E+00
  4.66187501E+00 -1.32213025E+00 -1.12239534E+00  2.26492356E+00 -3.68737559E+00
 -1.07549611E+00  4.52485461E+00 -3.53581024E+00  1.41974363E+00
Num ILSW                                   I              100
ILSW                                       I   N=         100
           0           0           0           0           2           0
           0           0           0           0           0 13421772800
           0           0           0           0           0           0
           0           0           0           0           0           0
           1           0           0           0           0           0
           0           0      100000           0          -1           0
           0           0           0           0           0           0
           0           0           0           1           0           0
           0           0           1           0           0           0
           0           0           4          40           0           0
           0           0           0           0           0           0
           0           0           0           0           0           0
           0           0           0           0           0           0
           0           0           0           0           0           0
           0           0           0           0           0           0
           0           0           0           0           0           0
           0           0           0           0
Num RLSW                                   I               40
RLSW                                       R   N=          40
  1.00000000E+00  1.00000000E+00  1.00000000E+00  1.00000000E+00  1.00000000E+00
  0.00000000E+00  0.00000000E+00  1.00000000E+00  0.00000000E+00  0.00000000E+00
  0.00000000E+00  0.00000000E+00  1.00000000E+00  0.00000000E+00  0.00000000E+00
  0.00000000E+00  0.00000000E+00  1.00000000E+00  0.00000000E+00  0.00000000E+00
  0.00000000E+00  0.00000000E+00  1.00000000E+00  0.00000000E+00  0.00000000E+00
  0.00000000E+00  0.00000000E+00  1.00000000E+00  0.00000000E+00  0.00000000E+00
  0.00000000E+00  0.00000000E+00  0.00000000E+00  0.00000000E+00  0.00000000E+00
  0.00000000E+00  0.00000000E+00  0.00000000E+00  1.00000000E+00  1.00000000E+00
MxBond                                     I                4
NBond                                      I   N=          13
           4           2           2           1           1           4
           4           1           1           1           1           1
           1
IBond                                      I   N=          52
           2           3           4           5           1           6
           0           0           1           7           0           0
           1           0           0           0           1           0
           0           0           2           8           9          10
           3          11          12          13           6           0
           0           0           6           0           0           0
           6           0           0           0           7           0
           0           0           7           0           0           0
           7           0           0           0
RBond                                      R   N=          52
  1.00000000E+00  1.00000000E+00  2.00000000E+00  2.00000000E+00  1.00000000E+00
  1.00000000E+00  0.00000000E+00  0.00000000E+00  1.00000000E+00  1.00000000E+00
  0.00000000E+00  0.00000000E+00  2.00000000E+00  0.00000000E+00  0.00000000E+00
  0.00000000E+00  2.00000000E+00  0.00000000E+00  0.00000000E+00  0.00000000E+00
  1.00000000E+00  1.00000000E+00  1.00000000E+00  1.00000000E+00  1.00000000E+00
  1.00000000E+00  1.00000000E+00  1.00000000E+00  1.00000000E+00  0.00000000E+00
  0.00000000E+00  0.00000000E+00  1.00000000E+00  0.00000000E+00  0.00000000E+00
  0.00000000E+00  1.00000000E+00  0.00000000E+00  0.00000000E+00  0.00000000E+00
  1.00000000E+00  0.00000000E+00  0.00000000E+00  0.00000000E+00  1.00000000E+00
  0.00000000E+00  0.00000000E+00  0.00000000E+00  1.00000000E+00  0.00000000E+00
  0.00000000E+00  0.00000000E+00
Virial Ratio                               R      2.000418403229805E+00
SCF Energy                                 R     -7.196405558320535E+02
MP2 Energy                                 R     -7.208554466168819E+02
Total Energy                               R     -7.208554466168819E+02
Post-SCF wavefunction norm                 R      1.157162260702417E+00
RMS Density                                R      4.587177900090727E-09
External E-field                           R   N=          35
  0.00000000E+00  0.00000000E+00  0.00000000E+00  0.00000000E+00  0.00000000E+00
  0.00000000E+00  0.00000000E+00  0.00000000E+00  0.00000000E+00  0.00000000E+00
  0.00000000E+00  0.00000000E+00  0.00000000E+00  0.00000000E+00  0.00000000E+00
  0.00000000E+00  0.00000000E+00  0.00000000E+00  0.00000000E+00  0.00000000E+00
  0.00000000E+00  0.00000000E+00  0.00000000E+00  0.00000000E+00  0.00000000E+00
  0.00000000E+00  0.00000000E+00  0.00000000E+00  0.00000000E+00  0.00000000E+00
  0.00000000E+00  0.00000000E+00  0.00000000E+00  0.00000000E+00  0.00000000E+00
IOpCl                                      I                0
IROHF                                      I                0
Alpha Orbital Energies                     R   N=         170
 -7.98714688E+01 -2.03975757E+01 -2.03975111E+01 -2.02868770E+01 -2.02868447E+01
 -1.11383328E+01 -1.11382873E+01 -7.39465726E+00 -5.29315162E+00 -5.29260028E+00
 -5.29209522E+00 -1.24234777E+00 -1.19129676E+00 -1.09727142E+00 -1.05468355E+00
 -7.95656998E-01 -7.86323328E-01 -5.92672201E-01 -5.27248320E-01 -5.04888428E-01
 -4.83838524E-01 -4.69106041E-01 -4.61485706E-01 -4.14962383E-01 -3.70373978E-01
 -3.67446278E-01 -3.23577418E-01 -3.09570218E-01 -3.02230266E-01 -2.77661836E-01
 -2.60095459E-01 -2.39545407E-01 -2.23706124E-01  2.82744910E-01  3.02598135E-01
  3.47559471E-01  3.52007906E-01  3.67259529E-01  3.79308430E-01  4.07926473E-01
  4.35659906E-01  4.50903228E-01  4.73345517E-01  5.06284175E-01  5.71890226E-01
  5.88150937E-01  6.03862417E-01  6.23593766E-01  6.33457670E-01  6.45751006E-01
  6.46305098E-01  7.06531576E-01  7.90093130E-01  8.35831026E-01  8.41543222E-01
  9.12232479E-01  9.14135242E-01  9.19219110E-01  9.19700182E-01  9.45580876E-01
  9.51847207E-01  1.04517237E+00  1.05201653E+00  1.09512824E+00  1.14509534E+00
  1.15974335E+00  1.16911967E+00  1.21527377E+00  1.23910207E+00  1.25068553E+00
  1.34746269E+00  1.38062134E+00  1.38615572E+00  1.40808670E+00  1.44582164E+00
  1.44842689E+00  1.47477745E+00  1.50106319E+00  1.52863478E+00  1.57463117E+00
  1.63983238E+00  1.65873014E+00  1.68551036E+00  1.70276179E+00  1.81266236E+00
  1.81416540E+00  1.84671384E+00  1.85762018E+00  1.85921418E+00  1.89085197E+00
  1.89125458E+00  1.89478068E+00  1.95627035E+00  1.99903598E+00  2.01221334E+00
  2.02215419E+00  2.07317926E+00  2.08407090E+00  2.08938201E+00  2.14538369E+00
  2.17213859E+00  2.26044282E+00  2.34484496E+00  2.41805299E+00  2.44625053E+00
  2.52495421E+00  2.53833149E+00  2.54613491E+00  2.57241432E+00  2.78210238E+00
  2.79702838E+00  2.85072876E+00  2.87602239E+00  2.92271037E+00  2.94698211E+00
  2.95263998E+00  2.96971589E+00  2.97639457E+00  2.99416018E+00  3.21350505E+00
  3.28849192E+00  3.36272440E+00  3.41864841E+00  3.42740261E+00  3.43160410E+00
  3.45117953E+00  3.45385059E+00  3.47564893E+00  3.47877427E+00  3.50925463E+00
  3.55937712E+00  3.62453864E+00  3.66444612E+00  3.66982325E+00  3.70094749E+00
  3.73039856E+00  3.73777406E+00  3.84256862E+00  3.95279356E+00  4.12169563E+00
  4.15403493E+00  4.28544581E+00  4.32632658E+00  4.33146983E+00  4.35082946E+00
  4.55286186E+00  4.61170040E+00  5.57377490E+00  5.59776544E+00  5.64203570E+00
  5.64695341E+00  5.65333375E+00  5.66841126E+00  5.67105802E+00  5.78060560E+00
  5.88741798E+00  5.99777752E+00  6.18299942E+00  6.21470691E+00  7.88426437E+00
  1.50000092E+01  1.51401321E+01  1.53012400E+01  2.51430058E+01  2.51554045E+01
  5.17049192E+01  5.17120230E+01  5.17541798E+01  5.18371928E+01  1.66408284E+02
Alpha MO coefficients                      R   N=       28900
  4.19271982E-01  6.46642243E-01  1.07527953E-02 -1.06595341E-03  4.60939410E-04
 -1.62759280E-04  4.55034399E-08 -7.57715185E-05  1.32347547E-08 -1.50947588E-08
  2.67529148E-05 -3.45053048E-09  1.57261531E-08 -2.38062353E-05  2.88850727E-09
 -1.54421889E-08  2.72631115E-05 -1.44447429E-08 -5.76526378E-09  5.32490590E-05
  4.30524031E-09  2.44456704E-06 -1.27585691E-05 -1.67640982E-08  1.04199049E-07
 -8.97825116E-10  5.43721981E-07 -6.14513122E-07  2.61510286E-06  3.04588006E-06
  5.51695723E-07  1.63938923E-05 -7.53372911E-06 -8.60432562E-06  2.35297327E-07
 -5.38230847E-05  2.34345507E-06 -1.74827616E-06 -4.53439171E-05  8.81376525E-08
 -6.20641316E-06 -7.28788244E-06  1.16993475E-06 -1.21464556E-05  5.43619226E-07
 -6.13144367E-07 -2.61881526E-06  3.04580264E-06 -5.51846226E-07  1.63916373E-05
  7.54538069E-06 -8.60569279E-06 -2.33531825E-07 -5.38294892E-05 -2.33951233E-06
 -1.75335621E-06  4.53486840E-05  9.03997791E-08 -6.21177086E-06  7.28716287E-06
  1.16137138E-06  1.21517523E-05  8.20680253E-08  1.83485347E-06  2.97891929E-06
 -3.51422444E-06 -3.38784157E-06  6.91562828E-06 -1.38325521E-05  1.50804131E-05
  1.63900081E-05 -4.67573466E-05 -2.02972664E-05  1.03927572E-05  3.23758104E-05
 -5.07802155E-06  1.42419816E-05 -1.30094625E-05 -4.82208378E-07  9.11255669E-06
  8.17154913E-08  1.83690642E-06 -2.97558691E-06 -3.51796285E-06  3.38749184E-06
  6.90885846E-06  1.38225977E-05  1.51012832E-05 -1.63962427E-05 -4.67755663E-05
  2.02903885E-05  1.04090056E-05 -3.23869153E-05 -5.08064468E-06  1.42305271E-05
  1.30239328E-05 -4.64585660E-07 -9.11386738E-06 -1.39543869E-07  2.90654787E-07
 -1.88303906E-06 -1.85553342E-06  4.09181180E-08 -9.93448541E-06  6.64365362E-06
  6.86261389E-06  6.91991611E-08  8.01327708E-05  4.08330959E-05  4.29190259E-05
  2.58238770E-05 -5.99619024E-06 -2.36765682E-06 -2.37982733E-06 -1.79006406E-07
  2.96261838E-06 -1.39477006E-07  2.90423774E-07  1.88316073E-06 -1.85493007E-06
 -3.99990136E-08 -9.93295799E-06 -6.64745249E-06  6.85910490E-06 -7.32838618E-08
  8.01328979E-05 -4.08690988E-05  4.28968572E-05 -2.58286400E-05 -5.99569020E-06
 -2.36908398E-06  2.37818830E-06 -1.80802398E-07 -2.96063858E-06  2.17742173E-06
 -2.36926215E-05  4.59606286E-06  9.25253561E-09 -4.44944112E-06 -1.22328199E-06
 -5.66608723E-07  1.24827860E-05  1.12219902E-05  5.85381186E-07  2.68975365E-07
  2.42193834E-06  2.50925113E-06 -2.54513495E-05  6.37294757E-07 -4.79238997E-06
 -1.68948750E-07 -1.12701762E-06  2.50833786E-06 -2.54537006E-05  6.42674711E-07
  4.79087391E-06 -1.63634655E-07  1.12590264E-06  2.17895084E-06 -2.36994930E-05
  4.59023866E-06 -4.86890018E-09 -4.45480191E-06  1.22356799E-06 -5.67754759E-07
  1.24898802E-05  1.12245212E-05 -5.89368304E-07  2.67377322E-07 -2.42164707E-06
  2.13112379E-06  5.33008781E-06 -5.44414411E-06 -4.66479233E-05  1.35958634E-05
  5.00889520E-04 -6.08604800E-06  6.08472022E-06 -4.34810409E-06 -2.34770824E-05
  1.81174129E-05 -1.95380511E-05  3.18372851E-05 -1.50484180E-05  4.10295521E-05
  1.37057620E-04 -1.30612327E-04  3.57780755E-05  2.23882820E-05 -1.29939773E-04
  1.21500175E-04 -2.45566747E-05  3.57135379E-05 -4.95185812E-05 -4.85799076E-06
 -6.41387345E-05 -6.48046850E-02 -5.54289942E-02  1.22002795E-05  2.04880574E-05
 -1.74612197E-04 -6.39138710E-04 -6.67513008E-06 -1.18274228E-05  5.20710321E-05
 -3.02607135E-05 -8.33616106E-05 -1.88822277E-05 -3.52328468E-05 -1.39915993E-06
 -1.18757118E-05 -6.19109411E-06 -6.47359640E-06  1.46804923E-05  5.47634034E-01