DiMethylPhosphate0H Gaussian OPT Calculation on node37.bme.utexas.edu   
FOpt      RwB97XD                                                     6-31G(d)            
Number of atoms                            I               13
Info1-9                                    I   N=           9
          24          24           0           0           0         110
           2          18        -802
Charge                                     I               -1
Multiplicity                               I                1
Number of electrons                        I               66
Number of alpha electrons                  I               33
Number of beta electrons                   I               33
Number of basis functions                  I              121
Number of independent functions            I              121
Number of point charges in /Mol/           I                0
Number of translation vectors              I                0
Atomic numbers                             I   N=          13
          15           8           8           8           8           6
           6           1           1           1           1           1
           1
Nuclear charges                            R   N=          13
  1.50000000E+01  8.00000000E+00  8.00000000E+00  8.00000000E+00  8.00000000E+00
  6.00000000E+00  6.00000000E+00  1.00000000E+00  1.00000000E+00  1.00000000E+00
  1.00000000E+00  1.00000000E+00  1.00000000E+00
Current cartesian coordinates              R   N=          39
  6.58233635E-05 -1.19050151E+00  1.03455476E-04  1.82985136E+00  7.95235392E-01
 -1.55198714E+00 -1.83042896E+00  7.94551408E-01  1.55180909E+00  1.48583552E+00
 -2.55682886E+00  1.98381199E+00 -1.48414375E+00 -2.55812293E+00 -1.98360954E+00
  3.39791662E+00  2.41427187E+00 -1.02447791E-01 -3.39893076E+00  2.41308055E+00
  1.02299340E-01  2.26340135E+00  3.68748658E+00  1.07601438E+00  4.52241107E+00
  3.53809094E+00 -1.42016292E+00  4.66202335E+00  1.32383562E+00  1.12144029E+00
 -4.66187428E+00  1.32212903E+00 -1.12239538E+00 -2.26492291E+00  3.68737578E+00
 -1.07549682E+00 -4.52485440E+00  3.53581008E+00  1.41974409E+00
Force Field                                I                0
Int Atom Types                             I   N=          13
           0           0           0           0           0           0
           0           0           0           0           0           0
           0
MM charges                                 R   N=          13
  0.00000000E+00  0.00000000E+00  0.00000000E+00  0.00000000E+00  0.00000000E+00
  0.00000000E+00  0.00000000E+00  0.00000000E+00  0.00000000E+00  0.00000000E+00
  0.00000000E+00  0.00000000E+00  0.00000000E+00
Integer atomic weights                     I   N=          13
          31          16          16          16          16          12
          12           1           1           1           1           1
           1
Real atomic weights                        R   N=          13
  3.09737634E+01  1.59949146E+01  1.59949146E+01  1.59949146E+01  1.59949146E+01
  1.20000000E+01  1.20000000E+01  1.00782504E+00  1.00782504E+00  1.00782504E+00
  1.00782504E+00  1.00782504E+00  1.00782504E+00
Atom fragment info                         I   N=          13
           0           0           0           0           0           0
           0           0           0           0           0           0
           0
Atom residue num                           I   N=          13
           0           0           0           0           0           0
           0           0           0           0           0           0
           0
Nuclear spins                              I   N=          13
           1           0           0           0           0           0
           0           1           1           1           1           1
           1
Nuclear ZEff                               R   N=          13
 -1.29400000E+01 -5.60000000E+00 -5.60000000E+00 -5.60000000E+00 -5.60000000E+00
 -3.60000000E+00 -3.60000000E+00 -1.00000000E+00 -1.00000000E+00 -1.00000000E+00
 -1.00000000E+00 -1.00000000E+00 -1.00000000E+00
Nuclear QMom                               R   N=          13
  0.00000000E+00  0.00000000E+00  0.00000000E+00  0.00000000E+00  0.00000000E+00
  0.00000000E+00  0.00000000E+00  0.00000000E+00  0.00000000E+00  0.00000000E+00
  0.00000000E+00  0.00000000E+00  0.00000000E+00
Nuclear GFac                               R   N=          13
  1.13160000E+00  0.00000000E+00  0.00000000E+00  0.00000000E+00  0.00000000E+00
  0.00000000E+00  0.00000000E+00  2.79284600E+00  2.79284600E+00  2.79284600E+00
  2.79284600E+00  2.79284600E+00  2.79284600E+00
MicOpt                                     I   N=          13
          -1          -1          -1          -1          -1          -1
          -1          -1          -1          -1          -1          -1
          -1
Number of contracted shells                I               41
Number of primitive shells                 I              107
Pure/Cartesian d shells                    I                1
Pure/Cartesian f shells                    I                0
Highest angular momentum                   I                2
Largest degree of contraction              I                6
Shell types                                I   N=          41
           0          -1          -1          -1           2           0
          -1          -1           2           0          -1          -1
           2           0          -1          -1           2           0
          -1          -1           2           0          -1          -1
           2           0          -1          -1           2           0
           0           0           0           0           0           0
           0           0           0           0           0
Number of primitives per shell             I   N=          41
           6           6           3           1           1           6
           3           1           1           6           3           1
           1           6           3           1           1           6
           3           1           1           6           3           1
           1           6           3           1           1           3
           1           3           1           3           1           3
           1           3           1           3           1
Shell to atom map                          I   N=          41
           1           1           1           1           1           2
           2           2           2           3           3           3
           3           4           4           4           4           5
           5           5           5           6           6           6
           6           7           7           7           7           8
           8           9           9          10          10          11
          11          12          12          13          13
Primitive exponents                        R   N=         107
  1.94133000E+04  2.90942000E+03  6.61364000E+02  1.85759000E+02  5.91943000E+01
  2.00310000E+01  3.39478000E+02  8.10101000E+01  2.58780000E+01  9.45221000E+00
  3.66566000E+00  1.46746000E+00  2.15623000E+00  7.48997000E-01  2.83145000E-01
  9.98317000E-02  5.50000000E-01  5.48467166E+03  8.25234946E+02  1.88046958E+02
  5.29645000E+01  1.68975704E+01  5.79963534E+00  1.55396162E+01  3.59993359E+00
  1.01376175E+00  2.70005823E-01  8.00000000E-01  5.48467166E+03  8.25234946E+02
  1.88046958E+02  5.29645000E+01  1.68975704E+01  5.79963534E+00  1.55396162E+01
  3.59993359E+00  1.01376175E+00  2.70005823E-01  8.00000000E-01  5.48467166E+03
  8.25234946E+02  1.88046958E+02  5.29645000E+01  1.68975704E+01  5.79963534E+00
  1.55396162E+01  3.59993359E+00  1.01376175E+00  2.70005823E-01  8.00000000E-01
  5.48467166E+03  8.25234946E+02  1.88046958E+02  5.29645000E+01  1.68975704E+01
  5.79963534E+00  1.55396162E+01  3.59993359E+00  1.01376175E+00  2.70005823E-01
  8.00000000E-01  3.04752488E+03  4.57369518E+02  1.03948685E+02  2.92101553E+01
  9.28666296E+00  3.16392696E+00  7.86827235E+00  1.88128854E+00  5.44249258E-01
  1.68714478E-01  8.00000000E-01  3.04752488E+03  4.57369518E+02  1.03948685E+02
  2.92101553E+01  9.28666296E+00  3.16392696E+00  7.86827235E+00  1.88128854E+00
  5.44249258E-01  1.68714478E-01  8.00000000E-01  1.87311370E+01  2.82539436E+00
  6.40121692E-01  1.61277759E-01  1.87311370E+01  2.82539436E+00  6.40121692E-01
  1.61277759E-01  1.87311370E+01  2.82539436E+00  6.40121692E-01  1.61277759E-01
  1.87311370E+01  2.82539436E+00  6.40121692E-01  1.61277759E-01  1.87311370E+01
  2.82539436E+00  6.40121692E-01  1.61277759E-01  1.87311370E+01  2.82539436E+00
  6.40121692E-01  1.61277759E-01
Contraction coefficients                   R   N=         107
  1.85159892E-03  1.42061917E-02  6.99994593E-02  2.40078860E-01  4.84761718E-01
  3.35199805E-01 -2.78217010E-03 -3.60499014E-02 -1.16631004E-01  9.68328036E-02
  6.14418023E-01  4.03798015E-01 -2.52924114E-01  3.28518447E-02  1.08125476E+00
  1.00000000E+00  1.00000000E+00  1.83107443E-03  1.39501722E-02  6.84450781E-02
  2.32714336E-01  4.70192898E-01  3.58520853E-01 -1.10777550E-01 -1.48026263E-01
  1.13076702E+00  1.00000000E+00  1.00000000E+00  1.83107443E-03  1.39501722E-02
  6.84450781E-02  2.32714336E-01  4.70192898E-01  3.58520853E-01 -1.10777550E-01
 -1.48026263E-01  1.13076702E+00  1.00000000E+00  1.00000000E+00  1.83107443E-03
  1.39501722E-02  6.84450781E-02  2.32714336E-01  4.70192898E-01  3.58520853E-01
 -1.10777550E-01 -1.48026263E-01  1.13076702E+00  1.00000000E+00  1.00000000E+00
  1.83107443E-03  1.39501722E-02  6.84450781E-02  2.32714336E-01  4.70192898E-01
  3.58520853E-01 -1.10777550E-01 -1.48026263E-01  1.13076702E+00  1.00000000E+00
  1.00000000E+00  1.83473713E-03  1.40373228E-02  6.88426223E-02  2.32184443E-01
  4.67941348E-01  3.62311985E-01 -1.19332420E-01 -1.60854152E-01  1.14345644E+00
  1.00000000E+00  1.00000000E+00  1.83473713E-03  1.40373228E-02  6.88426223E-02
  2.32184443E-01  4.67941348E-01  3.62311985E-01 -1.19332420E-01 -1.60854152E-01
  1.14345644E+00  1.00000000E+00  1.00000000E+00  3.34946043E-02  2.34726953E-01
  8.13757326E-01  1.00000000E+00  3.34946043E-02  2.34726953E-01  8.13757326E-01
  1.00000000E+00  3.34946043E-02  2.34726953E-01  8.13757326E-01  1.00000000E+00
  3.34946043E-02  2.34726953E-01  8.13757326E-01  1.00000000E+00  3.34946043E-02
  2.34726953E-01  8.13757326E-01  1.00000000E+00  3.34946043E-02  2.34726953E-01
  8.13757326E-01  1.00000000E+00
P(S=P) Contraction coefficients            R   N=         107
  0.00000000E+00  0.00000000E+00  0.00000000E+00  0.00000000E+00  0.00000000E+00
  0.00000000E+00  4.56461619E-03  3.36935719E-02  1.39754883E-01  3.39361717E-01
  4.50920624E-01  2.38585801E-01 -1.77653127E-02  2.74058196E-01  7.85421563E-01
  1.00000000E+00  0.00000000E+00  0.00000000E+00  0.00000000E+00  0.00000000E+00
  0.00000000E+00  0.00000000E+00  0.00000000E+00  7.08742682E-02  3.39752839E-01
  7.27158577E-01  1.00000000E+00  0.00000000E+00  0.00000000E+00  0.00000000E+00
  0.00000000E+00  0.00000000E+00  0.00000000E+00  0.00000000E+00  7.08742682E-02
  3.39752839E-01  7.27158577E-01  1.00000000E+00  0.00000000E+00  0.00000000E+00
  0.00000000E+00  0.00000000E+00  0.00000000E+00  0.00000000E+00  0.00000000E+00
  7.08742682E-02  3.39752839E-01  7.27158577E-01  1.00000000E+00  0.00000000E+00
  0.00000000E+00  0.00000000E+00  0.00000000E+00  0.00000000E+00  0.00000000E+00
  0.00000000E+00  7.08742682E-02  3.39752839E-01  7.27158577E-01  1.00000000E+00
  0.00000000E+00  0.00000000E+00  0.00000000E+00  0.00000000E+00  0.00000000E+00
  0.00000000E+00  0.00000000E+00  6.89990666E-02  3.16423961E-01  7.44308291E-01
  1.00000000E+00  0.00000000E+00  0.00000000E+00  0.00000000E+00  0.00000000E+00
  0.00000000E+00  0.00000000E+00  0.00000000E+00  6.89990666E-02  3.16423961E-01
  7.44308291E-01  1.00000000E+00  0.00000000E+00  0.00000000E+00  0.00000000E+00
  0.00000000E+00  0.00000000E+00  0.00000000E+00  0.00000000E+00  0.00000000E+00
  0.00000000E+00  0.00000000E+00  0.00000000E+00  0.00000000E+00  0.00000000E+00
  0.00000000E+00  0.00000000E+00  0.00000000E+00  0.00000000E+00  0.00000000E+00
  0.00000000E+00  0.00000000E+00  0.00000000E+00  0.00000000E+00  0.00000000E+00
  0.00000000E+00  0.00000000E+00
Coordinates of each shell                  R   N=         123
  6.58233635E-05 -1.19050151E+00  1.03455476E-04  6.58233635E-05 -1.19050151E+00
  1.03455476E-04  6.58233635E-05 -1.19050151E+00  1.03455476E-04  6.58233635E-05
 -1.19050151E+00  1.03455476E-04  6.58233635E-05 -1.19050151E+00  1.03455476E-04
  1.82985136E+00  7.95235392E-01 -1.55198714E+00  1.82985136E+00  7.95235392E-01
 -1.55198714E+00  1.82985136E+00  7.95235392E-01 -1.55198714E+00  1.82985136E+00
  7.95235392E-01 -1.55198714E+00 -1.83042896E+00  7.94551408E-01  1.55180909E+00
 -1.83042896E+00  7.94551408E-01  1.55180909E+00 -1.83042896E+00  7.94551408E-01
  1.55180909E+00 -1.83042896E+00  7.94551408E-01  1.55180909E+00  1.48583552E+00
 -2.55682886E+00  1.98381199E+00  1.48583552E+00 -2.55682886E+00  1.98381199E+00
  1.48583552E+00 -2.55682886E+00  1.98381199E+00  1.48583552E+00 -2.55682886E+00
  1.98381199E+00 -1.48414375E+00 -2.55812293E+00 -1.98360954E+00 -1.48414375E+00
 -2.55812293E+00 -1.98360954E+00 -1.48414375E+00 -2.55812293E+00 -1.98360954E+00
 -1.48414375E+00 -2.55812293E+00 -1.98360954E+00  3.39791662E+00  2.41427187E+00
 -1.02447791E-01  3.39791662E+00  2.41427187E+00 -1.02447791E-01  3.39791662E+00
  2.41427187E+00 -1.02447791E-01  3.39791662E+00  2.41427187E+00 -1.02447791E-01
 -3.39893076E+00  2.41308055E+00  1.02299340E-01 -3.39893076E+00  2.41308055E+00
  1.02299340E-01 -3.39893076E+00  2.41308055E+00  1.02299340E-01 -3.39893076E+00
  2.41308055E+00  1.02299340E-01  2.26340135E+00  3.68748658E+00  1.07601438E+00
  2.26340135E+00  3.68748658E+00  1.07601438E+00  4.52241107E+00  3.53809094E+00
 -1.42016292E+00  4.52241107E+00  3.53809094E+00 -1.42016292E+00  4.66202335E+00
  1.32383562E+00  1.12144029E+00  4.66202335E+00  1.32383562E+00  1.12144029E+00
 -4.66187428E+00  1.32212903E+00 -1.12239538E+00 -4.66187428E+00  1.32212903E+00
 -1.12239538E+00 -2.26492291E+00  3.68737578E+00 -1.07549682E+00 -2.26492291E+00
  3.68737578E+00 -1.07549682E+00 -4.52485440E+00  3.53581008E+00  1.41974409E+00
 -4.52485440E+00  3.53581008E+00  1.41974409E+00
Constraint Structure                       R   N=          39
 -8.81173727E-02 -1.10198911E+00 -8.79498730E-02  1.97514362E+00  6.37311106E-01
 -1.52918328E+00 -1.85033803E+00  8.75132791E-01  1.44587152E+00  1.50682207E+00
 -2.47347208E+00  2.13239911E+00 -1.51011412E+00 -2.89335937E+00 -1.76820447E+00
  3.43923459E+00  2.40429341E+00 -1.48047608E-01 -3.39540289E+00  2.55722278E+00
  4.73407383E-02  2.21786124E+00  3.76745776E+00  8.06892523E-01  4.66579108E+00
  3.41596737E+00 -1.46613361E+00  4.61433813E+00  1.42125403E+00  1.23685296E+00
 -4.76848198E+00  1.48566209E+00 -1.06337234E+00 -2.23825006E+00  3.72239625E+00
 -1.20492148E+00 -4.40459630E+00  3.78310251E+00  1.36710814E+00
Num ILSW                                   I              100
ILSW                                       I   N=         100
           0           1           0           0           2           0
           0           0           0           0        4639 13421772800
           0           0           0           0           0           0
           0           0           0           0           1           0
           1           0           0           0           0           0
           0           0      100000           0          -1           0
           0           0           0           0           0           0
           0           0           0           1           0           0
           0           0           1           0           0           0
           0           0           2          40           0           0
           0           0          58           0           0           0
           0           0           0           0           0           0
           0           0           0           0           0           0
           0           0           0           0           0           0
           0           0           0           0           0           0
           0           0           0           0           0           0
           0           0           0           0
Num RLSW                                   I               40
RLSW                                       R   N=          40
  1.00000000E+00  1.00000000E+00  1.00000000E+00  1.00000000E+00  1.00000000E+00
  0.00000000E+00  2.00000000E-01  2.22036000E-01  0.00000000E+00  7.77964000E-01
  0.00000000E+00  2.00000000E-01  0.00000000E+00  0.00000000E+00  1.00000000E+00
  0.00000000E+00  0.00000000E+00  1.00000000E+00  0.00000000E+00  0.00000000E+00
  0.00000000E+00  0.00000000E+00  1.00000000E+00  0.00000000E+00  0.00000000E+00
  0.00000000E+00  0.00000000E+00  1.00000000E+00  0.00000000E+00  0.00000000E+00
  0.00000000E+00  0.00000000E+00  0.00000000E+00  0.00000000E+00  0.00000000E+00
  0.00000000E+00  0.00000000E+00  0.00000000E+00  1.00000000E+00  1.00000000E+00
MxBond                                     I                4
NBond                                      I   N=          13
           4           2           2           1           1           4
           4           1           1           1           1           1
           1
IBond                                      I   N=          52
           2           3           4           5           1           6
           0           0           1           7           0           0
           1           0           0           0           1           0
           0           0           2           8           9          10
           3          11          12          13           6           0
           0           0           6           0           0           0
           6           0           0           0           7           0
           0           0           7           0           0           0
           7           0           0           0
RBond                                      R   N=          52
  1.00000000E+00  1.00000000E+00  1.00000000E+00  2.00000000E+00  1.00000000E+00
  1.00000000E+00  0.00000000E+00  0.00000000E+00  1.00000000E+00  1.00000000E+00
  0.00000000E+00  0.00000000E+00  1.00000000E+00  0.00000000E+00  0.00000000E+00
  0.00000000E+00  2.00000000E+00  0.00000000E+00  0.00000000E+00  0.00000000E+00
  1.00000000E+00  1.00000000E+00  1.00000000E+00  1.00000000E+00  1.00000000E+00
  1.00000000E+00  1.00000000E+00  1.00000000E+00  1.00000000E+00  0.00000000E+00
  0.00000000E+00  0.00000000E+00  1.00000000E+00  0.00000000E+00  0.00000000E+00
  0.00000000E+00  1.00000000E+00  0.00000000E+00  0.00000000E+00  0.00000000E+00
  1.00000000E+00  0.00000000E+00  0.00000000E+00  0.00000000E+00  1.00000000E+00
  0.00000000E+00  0.00000000E+00  0.00000000E+00  1.00000000E+00  0.00000000E+00
  0.00000000E+00  0.00000000E+00
Virial Ratio                               R      2.006357761455799E+00
SCF Energy                                 R     -7.221637392581667E+02
Total Energy                               R     -7.221637392581667E+02
RMS Force                                  R      4.342935840892955E-05
RMS Density                                R      6.168217896560858E-09
External E-field                           R   N=          35
  0.00000000E+00  0.00000000E+00  0.00000000E+00  0.00000000E+00  0.00000000E+00
  0.00000000E+00  0.00000000E+00  0.00000000E+00  0.00000000E+00  0.00000000E+00
  0.00000000E+00  0.00000000E+00  0.00000000E+00  0.00000000E+00  0.00000000E+00
  0.00000000E+00  0.00000000E+00  0.00000000E+00  0.00000000E+00  0.00000000E+00
  0.00000000E+00  0.00000000E+00  0.00000000E+00  0.00000000E+00  0.00000000E+00
  0.00000000E+00  0.00000000E+00  0.00000000E+00  0.00000000E+00  0.00000000E+00
  0.00000000E+00  0.00000000E+00  0.00000000E+00  0.00000000E+00  0.00000000E+00
IOpCl                                      I                0
IROHF                                      I                0
Alpha Orbital Energies                     R   N=         121
 -7.73237058E+01 -1.92622969E+01 -1.92622462E+01 -1.91869768E+01 -1.91869518E+01
 -1.03286315E+01 -1.03286059E+01 -6.73178206E+00 -4.88231739E+00 -4.88072226E+00
 -4.87855739E+00 -1.14277425E+00 -1.09378406E+00 -1.02980803E+00 -9.92300313E-01
 -7.79049397E-01 -7.68384430E-01 -6.25024163E-01 -5.74263062E-01 -5.41894531E-01
 -5.32310815E-01 -5.17341137E-01 -5.05197286E-01 -4.81151979E-01 -4.37891476E-01
 -4.25062884E-01 -3.96202873E-01 -3.66678578E-01 -3.62854280E-01 -3.61979025E-01
 -3.38912058E-01 -3.27219408E-01 -3.14201151E-01  1.74698524E-01  2.18701222E-01
  2.19178086E-01  2.31014624E-01  2.42193925E-01  2.57595892E-01  2.61967421E-01
  2.81850950E-01  3.00373353E-01  3.11724520E-01  3.33435407E-01  3.34836696E-01
  4.42737440E-01  4.56013395E-01  5.10154954E-01  5.36211878E-01  5.99935968E-01
  6.47682566E-01  6.51204638E-01  7.12429255E-01  7.26674341E-01  7.46087366E-01
  7.81417145E-01  8.42443205E-01  9.24677285E-01  9.29555959E-01  9.48300918E-01
  9.54325215E-01  9.62521049E-01  9.75630660E-01  1.02275556E+00  1.02427009E+00
  1.06572265E+00  1.10300032E+00  1.11711108E+00  1.12259649E+00  1.14321099E+00
  1.16234359E+00  1.21565239E+00  1.21803147E+00  1.24348109E+00  1.24979285E+00
  1.29824795E+00  1.32890938E+00  1.33908910E+00  1.37208168E+00  1.46752471E+00
  1.57527857E+00  1.61335739E+00  1.61959587E+00  1.62449194E+00  1.67276343E+00
  1.68636440E+00  1.76612363E+00  1.82908035E+00  1.89722062E+00  1.93896104E+00
  1.95293255E+00  1.95686828E+00  1.99090897E+00  2.04503410E+00  2.09398887E+00
  2.13882834E+00  2.16039218E+00  2.16565566E+00  2.21544152E+00  2.24872478E+00
  2.25502633E+00  2.27128250E+00  2.32531811E+00  2.43959623E+00  2.46289488E+00
  2.47538031E+00  2.51005336E+00  2.53838526E+00  2.65511790E+00  2.74960571E+00
  2.86994392E+00  2.87002288E+00  2.98845338E+00  2.99561758E+00  3.64060553E+00
  3.87029482E+00  3.90203922E+00  4.15028013E+00  4.16651573E+00  4.36677567E+00
  4.38006067E+00
Alpha MO coefficients                      R   N=       14641
  9.96281638E-01  1.40619158E-02 -1.56641267E-08  4.73923191E-05 -3.05210395E-09
 -2.67052814E-02 -1.57993091E-08 -7.98804236E-05  6.95744281E-08  2.36024586E-03
 -2.08358220E-07  2.54337211E-05  3.43313364E-08  9.27187905E-03  9.26722697E-03
  9.29007590E-03 -2.78965545E-09 -1.97415120E-05 -9.89030959E-09 -1.74066757E-05
 -7.96350907E-05  2.84435196E-05  3.83357113E-05 -6.06625781E-05  8.51548051E-04
 -1.79925075E-04 -2.17284913E-04  3.12076385E-04 -1.12625933E-04 -1.26966545E-04
 -8.88294399E-05 -7.37367710E-05  9.41221274E-05  9.72561301E-05 -1.73984350E-05
 -7.96467234E-05 -2.85146464E-05  3.83697149E-05  6.06972729E-05  8.51517464E-04
  1.80069026E-04 -2.17194516E-04 -3.12042126E-04 -1.12679190E-04 -1.26938753E-04
 -8.87995033E-05  7.37814482E-05  9.41622422E-05 -9.72315259E-05 -3.41221063E-06
 -1.03852334E-04  9.83293782E-05 -8.67620513E-05  1.36310799E-04  7.83255141E-04
 -2.53760725E-04  2.31506833E-04 -3.59121635E-04 -5.41189182E-05 -4.17512150E-05
 -9.87015087E-05  6.94320342E-05 -9.53601953E-05  8.59012378E-05 -3.40943866E-06
 -1.03897477E-04 -9.82799854E-05 -8.68889032E-05 -1.36363095E-04  7.83219601E-04
  2.53597900E-04  2.31762638E-04  3.59131746E-04 -5.39491585E-05 -4.18259624E-05
 -9.86854744E-05 -6.94224099E-05 -9.52498110E-05 -8.59753831E-05 -1.74611330E-05
 -8.76749513E-05  4.22924232E-05  3.92950970E-05 -1.51169564E-05  1.62059015E-04
  2.12419601E-05  4.65477306E-05  1.23742509E-04 -3.72244869E-05 -3.83978138E-05
 -1.21558772E-06  8.54062057E-06 -1.08479911E-05 -1.39739781E-05 -1.74600727E-05
 -8.76800040E-05 -4.23155909E-05  3.92634655E-05  1.51384129E-05  1.62047220E-04
 -2.12370703E-05  4.65816869E-05 -1.23777849E-04 -3.72225840E-05 -3.83885161E-05
 -1.20328955E-06 -8.54198359E-06 -1.08277513E-05  1.39700120E-05 -2.27457078E-06
 -1.79200619E-04 -1.58264194E-05  3.63415732E-05  3.46666813E-06 -1.79967093E-04
  3.43150835E-06 -1.79998320E-04 -2.24675717E-06 -1.79228353E-04 -1.58180306E-05
  3.63337798E-05  9.02828005E-06  5.74767302E-06  4.27490612E-05 -5.58366441E-05
 -4.40954462E-05  2.21893871E-04 -1.01242067E-04  2.21901149E-04  1.04810332E-04
 -2.97266245E-03  8.27279282E-05 -1.25409382E-03 -1.02539314E-03  1.01803990E-04
  1.62879996E-04  5.50956654E-06 -1.75307489E-04 -1.63220666E-04  1.61883648E-04
 -1.27562546E-02 -4.38814209E-04  1.38112898E-05  7.69592624E-06 -1.85325130E-06
  5.40057835E-04 -2.55896223E-04 -2.02517520E-04  4.76169098E-05  2.20827816E-05
  4.01427485E-05  1.03984791E-05  1.51763090E-05  2.59392799E-05 -5.30125227E-05
  9.92823953E-01  2.53882832E-02 -1.35201431E-04  9.26054695E-05 -8.55701877E-04
  1.16102168E-02  3.76521686E-04 -2.02142415E-04  1.54102283E-04 -7.78544308E-03
 -7.82093817E-03 -7.84322659E-03  1.05203315E-04 -5.64807630E-05  4.53680131E-05
 -5.40307335E-05 -2.37330571E-04 -1.32522556E-05 -2.21541159E-05 -2.40704993E-05
  1.43985957E-03 -1.10305361E-04  3.22828837E-04 -6.28574091E-05 -1.84450590E-04
 -1.62812744E-04 -1.65573430E-04  5.31952071E-05  1.39330428E-05 -4.23883057E-05
 -3.06957063E-05 -7.03769441E-06  2.98938794E-05 -1.44261031E-05 -2.56003486E-07
  1.10983280E-04 -3.88624785E-05  2.00254477E-04  1.48197352E-04  3.69649239E-06
  3.56604347E-05  3.47979989E-05  3.97913118E-05  2.18647218E-05 -9.13439493E-06
 -2.40435437E-05 -1.37194987E-04  1.93278252E-05  2.07642110E-05 -2.73431050E-05
  5.95632728E-04 -3.88593187E-04 -3.03849458E-04  1.71635486E-04 -1.01961008E-05
 -1.29713025E-05 -3.04935180E-05  2.12455103E-05  3.13980677E-06 -1.05712331E-05
 -9.68411158E-06  1.41115157E-04  2.18911428E-04 -2.31170385E-04  2.95066546E-04
 -9.76837571E-04 -1.05886872E-04  7.09662380E-05 -6.13536528E-04  1.17879322E-04
  1.25177567E-04  8.45512120E-05 -1.48238674E-04  1.47255996E-04 -1.59336620E-04
 -3.21971820E-06 -1.16018479E-04  9.05042843E-06  1.79873164E-04 -8.61652932E-05
  1.31867874E-04  6.12367469E-06 -1.70641828E-05 -7.63733376E-06  1.12843685E-04
  1.02949057E-04  2.06234536E-04  9.25674557E-06  5.90829873E-06 -4.16470678E-05
 -5.73062471E-05  4.29946490E-05  2.27255695E-04  9.85245577E-05  2.27582189E-04
 -1.02145529E-04 -3.04934553E-03 -8.04564213E-05 -1.28584711E-03  9.99227430E-04
  1.04432457E-04  1.67222479E-04  5.81455525E-06  1.70767199E-04 -1.67292420E-04
 -1.57875118E-04  9.92823334E-01  2.53854048E-02  1.35593584E-04  9.30016302E-05
  8.55860509E-04  1.16269857E-02 -3.82973579E-04 -2.07613767E-04 -1.52700232E-04
 -7.78716855E-03 -7.82227627E-03 -7.84530278E-03 -1.04797154E-04 -5.58354979E-05
 -4.67738986E-05  1.27007858E-02  2.12139659E-04 -1.72710441E-05  1.00853480E-05
 -2.00748376E-05  8.37915092E-04  2.65606607E-04 -2.07733698E-04 -4.37218239E-05
 -1.77551905E-04 -1.60427986E-04 -1.90739240E-04 -1.24999590E-05  2.45031970E-05
  5.42084419E-05 -3.21157295E-05 -1.32597757E-05 -3.02249276E-05 -1.50063389E-05
 -3.35006928E-07  1.48750469E-04  3.58387423E-05  2.08461206E-04 -1.49923135E-04
 -1.07451539E-06  3.12675237E-05  3.03882172E-05 -3.84681422E-05  2.22688649E-05
  8.15255224E-06 -5.48135660E-05 -2.37522594E-04  1.40510334E-05 -2.25102806E-05
  2.40427050E-05  1.44294017E-03  1.09000385E-04  3.27977795E-04  6.67300678E-05
 -1.84374316E-04 -1.62019012E-04 -1.64714944E-04 -5.22960004E-05  1.44983263E-05
  4.21595540E-05 -1.02988430E-05  1.37617406E-04 -2.18428059E-04 -2.30742061E-04
 -2.95805026E-04 -9.62014111E-04  9.62172927E-05  6.32808083E-05  6.17953884E-04
  1.17634293E-04  1.24954610E-04  8.38213205E-05  1.48841332E-04  1.47298282E-04
  1.59167233E-04 -2.42732032E-05 -1.33508837E-04 -1.37303557E-05  1.48071540E-05
  3.48612865E-05  5.70164227E-04  3.86101847E-04 -3.01615932E-04 -1.87055418E-04
 -7.16293178E-06 -9.73230840E-06 -2.82740887E-05 -2.50630757E-05  6.92724750E-06
  6.50371294E-06 -7.72288292E-06  1.10004055E-04  1.03181896E-04  2.10763402E-04
  3.97302522E-06 -1.36650706E-05 -8.60332743E-05  1.31936984E-04 -3.34752148E-06
 -1.13216768E-04  1.16991689E-05  1.85053566E-04  1.09673045E-05 -7.16862006E-05
  1.31759131E-05 -1.26974985E-06 -2.12266477E-06  5.59991782E-04 -2.51458132E-04
 -8.09983562E-05 -1.29944624E-04 -1.54878579E-03  1.52763181E-03  3.92820078E-04
  1.86055454E-03 -1.68697445E-04 -1.95399408E-04 -1.33989177E-04  5.79780609E-05
  6.31958045E-05  1.14196593E-04 -5.96528417E-05 -1.71507382E-04  2.97868089E-05
 -5.64299060E-07  1.61041058E-05  9.94394276E-04 -2.31817436E-04 -5.51765266E-05
 -3.23300563E-05 -1.42425833E-04 -1.67039065E-04 -1.33616099E-04 -3.10302917E-05
 -2.26168188E-05 -1.70996451E-05  4.86401147E-05  4.53550755E-05  4.53646759E-05
  9.85658869E-06  1.47951502E-05 -2.10158837E-04 -1.78144967E-04 -1.08049530E-04
 -1.31628233E-04  4.53393620E-05  7.10555663E-05  3.93972858E-05 -6.03563611E-06
 -2.20965028E-05 -1.28879845E-05 -1.74529431E-01 -4.31820638E-03  9.01056130E-05
 -1.73072989E-05  1.21144318E-04 -2.63573759E-03 -9.83600293E-05 -2.67331639E-04
 -1.29701834E-04  1.47577883E-03  1.42994657E-03  1.48112457E-03 -5.21916177E-06
  1.33651385E-05 -1.90201808E-05  9.77490457E-01  2.49078065E-02  4.52767582E-04
  3.94663470E-04  6.03550247E-04  1.10596960E-02  5.50415840E-05  2.52480598E-04
  9.78391069E-05 -7.53067946E-03 -7.50702216E-03 -7.53632163E-03 -1.66188255E-06
 -1.70627483E-05 -6.60111178E-06  1.96424332E-05  7.79326137E-05 -4.03598380E-05
 -4.60152508E-05  1.92821332E-05 -3.23288164E-04  3.13736341E-04  3.02979761E-04
 -1.98171911E-04  2.69045479E-05  2.32908589E-05  5.51612244E-05  4.70019945E-06
  9.79406591E-06  1.68521775E-05 -1.99068168E-05 -9.58360023E-05 -1.97841145E-05
  3.81214895E-05  6.09639551E-06  3.49646136E-04  2.21302106E-04 -2.98154258E-04
 -1.69027768E-04 -1.98633545E-05 -1.97220630E-05 -3.63354791E-05 -6.49222524E-06
 -1.41523251E-05  1.72395278E-05  6.51745134E-05 -2.78680644E-05 -2.57658305E-05