 Entering Gaussian System, Link 0=g09
 Input=DiMethylPhosphate0H-opt.com
 Output=DiMethylPhosphate0H-opt.log
 Initial command:
 /opt/g09gh/gaussian/g09/l1.exe /scratch/bdw2292/Gau-DiMethylPhosphate0H/Gau-23893.inp -scrdir=/scratch/bdw2292/Gau-DiMethylPhosphate0H/
 Entering Link 1 = /opt/g09gh/gaussian/g09/l1.exe PID=     23894.
  
 Copyright (c) 1988,1990,1992,1993,1995,1998,2003,2009, Gaussian, Inc.
                  All Rights Reserved.
  
 This is part of the Gaussian(R) 09 program.  It is based on
 the Gaussian(R) 03 system (copyright 2003, Gaussian, Inc.),
 the Gaussian(R) 98 system (copyright 1998, Gaussian, Inc.),
 the Gaussian(R) 94 system (copyright 1995, Gaussian, Inc.),
 the Gaussian 92(TM) system (copyright 1992, Gaussian, Inc.),
 the Gaussian 90(TM) system (copyright 1990, Gaussian, Inc.),
 the Gaussian 88(TM) system (copyright 1988, Gaussian, Inc.),
 the Gaussian 86(TM) system (copyright 1986, Carnegie Mellon
 University), and the Gaussian 82(TM) system (copyright 1983,
 Carnegie Mellon University). Gaussian is a federally registered
 trademark of Gaussian, Inc.
  
 This software contains proprietary and confidential information,
 including trade secrets, belonging to Gaussian, Inc.
  
 This software is provided under written license and may be
 used, copied, transmitted, or stored only in accord with that
 written license.
  
 The following legend is applicable only to US Government
 contracts under FAR:
  
                    RESTRICTED RIGHTS LEGEND
  
 Use, reproduction and disclosure by the US Government is
 subject to restrictions as set forth in subparagraphs (a)
 and (c) of the Commercial Computer Software - Restricted
 Rights clause in FAR 52.227-19.
  
 Gaussian, Inc.
 340 Quinnipiac St., Bldg. 40, Wallingford CT 06492
  
  
 ---------------------------------------------------------------
 Warning -- This program may not be used in any manner that
 competes with the business of Gaussian, Inc. or will provide
 assistance to any competitor of Gaussian, Inc.  The licensee
 of this program is prohibited from giving any competitor of
 Gaussian, Inc. access to this program.  By using this program,
 the user acknowledges that Gaussian, Inc. is engaged in the
 business of creating and licensing software in the field of
 computational chemistry and represents and warrants to the
 licensee that it is not a competitor of Gaussian, Inc. and that
 it will not use this program in any manner prohibited above.
 ---------------------------------------------------------------
  

 Cite this work as:
 Gaussian 09, Revision A.02,
 M. J. Frisch, G. W. Trucks, H. B. Schlegel, G. E. Scuseria, 
 M. A. Robb, J. R. Cheeseman, G. Scalmani, V. Barone, B. Mennucci, 
 G. A. Petersson, H. Nakatsuji, M. Caricato, X. Li, H. P. Hratchian, 
 A. F. Izmaylov, J. Bloino, G. Zheng, J. L. Sonnenberg, M. Hada, 
 M. Ehara, K. Toyota, R. Fukuda, J. Hasegawa, M. Ishida, T. Nakajima, 
 Y. Honda, O. Kitao, H. Nakai, T. Vreven, J. A. Montgomery, Jr., 
 J. E. Peralta, F. Ogliaro, M. Bearpark, J. J. Heyd, E. Brothers, 
 K. N. Kudin, V. N. Staroverov, R. Kobayashi, J. Normand, 
 K. Raghavachari, A. Rendell, J. C. Burant, S. S. Iyengar, J. Tomasi, 
 M. Cossi, N. Rega, J. M. Millam, M. Klene, J. E. Knox, J. B. Cross, 
 V. Bakken, C. Adamo, J. Jaramillo, R. Gomperts, R. E. Stratmann, 
 O. Yazyev, A. J. Austin, R. Cammi, C. Pomelli, J. W. Ochterski, 
 R. L. Martin, K. Morokuma, V. G. Zakrzewski, G. A. Voth, 
 P. Salvador, J. J. Dannenberg, S. Dapprich, A. D. Daniels, 
 O. Farkas, J. B. Foresman, J. V. Ortiz, J. Cioslowski, 
 and D. J. Fox, Gaussian, Inc., Wallingford CT, 2009.
 
 ******************************************
 Gaussian 09:  EM64L-G09RevA.02 11-Jun-2009
                 2-Apr-2020 
 ******************************************
 %RWF=/scratch/bdw2292/Gau-DiMethylPhosphate0H/,100GB
 %Nosave
 %Chk=DiMethylPhosphate0H-opt.chk
 %Mem=20GB
 %Nproc=4
 Will use up to    4 processors via shared memory.
 ----------------------------------------------------------------------
 #P opt=(maxcycle=400) wB97XD/6-31G* Guess=INDO MaxDisk=100GB SCRF=(PCM
 )
 ----------------------------------------------------------------------
 1/6=400,14=-1,18=20,19=15,26=3,38=1/1,3;
 2/9=110,12=2,17=6,18=5,40=1/2;
 3/5=1,6=6,7=1,11=2,16=1,25=1,30=1,70=2201,71=1,72=1,74=-58/1,2,3;
 4/5=4,11=3/1;
 5/5=2,38=5/2;
 6/7=2,8=2,9=2,10=2,28=1/1;
 7//1,2,3,16;
 1/6=400,14=-1,18=20,19=15/3(2);
 2/9=110/2;
 99//99;
 2/9=110/2;
 3/5=1,6=6,7=1,11=2,16=1,25=1,30=1,70=2205,71=1,74=-58/1,2,3;
 4/5=5,11=3,16=3/1;
 5/5=2,38=5/2;
 7//1,2,3,16;
 1/6=400,14=-1,18=20,19=15/3(-5);
 2/9=110/2;
 6/7=2,8=2,9=2,10=2,19=2,28=1/1;
 99/9=1/99;
 Leave Link    1 at Thu Apr  2 11:00:17 2020, MaxMem= 2684354560 cpu:       0.2
 (Enter /opt/g09gh/gaussian/g09/l101.exe)
 ---------------------------------------------------------------------
 DiMethylPhosphate0H Gaussian OPT Calculation on node37.bme.utexas.edu
 ---------------------------------------------------------------------
 Symbolic Z-matrix:
 Charge = -1 Multiplicity = 1
 P                    -0.048     0.5838    0.0548 
 O                     1.054    -0.3432    0.7945 
 O                    -1.003    -0.4567   -0.7379 
 O                     0.7758    1.3053   -1.137 
 O                    -0.7766    1.5356    0.9596 
 C                     1.8082   -1.2823    0.0475 
 C                    -1.8103   -1.3425    0.0185 
 H                     1.1475   -1.9997   -0.4447 
 H                     2.4684   -1.8217    0.7313 
 H                     2.4178   -0.7653   -0.6978 
 H                    -2.5214   -0.7716    0.6213 
 H                    -1.188    -1.9629    0.6682 
 H                    -2.3623   -1.9878   -0.669 
 
 NAtoms=     13 NQM=     13 NQMF=      0 NMic=      0 NMicF=      0 NTot=     13.
                    Isotopes and Nuclear Properties:
 (Nuclear quadrupole moments (NQMom) in fm**2, nuclear magnetic moments (NMagM)
  in nuclear magnetons)

  Atom         1           2           3           4           5           6           7           8           9          10
 IAtWgt=          31          16          16          16          16          12          12           1           1           1
 AtmWgt=  30.9737634  15.9949146  15.9949146  15.9949146  15.9949146  12.0000000  12.0000000   1.0078250   1.0078250   1.0078250
 NucSpn=           1           0           0           0           0           0           0           1           1           1
 AtZEff=   0.0000000   0.0000000   0.0000000   0.0000000   0.0000000   0.0000000   0.0000000   0.0000000   0.0000000   0.0000000
 NQMom=    0.0000000   0.0000000   0.0000000   0.0000000   0.0000000   0.0000000   0.0000000   0.0000000   0.0000000   0.0000000
 NMagM=    1.1316000   0.0000000   0.0000000   0.0000000   0.0000000   0.0000000   0.0000000   2.7928460   2.7928460   2.7928460

  Atom        11          12          13
 IAtWgt=           1           1           1
 AtmWgt=   1.0078250   1.0078250   1.0078250
 NucSpn=           1           1           1
 AtZEff=   0.0000000   0.0000000   0.0000000
 NQMom=    0.0000000   0.0000000   0.0000000
 NMagM=    2.7928460   2.7928460   2.7928460
 Leave Link  101 at Thu Apr  2 11:00:17 2020, MaxMem= 2684354560 cpu:       0.5
 (Enter /opt/g09gh/gaussian/g09/l103.exe)

 GradGradGradGradGradGradGradGradGradGradGradGradGradGradGradGradGradGrad
 Berny optimization.
 Initialization pass.
                           ----------------------------
                           !    Initial Parameters    !
                           ! (Angstroms and Degrees)  !
 --------------------------                            --------------------------
 ! Name  Definition              Value          Derivative Info.                !
 --------------------------------------------------------------------------------
 ! R1    R(1,2)                  1.6189         estimate D2E/DX2                !
 ! R2    R(1,3)                  1.6196         estimate D2E/DX2                !
 ! R3    R(1,4)                  1.6185         estimate D2E/DX2                !
 ! R4    R(1,5)                  1.5018         estimate D2E/DX2                !
 ! R5    R(2,6)                  1.4173         estimate D2E/DX2                !
 ! R6    R(3,7)                  1.4172         estimate D2E/DX2                !
 ! R7    R(6,8)                  1.0925         estimate D2E/DX2                !
 ! R8    R(6,9)                  1.0929         estimate D2E/DX2                !
 ! R9    R(6,10)                 1.0929         estimate D2E/DX2                !
 ! R10   R(7,11)                 1.0931         estimate D2E/DX2                !
 ! R11   R(7,12)                 1.0928         estimate D2E/DX2                !
 ! R12   R(7,13)                 1.0926         estimate D2E/DX2                !
 ! A1    A(2,1,3)              104.9008         estimate D2E/DX2                !
 ! A2    A(2,1,4)              104.1958         estimate D2E/DX2                !
 ! A3    A(2,1,5)              114.6998         estimate D2E/DX2                !
 ! A4    A(3,1,4)              103.0682         estimate D2E/DX2                !
 ! A5    A(3,1,5)              114.5805         estimate D2E/DX2                !
 ! A6    A(4,1,5)              114.082          estimate D2E/DX2                !
 ! A7    A(1,2,6)              120.0541         estimate D2E/DX2                !
 ! A8    A(1,3,7)              118.4382         estimate D2E/DX2                !
 ! A9    A(2,6,8)              110.5335         estimate D2E/DX2                !
 ! A10   A(2,6,9)              108.5853         estimate D2E/DX2                !
 ! A11   A(2,6,10)             110.048          estimate D2E/DX2                !
 ! A12   A(8,6,9)              108.8524         estimate D2E/DX2                !
 ! A13   A(8,6,10)             109.9224         estimate D2E/DX2                !
 ! A14   A(9,6,10)             108.8577         estimate D2E/DX2                !
 ! A15   A(3,7,11)             109.7821         estimate D2E/DX2                !
 ! A16   A(3,7,12)             110.3503         estimate D2E/DX2                !
 ! A17   A(3,7,13)             108.7296         estimate D2E/DX2                !
 ! A18   A(11,7,12)            109.8206         estimate D2E/DX2                !
 ! A19   A(11,7,13)            109.0737         estimate D2E/DX2                !
 ! A20   A(12,7,13)            109.0558         estimate D2E/DX2                !
 ! D1    D(3,1,2,6)             53.4046         estimate D2E/DX2                !
 ! D2    D(4,1,2,6)            -54.574          estimate D2E/DX2                !
 ! D3    D(5,1,2,6)           -179.9985         estimate D2E/DX2                !
 ! D4    D(2,1,3,7)             66.6751         estimate D2E/DX2                !
 ! D5    D(4,1,3,7)            175.4761         estimate D2E/DX2                !
 ! D6    D(5,1,3,7)            -59.9954         estimate D2E/DX2                !
 ! D7    D(1,2,6,8)            -59.0239         estimate D2E/DX2                !
 ! D8    D(1,2,6,9)           -178.3634         estimate D2E/DX2                !
 ! D9    D(1,2,6,10)            62.5781         estimate D2E/DX2                !
 ! D10   D(1,3,7,11)            62.426          estimate D2E/DX2                !
 ! D11   D(1,3,7,12)           -58.7544         estimate D2E/DX2                !
 ! D12   D(1,3,7,13)          -178.3224         estimate D2E/DX2                !
 --------------------------------------------------------------------------------
 Trust Radius=3.00D-01 FncErr=1.00D-07 GrdErr=1.00D-06
 Number of steps in this run= 100 maximum allowed number of steps= 100.
 GradGradGradGradGradGradGradGradGradGradGradGradGradGradGradGradGradGrad

 Leave Link  103 at Thu Apr  2 11:00:17 2020, MaxMem= 2684354560 cpu:       0.1
 (Enter /opt/g09gh/gaussian/g09/l202.exe)
                          Input orientation:                          
 ---------------------------------------------------------------------
 Center     Atomic      Atomic             Coordinates (Angstroms)
 Number     Number       Type             X           Y           Z
 ---------------------------------------------------------------------
      1         15           0       -0.048000    0.583800    0.054800
      2          8           0        1.054000   -0.343200    0.794500
      3          8           0       -1.003000   -0.456700   -0.737900
      4          8           0        0.775800    1.305300   -1.137000
      5          8           0       -0.776600    1.535600    0.959600
      6          6           0        1.808200   -1.282300    0.047500
      7          6           0       -1.810300   -1.342500    0.018500
      8          1           0        1.147500   -1.999700   -0.444700
      9          1           0        2.468400   -1.821700    0.731300
     10          1           0        2.417800   -0.765300   -0.697800
     11          1           0       -2.521400   -0.771600    0.621300
     12          1           0       -1.188000   -1.962900    0.668200
     13          1           0       -2.362300   -1.987800   -0.669000
 ---------------------------------------------------------------------
                    Distance matrix (angstroms):
                    1          2          3          4          5
     1  P    0.000000
     2  O    1.618916   0.000000
     3  O    1.619580   2.567563   0.000000
     4  O    1.618517   2.554533   2.535361   0.000000
     5  O    1.501814   2.628354   2.627170   2.618915   0.000000
     6  C    2.632083   1.417299   3.033367   3.027303   3.931117
     7  C    2.611063   3.131292   1.417221   3.877362   3.199635
     8  H    2.890189   2.070833   2.662981   3.397126   4.262929
     9  H    3.546315   2.047067   4.009039   4.016661   4.674784
    10  H    2.909750   2.065207   3.434926   2.678889   4.271453
    11  H    2.876758   3.605137   2.062068   4.275121   2.912378
    12  H    2.856841   2.768744   2.068811   4.218577   3.534638
    13  H    3.534543   4.064191   2.048588   4.572877   4.192986
                    6          7          8          9         10
     6  C    0.000000
     7  C    3.619117   0.000000
     8  H    1.092450   3.065134   0.000000
     9  H    1.092886   4.364057   1.777480   0.000000
    10  H    1.092874   4.327017   1.789264   1.777883   0.000000
    11  H    4.397215   1.093141   4.013155   5.100286   5.112315
    12  H    3.134597   1.092824   2.587366   3.659669   4.037573
    13  H    4.290008   1.092599   3.516980   5.032305   4.934034
                   11         12         13
    11  H    0.000000
    12  H    1.788673   0.000000
    13  H    1.780261   1.779805   0.000000
 Stoichiometry    C2H6O4P(1-)
 Framework group  C1[X(C2H6O4P)]
 Deg. of freedom    33
 Full point group                 C1      NOp   1
 Largest Abelian subgroup         C1      NOp   1
 Largest concise Abelian subgroup C1      NOp   1
                         Standard orientation:                         
 ---------------------------------------------------------------------
 Center     Atomic      Atomic             Coordinates (Angstroms)
 Number     Number       Type             X           Y           Z
 ---------------------------------------------------------------------
      1         15           0       -0.046630   -0.583148   -0.046541
      2          8           0        1.045201    0.337251   -0.809209
      3          8           0       -0.979157    0.463100    0.765122
      4          8           0        0.797376   -1.308905    1.128417
      5          8           0       -0.799118   -1.531100   -0.935694
      6          6           0        1.819965    1.272297   -0.078343
      7          6           0       -1.796770    1.353224    0.025052
      8          1           0        1.173642    1.993653    0.426989
      9          1           0        2.469030    1.807652   -0.775844
     10          1           0        2.441803    0.752095    0.654514
     11          1           0       -2.523372    0.786179   -0.562712
     12          1           0       -1.184431    1.969807   -0.637617
     13          1           0       -2.330812    2.001932    0.723442
 ---------------------------------------------------------------------
 Rotational constants (GHZ):      2.5972908      2.3458613      1.7053106
 Leave Link  202 at Thu Apr  2 11:00:18 2020, MaxMem= 2684354560 cpu:       0.0
 (Enter /opt/g09gh/gaussian/g09/l301.exe)
 Standard basis: 6-31G(d) (6D, 7F)
 Ernie: Thresh=  0.10000D-02 Tol=  0.10000D-05 Strict=F.
 There are   121 symmetry adapted basis functions of A   symmetry.
 Integral buffers will be    131072 words long.
 Raffenetti 2 integral format.
 Two-electron integral symmetry is turned on.
   121 basis functions,   244 primitive gaussians,   121 cartesian basis functions
    33 alpha electrons       33 beta electrons
       nuclear repulsion energy       435.9011910628 Hartrees.
 IExCor= 4639 DFT=T Ex+Corr=wB97XD ExCW=0 ScaHFX=  1.000000
 ScaDFX=  1.000000  1.000000  1.000000  1.000000 ScalE2=  1.000000  1.000000
 IRadAn=      0 IRanWt=     -1 IRanGd=            0 ICorTp=0
  HFx wShort=  0.000000 wLong=  0.200000 cFull=  0.222036 cShort=  0.000000 cLong=  0.777964
  DFx wShort=  0.000000 wLong=  0.200000 cFull=  0.000000 cShort=  0.000000 cLong=  1.000000
 NAtoms=   13 NActive=   13 NUniq=   13 SFac= 7.50D-01 NAtFMM=   80 NAOKFM=F Big=F
 R6Disp: Dispersion energy =        -0.0052732682 Hartrees.
 Nuclear repulsion after empirical dispersion term =      435.8959177947 Hartrees.
 ------------------------------------------------------------------------------
 Polarizable Continuum Model (PCM)
 =================================
 Model                : PCM.
 Atomic radii         : UFF (Universal Force Field).
 Polarization charges : Total charges.
 Charge compensation  : None.
 Solution method      : Matrix inversion.
 Cavity type          : Scaled VdW (van der Waals Surface) (Alpha=1.100).
 Cavity algorithm     : GePol (No added spheres)
                        Default sphere list used, NSphG=   13.
                        Lebedev-Laikov grids with approx.  5.0 points / Ang**2.
                        Smoothing algorithm: Karplus/York (Gamma=1.0000).
                        Polarization charges: spherical gaussians, with
                                              point-specific exponents (IZeta= 3).
                        Self-potential: point-specific (ISelfS= 7).
                        Self-field    : sphere-specific E.n sum rule (ISelfD= 2).
 1st derivatives      : Analytical E(r).r(x)/FMM algorithm (CHGder, D1EAlg=3).
                        Cavity 1st derivative terms included.
 Solvent              : Water, Eps=  78.355300 Eps(inf)=   1.777849
 ------------------------------------------------------------------------------
 Spheres list:
 ISph  on   Nord    Re0     Alpha      Xe            Ye            Ze
    1   P      1    2.074   1.100     -0.046630     -0.583148     -0.046541
    2   O      2    1.750   1.100      1.045201      0.337251     -0.809209
    3   O      3    1.750   1.100     -0.979157      0.463100      0.765122
    4   O      4    1.750   1.100      0.797376     -1.308905      1.128417
    5   O      5    1.750   1.100     -0.799118     -1.531100     -0.935694
    6   C      6    1.926   1.100      1.819965      1.272297     -0.078343
    7   C      7    1.926   1.100     -1.796770      1.353224      0.025052
    8   H      8    1.443   1.100      1.173642      1.993653      0.426989
    9   H      9    1.443   1.100      2.469030      1.807652     -0.775844
   10   H     10    1.443   1.100      2.441803      0.752095      0.654514
   11   H     11    1.443   1.100     -2.523372      0.786179     -0.562712
   12   H     12    1.443   1.100     -1.184431      1.969807     -0.637617
   13   H     13    1.443   1.100     -2.330812      2.001932      0.723442
 ------------------------------------------------------------------------------
 GePol: Number of generator spheres                  =      13
 GePol: Total number of spheres                      =      13
 GePol: Number of exposed spheres                    =      13 (100.00%)
 GePol: Number of points                             =    1269
 GePol: Average weight of points                     =       0.13
 GePol: Minimum weight of points                     =   0.12D-09
 GePol: Maximum weight of points                     =    0.20322
 GePol: Number of points with low weight             =      51
 GePol: Fraction of low-weight points (<1% of avg)   =       4.02%
 GePol: Cavity surface area                          =    166.250 Ang**2
 GePol: Cavity volume                                =    157.435 Ang**3
 Leave Link  301 at Thu Apr  2 11:00:18 2020, MaxMem= 2684354560 cpu:       0.5
 (Enter /opt/g09gh/gaussian/g09/l302.exe)
 NPDir=0 NMtPBC=     1 NCelOv=     1 NCel=       1 NClECP=     1 NCelD=      1
         NCelK=      1 NCelE2=     1 NClLst=     1 CellRange=     0.0.
 One-electron integrals computed using PRISM.
 NBasis=   121 RedAO= T  NBF=   121
 NBsUse=   121 1.00D-06 NBFU=   121
 Precomputing XC quadrature grid using
 IXCGrd= 2 IRadAn=           0 IRanWt=          -1 IRanGd=           0 AccXCQ= 1.00D-10.
 NRdTot=     812 NPtTot=      103188 NUsed=      109054 NTot=      109086
 NSgBfM=   121   121   121   121   121 NAtAll=    13    13.
 Leave Link  302 at Thu Apr  2 11:00:18 2020, MaxMem= 2684354560 cpu:       0.8
 (Enter /opt/g09gh/gaussian/g09/l303.exe)
 DipDrv:  MaxL=1.
 Leave Link  303 at Thu Apr  2 11:00:18 2020, MaxMem= 2684354560 cpu:       0.2
 (Enter /opt/g09gh/gaussian/g09/l401.exe)
 Projected New-EHT guess.
 Enter ItEHT:  IZDO=4 IZDPar=0 Conv= 1.00D-06 N=   34
 It=   1                  EEH= -82.5796427989     EQH= 0.000000000000E+00 EH= -82.5796427989    
 Initial guess orbital symmetries:
       Occupied  (A) (A) (A) (A) (A) (A) (A) (A) (A) (A) (A) (A)
                 (A) (A) (A) (A) (A) (A) (A) (A) (A) (A) (A) (A)
                 (A) (A) (A) (A) (A) (A) (A) (A) (A)
       Virtual   (A) (A) (A) (A) (A) (A) (A) (A) (A) (A) (A) (A)
                 (A) (A) (A) (A) (A) (A) (A) (A) (A) (A) (A) (A)
                 (A) (A) (A) (A) (A) (A) (A) (A) (A) (A) (A) (A)
                 (A) (A) (A) (A) (A) (A) (A) (A) (A) (A) (A) (A)
                 (A) (A) (A) (A) (A) (A) (A) (A) (A) (A) (A) (A)
                 (A) (A) (A) (A) (A) (A) (A) (A) (A) (A) (A) (A)
                 (A) (A) (A) (A) (A) (A) (A) (A) (A) (A) (A) (A)
                 (A) (A) (A) (A)
 The electronic state of the initial guess is 1-A.
 Leave Link  401 at Thu Apr  2 11:00:18 2020, MaxMem= 2684354560 cpu:       0.5
 (Enter /opt/g09gh/gaussian/g09/l502.exe)
 Closed shell SCF:
 Requested convergence on RMS density matrix=1.00D-08 within 128 cycles.
 Requested convergence on MAX density matrix=1.00D-06.
 Requested convergence on             energy=1.00D-06.
 No special actions if energy rises.
 Using DIIS extrapolation, IDIIS=  1040.
 Integral symmetry usage will be decided dynamically.
       108924 words used for storage of precomputed grid.
 IEnd=      172633 IEndB=      172633 NGot=  2684354560 MDV=  2684213330
 LenX=  2684213330 LenY=  2684198248
 Fock matrices will be formed incrementally for  20 cycles.

 Cycle   1  Pass 1  IDiag  1:
 FoFJK:  IHMeth= 1 ICntrl=     0 DoSepK=T KAlg= 1 I1Cent= 0 FoldK=F
 FoFCou: FMM=F IPFlag=           0 FMFlag=      100000 FMFlg1=           0
         NFxFlg=           0 DoJE=T BraDBF=F KetDBF=F FulRan=T
         Omega=  0.000000  0.000000  1.000000  0.000000  0.000000 ICntrl=     500 IOpCl=  0
         NMat0=    1 NMatS0=    1 NMatT0=    0 NMatD0=    1 NMtDS0=    0 NMtDT0=    0
         I1Cent=           0 NGrid=           0.
 Symmetry not used in FoFCou.
 E= -718.116346420094    
 DIIS: error= 2.25D-01 at cycle   1 NSaved=   1.
 NSaved= 1 IEnMin= 1 EnMin= -718.116346420094     IErMin= 1 ErrMin= 2.25D-01
 ErrMax= 2.25D-01 EMaxC= 1.00D-01 BMatC= 1.27D+01 BMatP= 1.27D+01
 IDIUse=3 WtCom= 0.00D+00 WtEn= 1.00D+00
 Coeff-Com:  0.100D+01
 Coeff-En:   0.100D+01
 Coeff:      0.100D+01
 Gap=     0.713 Goal=   None    Shift=    0.000
 GapD=    0.713 DampG=2.000 DampE=0.250 DampFc=0.5000 IDamp=-1.
 Damping current iteration by 5.00D-01
 RMSDP=2.24D-02 MaxDP=4.84D-01              OVMax= 4.78D-01

 Cycle   2  Pass 1  IDiag  1:
 RMSU=  7.60D-03    CP:  9.19D-01
 FoFJK:  IHMeth= 1 ICntrl=     0 DoSepK=T KAlg= 1 I1Cent= 0 FoldK=F
 E= -719.982554055382     Delta-E=       -1.866207635288 Rises=F Damp=T
 DIIS: error= 1.17D-01 at cycle   2 NSaved=   2.
 NSaved= 2 IEnMin= 2 EnMin= -719.982554055382     IErMin= 2 ErrMin= 1.17D-01
 ErrMax= 1.17D-01 EMaxC= 1.00D-01 BMatC= 2.89D+00 BMatP= 1.27D+01
 IDIUse=3 WtCom= 0.00D+00 WtEn= 1.00D+00
 Coeff-Com: -0.575D+00 0.157D+01
 Coeff-En:   0.000D+00 0.100D+01
 Coeff:      0.000D+00 0.100D+01
 Gap=     0.451 Goal=   None    Shift=    0.000
 RMSDP=8.47D-03 MaxDP=2.18D-01 DE=-1.87D+00 OVMax= 2.66D-01

 Cycle   3  Pass 1  IDiag  1:
 RMSU=  5.77D-03    CP:  8.70D-01  1.11D+00
 FoFJK:  IHMeth= 1 ICntrl=     0 DoSepK=T KAlg= 1 I1Cent= 0 FoldK=F
 E= -722.070847531822     Delta-E=       -2.088293476440 Rises=F Damp=F
 DIIS: error= 2.09D-02 at cycle   3 NSaved=   3.
 NSaved= 3 IEnMin= 3 EnMin= -722.070847531822     IErMin= 3 ErrMin= 2.09D-02
 ErrMax= 2.09D-02 EMaxC= 1.00D-01 BMatC= 9.36D-02 BMatP= 2.89D+00
 IDIUse=3 WtCom= 7.91D-01 WtEn= 2.09D-01
 Coeff-Com: -0.132D+00 0.281D+00 0.851D+00
 Coeff-En:   0.000D+00 0.000D+00 0.100D+01
 Coeff:     -0.104D+00 0.222D+00 0.882D+00
 Gap=     0.529 Goal=   None    Shift=    0.000
 RMSDP=3.44D-03 MaxDP=1.40D-01 DE=-2.09D+00 OVMax= 8.02D-02

 Cycle   4  Pass 1  IDiag  1:
 RMSU=  1.68D-03    CP:  8.75D-01  1.28D+00  8.02D-01
 FoFJK:  IHMeth= 1 ICntrl=     0 DoSepK=T KAlg= 1 I1Cent= 0 FoldK=F
 E= -722.115675552518     Delta-E=       -0.044828020697 Rises=F Damp=F
 DIIS: error= 1.14D-02 at cycle   4 NSaved=   4.
 NSaved= 4 IEnMin= 4 EnMin= -722.115675552518     IErMin= 4 ErrMin= 1.14D-02
 ErrMax= 1.14D-02 EMaxC= 1.00D-01 BMatC= 3.71D-02 BMatP= 9.36D-02
 IDIUse=3 WtCom= 8.86D-01 WtEn= 1.14D-01
 Coeff-Com: -0.394D-01 0.774D-01 0.427D+00 0.535D+00
 Coeff-En:   0.000D+00 0.000D+00 0.241D+00 0.759D+00
 Coeff:     -0.350D-01 0.686D-01 0.406D+00 0.561D+00
 Gap=     0.456 Goal=   None    Shift=    0.000
 RMSDP=1.32D-03 MaxDP=2.87D-02 DE=-4.48D-02 OVMax= 3.45D-02

 Cycle   5  Pass 1  IDiag  1:
 RMSU=  5.84D-04    CP:  8.73D-01  1.25D+00  8.80D-01  6.98D-01
 FoFJK:  IHMeth= 1 ICntrl=     0 DoSepK=T KAlg= 1 I1Cent= 0 FoldK=F
 E= -722.140600553101     Delta-E=       -0.024925000583 Rises=F Damp=F
 DIIS: error= 2.59D-03 at cycle   5 NSaved=   5.
 NSaved= 5 IEnMin= 5 EnMin= -722.140600553101     IErMin= 5 ErrMin= 2.59D-03
 ErrMax= 2.59D-03 EMaxC= 1.00D-01 BMatC= 1.94D-03 BMatP= 3.71D-02
 IDIUse=3 WtCom= 9.74D-01 WtEn= 2.59D-02
 Coeff-Com:  0.576D-02-0.137D-01 0.214D-01 0.204D+00 0.783D+00
 Coeff-En:   0.000D+00 0.000D+00 0.000D+00 0.000D+00 0.100D+01
 Coeff:      0.561D-02-0.134D-01 0.208D-01 0.199D+00 0.788D+00
 Gap=     0.444 Goal=   None    Shift=    0.000
 RMSDP=2.91D-04 MaxDP=5.92D-03 DE=-2.49D-02 OVMax= 6.92D-03

 Cycle   6  Pass 1  IDiag  1:
 RMSU=  1.35D-04    CP:  8.73D-01  1.26D+00  8.77D-01  7.63D-01  8.25D-01
 FoFJK:  IHMeth= 1 ICntrl=     0 DoSepK=T KAlg= 1 I1Cent= 0 FoldK=F
 E= -722.141991753797     Delta-E=       -0.001391200695 Rises=F Damp=F
 DIIS: error= 3.93D-04 at cycle   6 NSaved=   6.
 NSaved= 6 IEnMin= 6 EnMin= -722.141991753797     IErMin= 6 ErrMin= 3.93D-04
 ErrMax= 3.93D-04 EMaxC= 1.00D-01 BMatC= 4.85D-05 BMatP= 1.94D-03
 IDIUse=3 WtCom= 9.96D-01 WtEn= 3.93D-03
 Coeff-Com:  0.385D-02-0.816D-02-0.600D-02 0.341D-01 0.213D+00 0.763D+00
 Coeff-En:   0.000D+00 0.000D+00 0.000D+00 0.000D+00 0.000D+00 0.100D+01
 Coeff:      0.383D-02-0.813D-02-0.598D-02 0.340D-01 0.212D+00 0.764D+00
 Gap=     0.446 Goal=   None    Shift=    0.000
 RMSDP=7.62D-05 MaxDP=1.46D-03 DE=-1.39D-03 OVMax= 2.17D-03

 Cycle   7  Pass 1  IDiag  1:
 RMSU=  4.28D-05    CP:  8.73D-01  1.26D+00  8.79D-01  7.72D-01  8.71D-01
                    CP:  1.05D+00
 FoFJK:  IHMeth= 1 ICntrl=     0 DoSepK=T KAlg= 1 I1Cent= 0 FoldK=F
 E= -722.142026448882     Delta-E=       -0.000034695085 Rises=F Damp=F
 DIIS: error= 2.39D-04 at cycle   7 NSaved=   7.
 NSaved= 7 IEnMin= 7 EnMin= -722.142026448882     IErMin= 7 ErrMin= 2.39D-04
 ErrMax= 2.39D-04 EMaxC= 1.00D-01 BMatC= 1.74D-05 BMatP= 4.85D-05
 IDIUse=3 WtCom= 9.98D-01 WtEn= 2.39D-03
 Coeff-Com:  0.128D-02-0.239D-02-0.615D-02-0.222D-01-0.431D-01 0.410D+00
 Coeff-Com:  0.662D+00
 Coeff-En:   0.000D+00 0.000D+00 0.000D+00 0.000D+00 0.000D+00 0.000D+00
 Coeff-En:   0.100D+01
 Coeff:      0.128D-02-0.239D-02-0.614D-02-0.222D-01-0.430D-01 0.410D+00
 Coeff:      0.663D+00
 Gap=     0.445 Goal=   None    Shift=    0.000
 RMSDP=3.55D-05 MaxDP=8.10D-04 DE=-3.47D-05 OVMax= 9.85D-04

 Cycle   8  Pass 1  IDiag  1:
 RMSU=  1.31D-05    CP:  8.73D-01  1.26D+00  8.80D-01  7.76D-01  8.84D-01
                    CP:  1.16D+00  7.81D-01
 FoFJK:  IHMeth= 1 ICntrl=     0 DoSepK=T KAlg= 1 I1Cent= 0 FoldK=F
 E= -722.142040905006     Delta-E=       -0.000014456124 Rises=F Damp=F
 DIIS: error= 5.77D-05 at cycle   8 NSaved=   8.
 NSaved= 8 IEnMin= 8 EnMin= -722.142040905006     IErMin= 8 ErrMin= 5.77D-05
 ErrMax= 5.77D-05 EMaxC= 1.00D-01 BMatC= 5.64D-07 BMatP= 1.74D-05
 IDIUse=1 WtCom= 1.00D+00 WtEn= 0.00D+00
 Coeff-Com:  0.133D-03-0.208D-03-0.710D-03-0.927D-02-0.308D-01 0.693D-01
 Coeff-Com:  0.208D+00 0.764D+00
 Coeff:      0.133D-03-0.208D-03-0.710D-03-0.927D-02-0.308D-01 0.693D-01
 Coeff:      0.208D+00 0.764D+00
 Gap=     0.446 Goal=   None    Shift=    0.000
 RMSDP=8.99D-06 MaxDP=1.18D-04 DE=-1.45D-05 OVMax= 2.13D-04

 Cycle   9  Pass 1  IDiag  1:
 RMSU=  3.63D-06    CP:  8.73D-01  1.26D+00  8.80D-01  7.76D-01  8.86D-01
                    CP:  1.19D+00  8.42D-01  1.04D+00
 FoFJK:  IHMeth= 1 ICntrl=     0 DoSepK=T KAlg= 1 I1Cent= 0 FoldK=F
 E= -722.142041557343     Delta-E=       -0.000000652337 Rises=F Damp=F
 DIIS: error= 1.15D-05 at cycle   9 NSaved=   9.
 NSaved= 9 IEnMin= 9 EnMin= -722.142041557343     IErMin= 9 ErrMin= 1.15D-05
 ErrMax= 1.15D-05 EMaxC= 1.00D-01 BMatC= 2.34D-08 BMatP= 5.64D-07
 IDIUse=1 WtCom= 1.00D+00 WtEn= 0.00D+00
 Coeff-Com: -0.128D-03 0.242D-03 0.549D-03 0.101D-02-0.690D-03-0.348D-01
 Coeff-Com: -0.392D-01 0.955D-01 0.977D+00
 Coeff:     -0.128D-03 0.242D-03 0.549D-03 0.101D-02-0.690D-03-0.348D-01
 Coeff:     -0.392D-01 0.955D-01 0.977D+00
 Gap=     0.446 Goal=   None    Shift=    0.000
 RMSDP=3.61D-06 MaxDP=5.61D-05 DE=-6.52D-07 OVMax= 6.83D-05

 Cycle  10  Pass 1  IDiag  1:
 RMSU=  9.50D-07    CP:  8.73D-01  1.26D+00  8.80D-01  7.76D-01  8.87D-01
                    CP:  1.20D+00  8.63D-01  1.15D+00  1.18D+00
 FoFJK:  IHMeth= 1 ICntrl=     0 DoSepK=T KAlg= 1 I1Cent= 0 FoldK=F
 E= -722.142041601648     Delta-E=       -0.000000044305 Rises=F Damp=F
 DIIS: error= 3.92D-06 at cycle  10 NSaved=  10.
 NSaved=10 IEnMin=10 EnMin= -722.142041601648     IErMin=10 ErrMin= 3.92D-06
 ErrMax= 3.92D-06 EMaxC= 1.00D-01 BMatC= 4.12D-09 BMatP= 2.34D-08
 IDIUse=1 WtCom= 1.00D+00 WtEn= 0.00D+00
 Coeff-Com: -0.537D-04 0.101D-03 0.159D-03 0.766D-03 0.120D-02-0.142D-01
 Coeff-Com: -0.212D-01 0.320D-02 0.312D+00 0.718D+00
 Coeff:     -0.537D-04 0.101D-03 0.159D-03 0.766D-03 0.120D-02-0.142D-01
 Coeff:     -0.212D-01 0.320D-02 0.312D+00 0.718D+00
 Gap=     0.446 Goal=   None    Shift=    0.000
 RMSDP=6.94D-07 MaxDP=1.91D-05 DE=-4.43D-08 OVMax= 1.34D-05

 Cycle  11  Pass 1  IDiag  1:
 RMSU=  2.93D-07    CP:  8.73D-01  1.26D+00  8.80D-01  7.76D-01  8.87D-01
                    CP:  1.20D+00  8.65D-01  1.17D+00  1.23D+00  1.04D+00
 FoFJK:  IHMeth= 1 ICntrl=     0 DoSepK=T KAlg= 1 I1Cent= 0 FoldK=F
 E= -722.142041605544     Delta-E=       -0.000000003896 Rises=F Damp=F
 DIIS: error= 1.20D-06 at cycle  11 NSaved=  11.
 NSaved=11 IEnMin=11 EnMin= -722.142041605544     IErMin=11 ErrMin= 1.20D-06
 ErrMax= 1.20D-06 EMaxC= 1.00D-01 BMatC= 4.82D-10 BMatP= 4.12D-09
 IDIUse=1 WtCom= 1.00D+00 WtEn= 0.00D+00
 Coeff-Com: -0.392D-05 0.850D-05-0.336D-04 0.913D-04 0.379D-03 0.337D-03
 Coeff-Com: -0.756D-03-0.769D-02-0.417D-01 0.173D+00 0.877D+00
 Coeff:     -0.392D-05 0.850D-05-0.336D-04 0.913D-04 0.379D-03 0.337D-03
 Coeff:     -0.756D-03-0.769D-02-0.417D-01 0.173D+00 0.877D+00
 Gap=     0.446 Goal=   None    Shift=    0.000
 RMSDP=3.16D-07 MaxDP=5.45D-06 DE=-3.90D-09 OVMax= 7.51D-06

 Cycle  12  Pass 1  IDiag  1:
 RMSU=  9.61D-08    CP:  8.73D-01  1.26D+00  8.80D-01  7.77D-01  8.87D-01
                    CP:  1.20D+00  8.66D-01  1.18D+00  1.26D+00  1.18D+00
                    CP:  1.15D+00
 FoFJK:  IHMeth= 1 ICntrl=     0 DoSepK=T KAlg= 1 I1Cent= 0 FoldK=F
 E= -722.142041606061     Delta-E=       -0.000000000517 Rises=F Damp=F
 DIIS: error= 4.93D-07 at cycle  12 NSaved=  12.
 NSaved=12 IEnMin=12 EnMin= -722.142041606061     IErMin=12 ErrMin= 4.93D-07
 ErrMax= 4.93D-07 EMaxC= 1.00D-01 BMatC= 7.90D-11 BMatP= 4.82D-10
 IDIUse=1 WtCom= 1.00D+00 WtEn= 0.00D+00
 Coeff-Com:  0.266D-05-0.431D-05-0.294D-04-0.355D-04 0.396D-04 0.150D-02
 Coeff-Com:  0.172D-02-0.384D-02-0.498D-01 0.541D-03 0.407D+00 0.643D+00
 Coeff:      0.266D-05-0.431D-05-0.294D-04-0.355D-04 0.396D-04 0.150D-02
 Coeff:      0.172D-02-0.384D-02-0.498D-01 0.541D-03 0.407D+00 0.643D+00
 Gap=     0.446 Goal=   None    Shift=    0.000
 RMSDP=1.02D-07 MaxDP=1.77D-06 DE=-5.17D-10 OVMax= 2.66D-06

 Cycle  13  Pass 1  IDiag  1:
 RMSU=  3.42D-08    CP:  8.73D-01  1.26D+00  8.80D-01  7.77D-01  8.87D-01
                    CP:  1.20D+00  8.66D-01  1.18D+00  1.26D+00  1.22D+00
                    CP:  1.27D+00  8.68D-01
 FoFJK:  IHMeth= 1 ICntrl=     0 DoSepK=T KAlg= 1 I1Cent= 0 FoldK=F
 E= -722.142041606133     Delta-E=       -0.000000000072 Rises=F Damp=F
 DIIS: error= 8.62D-08 at cycle  13 NSaved=  13.
 NSaved=13 IEnMin=13 EnMin= -722.142041606133     IErMin=13 ErrMin= 8.62D-08
 ErrMax= 8.62D-08 EMaxC= 1.00D-01 BMatC= 3.09D-12 BMatP= 7.90D-11
 IDIUse=1 WtCom= 1.00D+00 WtEn= 0.00D+00
 Coeff-Com:  0.972D-06-0.191D-05 0.400D-06-0.186D-04-0.413D-04 0.211D-03
 Coeff-Com:  0.367D-03-0.131D-03-0.252D-02-0.213D-01-0.505D-01 0.100D+00
 Coeff-Com:  0.973D+00
 Coeff:      0.972D-06-0.191D-05 0.400D-06-0.186D-04-0.413D-04 0.211D-03
 Coeff:      0.367D-03-0.131D-03-0.252D-02-0.213D-01-0.505D-01 0.100D+00
 Coeff:      0.973D+00
 Gap=     0.446 Goal=   None    Shift=    0.000
 RMSDP=4.57D-08 MaxDP=9.48D-07 DE=-7.23D-11 OVMax= 1.45D-06

 Cycle  14  Pass 1  IDiag  1:
 RMSU=  8.37D-09    CP:  8.73D-01  1.26D+00  8.80D-01  7.77D-01  8.87D-01
                    CP:  1.20D+00  8.67D-01  1.18D+00  1.27D+00  1.24D+00
                    CP:  1.32D+00  1.02D+00  1.24D+00
 FoFJK:  IHMeth= 1 ICntrl=     0 DoSepK=T KAlg= 1 I1Cent= 0 FoldK=F
 E= -722.142041606145     Delta-E=       -0.000000000012 Rises=F Damp=F
 DIIS: error= 2.23D-08 at cycle  14 NSaved=  14.
 NSaved=14 IEnMin=14 EnMin= -722.142041606145     IErMin=14 ErrMin= 2.23D-08
 ErrMax= 2.23D-08 EMaxC= 1.00D-01 BMatC= 1.22D-13 BMatP= 3.09D-12
 IDIUse=1 WtCom= 1.00D+00 WtEn= 0.00D+00
 Coeff-Com: -0.850D-07 0.121D-06 0.143D-05 0.272D-05 0.196D-05-0.742D-04
 Coeff-Com: -0.104D-03 0.784D-04 0.232D-02 0.242D-02-0.141D-01-0.340D-01
 Coeff-Com: -0.486D-01 0.109D+01
 Coeff:     -0.850D-07 0.121D-06 0.143D-05 0.272D-05 0.196D-05-0.742D-04
 Coeff:     -0.104D-03 0.784D-04 0.232D-02 0.242D-02-0.141D-01-0.340D-01
 Coeff:     -0.486D-01 0.109D+01
 Gap=     0.446 Goal=   None    Shift=    0.000
 RMSDP=1.02D-08 MaxDP=2.55D-07 DE=-1.18D-11 OVMax= 3.55D-07

 Cycle  15  Pass 1  IDiag  1:
 RMSU=  1.69D-09    CP:  8.73D-01  1.26D+00  8.80D-01  7.77D-01  8.87D-01
                    CP:  1.20D+00  8.67D-01  1.18D+00  1.27D+00  1.24D+00
                    CP:  1.33D+00  1.05D+00  1.36D+00  1.33D+00
 FoFJK:  IHMeth= 1 ICntrl=     0 DoSepK=T KAlg= 1 I1Cent= 0 FoldK=F
 E= -722.142041606141     Delta-E=        0.000000000005 Rises=F Damp=F
 DIIS: error= 4.43D-09 at cycle  15 NSaved=  15.
 NSaved=15 IEnMin=14 EnMin= -722.142041606145     IErMin=15 ErrMin= 4.43D-09
 ErrMax= 4.43D-09 EMaxC= 1.00D-01 BMatC= 3.72D-15 BMatP= 1.22D-13
 IDIUse=1 WtCom= 1.00D+00 WtEn= 0.00D+00
 Coeff-Com: -0.153D-07 0.328D-07-0.198D-06 0.841D-06 0.235D-05-0.397D-05
 Coeff-Com: -0.117D-04 0.689D-05-0.183D-04 0.947D-03 0.291D-02-0.460D-02
 Coeff-Com: -0.507D-01-0.332D-01 0.108D+01
 Coeff:     -0.153D-07 0.328D-07-0.198D-06 0.841D-06 0.235D-05-0.397D-05
 Coeff:     -0.117D-04 0.689D-05-0.183D-04 0.947D-03 0.291D-02-0.460D-02
 Coeff:     -0.507D-01-0.332D-01 0.108D+01
 Gap=     0.446 Goal=   None    Shift=    0.000
 RMSDP=2.66D-09 MaxDP=6.90D-08 DE= 4.55D-12 OVMax= 9.16D-08

 Error on total polarization charges =  0.00675
 SCF Done:  E(RwB97XD) =  -722.142041606     A.U. after   15 cycles
             Convg  =    0.2656D-08             -V/T =  2.0066
 KE= 7.174103262564D+02 PE=-2.591818921694D+03 EE= 7.163706360366D+02
 Leave Link  502 at Thu Apr  2 11:00:53 2020, MaxMem= 2684354560 cpu:     139.6
 (Enter /opt/g09gh/gaussian/g09/l601.exe)
 Copying SCF densities to generalized density rwf, IOpCl= 0 IROHF=0.

 **********************************************************************

            Population analysis using the SCF density.

 **********************************************************************

 Orbital symmetries:
       Occupied  (A) (A) (A) (A) (A) (A) (A) (A) (A) (A) (A) (A)
                 (A) (A) (A) (A) (A) (A) (A) (A) (A) (A) (A) (A)
                 (A) (A) (A) (A) (A) (A) (A) (A) (A)
       Virtual   (A) (A) (A) (A) (A) (A) (A) (A) (A) (A) (A) (A)
                 (A) (A) (A) (A) (A) (A) (A) (A) (A) (A) (A) (A)
                 (A) (A) (A) (A) (A) (A) (A) (A) (A) (A) (A) (A)
                 (A) (A) (A) (A) (A) (A) (A) (A) (A) (A) (A) (A)
                 (A) (A) (A) (A) (A) (A) (A) (A) (A) (A) (A) (A)
                 (A) (A) (A) (A) (A) (A) (A) (A) (A) (A) (A) (A)
                 (A) (A) (A) (A) (A) (A) (A) (A) (A) (A) (A) (A)
                 (A) (A) (A) (A)
 The electronic state is 1-A.
 Alpha  occ. eigenvalues --  -77.33565 -19.27625 -19.27384 -19.19940 -19.15861
 Alpha  occ. eigenvalues --  -10.33647 -10.33452  -6.74123  -4.89222  -4.89009
 Alpha  occ. eigenvalues --   -4.88792  -1.15450  -1.11067  -1.02664  -0.94325
 Alpha  occ. eigenvalues --   -0.79151  -0.77938  -0.63692  -0.58433  -0.55221
 Alpha  occ. eigenvalues --   -0.54241  -0.52610  -0.51615  -0.47707  -0.43499
 Alpha  occ. eigenvalues --   -0.43150  -0.39356  -0.37670  -0.37126  -0.34992
 Alpha  occ. eigenvalues --   -0.34571  -0.29309  -0.28514
 Alpha virt. eigenvalues --    0.16045   0.20310   0.21625   0.22545   0.23997
 Alpha virt. eigenvalues --    0.25240   0.26045   0.27467   0.29657   0.30413
 Alpha virt. eigenvalues --    0.32041   0.33621   0.43829   0.44494   0.50055
 Alpha virt. eigenvalues --    0.52869   0.59074   0.64187   0.64864   0.70518
 Alpha virt. eigenvalues --    0.72038   0.74244   0.77301   0.83395   0.92317
 Alpha virt. eigenvalues --    0.92581   0.94976   0.95571   0.95733   0.99021
 Alpha virt. eigenvalues --    1.01991   1.02840   1.06958   1.09120   1.11177
 Alpha virt. eigenvalues --    1.12426   1.13690   1.16114   1.19975   1.20610
 Alpha virt. eigenvalues --    1.22906   1.23064   1.28476   1.31926   1.32480
 Alpha virt. eigenvalues --    1.38678   1.47035   1.55526   1.59787   1.61449
 Alpha virt. eigenvalues --    1.62348   1.64184   1.69241   1.76612   1.82159
 Alpha virt. eigenvalues --    1.88687   1.93897   1.95103   1.99223   2.00538
 Alpha virt. eigenvalues --    2.02578   2.08118   2.13591   2.15113   2.16219
 Alpha virt. eigenvalues --    2.21475   2.22420   2.24779   2.26604   2.29316
 Alpha virt. eigenvalues --    2.39352   2.44772   2.46821   2.50224   2.51848
 Alpha virt. eigenvalues --    2.64524   2.77557   2.81549   2.86376   2.94102
 Alpha virt. eigenvalues --    2.97520   3.65776   3.82975   3.91480   4.07774
 Alpha virt. eigenvalues --    4.17240   4.36116   4.36945
          Condensed to atoms (all electrons):
              1          2          3          4          5          6
     1  P   12.454518   0.231176   0.223153   0.517174   0.550654  -0.018901
     2  O    0.231176   8.298214  -0.028430  -0.042836  -0.027017   0.231301
     3  O    0.223153  -0.028430   8.301601  -0.040894  -0.029648  -0.000922
     4  O    0.517174  -0.042836  -0.040894   8.423139  -0.042664  -0.006377
     5  O    0.550654  -0.027017  -0.029648  -0.042664   8.221326   0.000355
     6  C   -0.018901   0.231301  -0.000922  -0.006377   0.000355   4.922228
     7  C   -0.014736  -0.000887   0.220988   0.000624  -0.003552  -0.000549
     8  H   -0.008922  -0.035887   0.008220  -0.001118  -0.000034   0.376970
     9  H    0.001687  -0.032957   0.000053   0.000149  -0.000013   0.382911
    10  H    0.001960  -0.038547  -0.000744   0.013222  -0.000019   0.367360
    11  H   -0.003542  -0.000536  -0.037237  -0.000062   0.006023  -0.000001
    12  H   -0.005311   0.007297  -0.036958  -0.000057  -0.000700   0.000205
    13  H   -0.001120   0.000024  -0.031528  -0.000046   0.000004   0.000013
              7          8          9         10         11         12
     1  P   -0.014736  -0.008922   0.001687   0.001960  -0.003542  -0.005311
     2  O   -0.000887  -0.035887  -0.032957  -0.038547  -0.000536   0.007297
     3  O    0.220988   0.008220   0.000053  -0.000744  -0.037237  -0.036958
     4  O    0.000624  -0.001118   0.000149   0.013222  -0.000062  -0.000057
     5  O   -0.003552  -0.000034  -0.000013  -0.000019   0.006023  -0.000700
     6  C   -0.000549   0.376970   0.382911   0.367360  -0.000001   0.000205
     7  C    4.936136   0.000527  -0.000015  -0.000054   0.374180   0.372855
     8  H    0.000527   0.562272  -0.033142  -0.036458   0.000161  -0.001923
     9  H   -0.000015  -0.033142   0.532047  -0.032239   0.000003  -0.000071
    10  H   -0.000054  -0.036458  -0.032239   0.553104  -0.000006   0.000147
    11  H    0.374180   0.000161   0.000003  -0.000006   0.555387  -0.037957
    12  H    0.372855  -0.001923  -0.000071   0.000147  -0.037957   0.562456
    13  H    0.385772  -0.000013  -0.000002   0.000003  -0.030814  -0.031640
             13
     1  P   -0.001120
     2  O    0.000024
     3  O   -0.031528
     4  O   -0.000046
     5  O    0.000004
     6  C    0.000013
     7  C    0.385772
     8  H   -0.000013
     9  H   -0.000002
    10  H    0.000003
    11  H   -0.030814
    12  H   -0.031640
    13  H    0.521400
 Mulliken atomic charges:
              1
     1  P    1.072208
     2  O   -0.560914
     3  O   -0.547653
     4  O   -0.820254
     5  O   -0.674714
     6  C   -0.254594
     7  C   -0.271290
     8  H    0.169346
     9  H    0.181590
    10  H    0.172272
    11  H    0.174400
    12  H    0.171657
    13  H    0.187947
 Sum of Mulliken atomic charges =  -1.00000
 Mulliken charges with hydrogens summed into heavy atoms:
              1
     1  P    1.072208
     2  O   -0.560914
     3  O   -0.547653
     4  O   -0.820254
     5  O   -0.674714
     6  C    0.268614
     7  C    0.262714
 Sum of Mulliken charges with hydrogens summed into heavy atoms =  -1.00000
 Electronic spatial extent (au):  <R**2>=            835.5038
 Charge=             -1.0000 electrons
 Dipole moment (field-independent basis, Debye):
    X=             -0.7973    Y=              9.6207    Z=             -1.4256  Tot=              9.7584
 Quadrupole moment (field-independent basis, Debye-Ang):
   XX=            -48.7075   YY=            -57.9101   ZZ=            -59.5718
   XY=              0.1643   XZ=             -3.0914   YZ=              0.9411
 Traceless Quadrupole moment (field-independent basis, Debye-Ang):
   XX=              6.6889   YY=             -2.5136   ZZ=             -4.1753
   XY=              0.1643   XZ=             -3.0914   YZ=              0.9411
 Octapole moment (field-independent basis, Debye-Ang**2):
  XXX=             -0.8817  YYY=             25.9633  ZZZ=             -3.3158  XYY=             -0.0845
  XXY=             15.6552  XXZ=             -0.7833  XZZ=             -1.9078  YZZ=             10.0937
  YYZ=             -0.7828  XYZ=              7.2169
 Hexadecapole moment (field-independent basis, Debye-Ang**3):
 XXXX=           -445.3072 YYYY=           -422.7965 ZZZZ=           -191.5739 XXXY=              1.6714
 XXXZ=             -6.3811 YYYX=             -2.8829 YYYZ=              1.7025 ZZZX=             -7.0479
 ZZZY=              4.1255 XXYY=           -138.6143 XXZZ=           -112.6687 YYZZ=           -109.8172
 XXYZ=              0.7425 YYXZ=            -16.5977 ZZXY=              1.3562
 N-N= 4.358959177947D+02 E-N=-2.591818922000D+03  KE= 7.174103262564D+02
 No NMR shielding tensors so no spin-rotation constants.
 Leave Link  601 at Thu Apr  2 11:00:53 2020, MaxMem= 2684354560 cpu:       0.6
 (Enter /opt/g09gh/gaussian/g09/l701.exe)
 Compute integral first derivatives.
 ... and contract with generalized density number  0.
 R6Disp: Adding dispersion energy 1st derivatives to the gradient.
 D1PCM: PCM CHGder 1st derivatives, ID1Alg=3 FixD1E=F DoIter=F DoCFld=F I1PDM=0.
 GePol: Maximum number of non-zero 1st derivatives   =     225
 Leave Link  701 at Thu Apr  2 11:00:55 2020, MaxMem= 2684354560 cpu:       4.3
 (Enter /opt/g09gh/gaussian/g09/l702.exe)
 L702 exits ... SP integral derivatives will be done elsewhere.
 Leave Link  702 at Thu Apr  2 11:00:55 2020, MaxMem= 2684354560 cpu:       0.2
 (Enter /opt/g09gh/gaussian/g09/l703.exe)
 Compute integral first derivatives, UseDBF=F ICtDFT=           0.
 Integral derivatives from FoFDir, PRISM(SPDF).
 Calling FoFJK, ICntrl=      2127 FMM=F ISym2X=0 I1Cent= 0 IOpClX= 0 NMat=1 NMatS=1 NMatT=0.
 FoFJK:  IHMeth= 1 ICntrl=  2127 DoSepK=T KAlg= 1 I1Cent= 0 FoldK=F
 FoFCou: FMM=F IPFlag=           0 FMFlag=      100000 FMFlg1=         800
         NFxFlg=           0 DoJE=F BraDBF=F KetDBF=F FulRan=T
         Omega=  0.000000  0.000000  1.000000  0.000000  0.000000 ICntrl=    2527 IOpCl=  0
         NMat0=    1 NMatS0=    1 NMatT0=    0 NMatD0=    1 NMtDS0=    0 NMtDT0=    0
         I1Cent=           0 NGrid=           0.
 Symmetry not used in FoFCou.
 Leave Link  703 at Thu Apr  2 11:00:59 2020, MaxMem= 2684354560 cpu:      18.9
 (Enter /opt/g09gh/gaussian/g09/l716.exe)
 Dipole        =-3.13679993D-01 3.78508824D+00-5.60878925D-01
 ***** Axes restored to original set *****
 -------------------------------------------------------------------
 Center     Atomic                   Forces (Hartrees/Bohr)
 Number     Number              X              Y              Z
 -------------------------------------------------------------------
      1       15           0.064321635    0.081113809   -0.096619649
      2        8          -0.009029894   -0.008215770    0.024609459
      3        8          -0.005915336   -0.009402044    0.001330376
      4        8          -0.043820408   -0.038953659    0.056596649
      5        8          -0.000139759   -0.024146252    0.012088232
      6        6           0.001208390    0.000658746   -0.002437300
      7        6          -0.002655384    0.000372478    0.002232346
      8        1          -0.000244642   -0.001170154   -0.002218367
      9        1          -0.001993297    0.001545634    0.002343809
     10        1          -0.001289644    0.000291949   -0.001827749
     11        1          -0.001536640   -0.001333667    0.002554897
     12        1          -0.000210058   -0.002022091    0.002410522
     13        1           0.001305036    0.001261021   -0.001063226
 -------------------------------------------------------------------
 Cartesian Forces:  Max     0.096619649 RMS     0.026971125
 Leave Link  716 at Thu Apr  2 11:01:00 2020, MaxMem= 2684354560 cpu:       0.2
 (Enter /opt/g09gh/gaussian/g09/l103.exe)

 GradGradGradGradGradGradGradGradGradGradGradGradGradGradGradGradGradGrad
 Berny optimization.
 Internal  Forces:  Max     0.081359792 RMS     0.014985158
 Search for a local minimum.
 Step number   1 out of a maximum of  100
 All quantities printed in internal units (Hartrees-Bohrs-Radians)
 RMS Force = .14985D-01 SwitMx=.10000D-02 MixMth= 1
 Mixed Optimization -- RFO/linear search
 Second derivative matrix not updated -- first step.
     Eigenvalues ---    0.01463   0.01464   0.03154   0.03163   0.10239
     Eigenvalues ---    0.10286   0.10474   0.10481   0.13150   0.16000
     Eigenvalues ---    0.16000   0.16000   0.16000   0.16000   0.16000
     Eigenvalues ---    0.16396   0.18096   0.22218   0.25000   0.25000
     Eigenvalues ---    0.25000   0.34452   0.34481   0.34483   0.34488
     Eigenvalues ---    0.34514   0.34531   0.42870   0.42882   0.47611
     Eigenvalues ---    0.47727   0.47798   0.760791000.000001000.00000
     Eigenvalues --- 1000.000001000.000001000.000001000.000001000.00000
     Eigenvalues --- 1000.000001000.000001000.000001000.00000
 RFO step:  Lambda=-3.13109085D-02 EMin= 1.46295239D-02
 Linear search not attempted -- first point.
 Maximum step size (   0.300) exceeded in Quadratic search.
    -- Step size scaled by   0.821
 Iteration  1 RMS(Cart)=  0.07569292 RMS(Int)=  0.00407915
 Iteration  2 RMS(Cart)=  0.00489556 RMS(Int)=  0.00229989
 Iteration  3 RMS(Cart)=  0.00001108 RMS(Int)=  0.00229988
 Iteration  4 RMS(Cart)=  0.00000014 RMS(Int)=  0.00229988
 Variable       Old X    -DE/DX   Delta X   Delta X   Delta X     New X
                                 (Linear)    (Quad)   (Total)
    R1        3.05931   0.00561   0.00000   0.00906   0.00906   3.06836
    R2        3.06056   0.00890   0.00000   0.01441   0.01441   3.07498
    R3        3.05855  -0.08136   0.00000  -0.13122  -0.13122   2.92733
    R4        2.83802  -0.00794   0.00000  -0.00823  -0.00823   2.82978
    R5        2.67831   0.00002   0.00000   0.00003   0.00003   2.67834
    R6        2.67816   0.00604   0.00000   0.01079   0.01079   2.68895
    R7        2.06443   0.00190   0.00000   0.00415   0.00415   2.06858
    R8        2.06525  -0.00049   0.00000  -0.00107  -0.00107   2.06418
    R9        2.06523   0.00065   0.00000   0.00143   0.00143   2.06666
   R10        2.06574   0.00169   0.00000   0.00369   0.00369   2.06943
   R11        2.06514   0.00244   0.00000   0.00534   0.00534   2.07047
   R12        2.06471  -0.00071   0.00000  -0.00155  -0.00155   2.06316
    A1        1.83086  -0.01113   0.00000  -0.05709  -0.06201   1.76886
    A2        1.81856   0.01896   0.00000   0.08430   0.08464   1.90320
    A3        2.00189  -0.02310   0.00000  -0.10064  -0.10675   1.89514
    A4        1.79888   0.00632   0.00000   0.04262   0.04254   1.84142
    A5        1.99981  -0.00643   0.00000  -0.04747  -0.05551   1.94429
    A6        1.99111   0.01822   0.00000   0.09229   0.09339   2.08450
    A7        2.09534  -0.00700   0.00000  -0.02043  -0.02043   2.07491
    A8        2.06714  -0.00061   0.00000  -0.00179  -0.00179   2.06535
    A9        1.92917   0.00229   0.00000   0.00948   0.00950   1.93867
   A10        1.89517  -0.00490   0.00000  -0.02083  -0.02082   1.87436
   A11        1.92070   0.00016   0.00000   0.00078   0.00078   1.92148
   A12        1.89983   0.00121   0.00000   0.00500   0.00503   1.90487
   A13        1.91851  -0.00159   0.00000  -0.00725  -0.00725   1.91126
   A14        1.89993   0.00283   0.00000   0.01281   0.01280   1.91273
   A15        1.91606   0.00419   0.00000   0.01876   0.01873   1.93479
   A16        1.92598   0.00266   0.00000   0.01154   0.01149   1.93746
   A17        1.89769  -0.00428   0.00000  -0.01925  -0.01921   1.87848
   A18        1.91673  -0.00241   0.00000  -0.00869  -0.00880   1.90793
   A19        1.90370  -0.00005   0.00000  -0.00046  -0.00040   1.90330
   A20        1.90338  -0.00018   0.00000  -0.00226  -0.00224   1.90115
    D1        0.93209   0.01445   0.00000   0.08137   0.07563   1.00771
    D2       -0.95250   0.00460   0.00000   0.02440   0.02357  -0.92893
    D3       -3.14157  -0.01797   0.00000  -0.09159  -0.08501   3.05661
    D4        1.16370  -0.02036   0.00000  -0.09454  -0.09094   1.07276
    D5        3.06264  -0.00119   0.00000  -0.00666  -0.00639   3.05625
    D6       -1.04712   0.02229   0.00000   0.11096   0.10708  -0.94004
    D7       -1.03016  -0.00014   0.00000  -0.00315  -0.00318  -1.03334
    D8       -3.11303   0.00005   0.00000  -0.00204  -0.00202  -3.11505
    D9        1.09219  -0.00052   0.00000  -0.00548  -0.00549   1.08671
   D10        1.08954   0.00031   0.00000  -0.00070  -0.00056   1.08898
   D11       -1.02546  -0.00113   0.00000  -0.00953  -0.00964  -1.03510
   D12       -3.11231   0.00014   0.00000  -0.00178  -0.00181  -3.11412
         Item               Value     Threshold  Converged?
 Maximum Force            0.081360     0.000450     NO 
 RMS     Force            0.014985     0.000300     NO 
 Maximum Displacement     0.232742     0.001800     NO 
 RMS     Displacement     0.078269     0.001200     NO 
 Predicted change in Energy=-1.616370D-02
 GradGradGradGradGradGradGradGradGradGradGradGradGradGradGradGradGradGrad

 Leave Link  103 at Thu Apr  2 11:01:00 2020, MaxMem= 2684354560 cpu:       0.1
 (Enter /opt/g09gh/gaussian/g09/l202.exe)
                          Input orientation:                          
 ---------------------------------------------------------------------
 Center     Atomic      Atomic             Coordinates (Angstroms)
 Number     Number       Type             X           Y           Z
 ---------------------------------------------------------------------
      1         15           0       -0.021622    0.635255   -0.022615
      2          8           0        0.994499   -0.343647    0.780926
      3          8           0       -0.983795   -0.444536   -0.768320
      4          8           0        0.755478    1.349781   -1.156286
      5          8           0       -0.785660    1.451467    0.973589
      6          6           0        1.753819   -1.291136    0.049845
      7          6           0       -1.750863   -1.333722    0.035227
      8          1           0        1.102410   -1.976253   -0.502001
      9          1           0        2.345238   -1.861169    0.769877
     10          1           0        2.421077   -0.779068   -0.649141
     11          1           0       -2.461437   -0.781067    0.658832
     12          1           0       -1.103019   -1.942031    0.676087
     13          1           0       -2.304025   -1.992876   -0.636719
 ---------------------------------------------------------------------
                    Distance matrix (angstroms):
                    1          2          3          4          5
     1  P    0.000000
     2  O    1.623708   0.000000
     3  O    1.627207   2.514754   0.000000
     4  O    1.549078   2.584109   2.528866   0.000000
     5  O    1.497457   2.535452   2.582311   2.630934   0.000000
     6  C    2.620768   1.417315   2.980042   3.070159   3.850211
     7  C    2.621163   3.012196   1.422931   3.860394   3.093448
     8  H    2.883268   2.079170   2.601795   3.407485   4.182276
     9  H    3.530185   2.031623   3.931331   4.067880   4.562628
    10  H    2.891301   2.066351   3.423341   2.750166   4.229858
    11  H    2.902247   3.485648   2.081693   4.264237   2.809182
    12  H    2.880974   2.639206   2.083991   4.200908   3.421264
    13  H    3.534623   3.950941   2.039040   4.561125   4.094144
                    6          7          8          9         10
     6  C    0.000000
     7  C    3.504971   0.000000
     8  H    1.094647   2.973655   0.000000
     9  H    1.092319   4.194753   1.782004   0.000000
    10  H    1.093631   4.263928   1.787116   1.786143   0.000000
    11  H    4.289454   1.095093   3.934084   4.927787   5.054675
    12  H    2.996225   1.095647   2.500596   3.450480   3.940554
    13  H    4.174913   1.091780   3.409138   4.859167   4.878531
                   11         12         13
    11  H    0.000000
    12  H    1.787019   0.000000
    13  H    1.780931   1.780017   0.000000
 Stoichiometry    C2H6O4P(1-)
 Framework group  C1[X(C2H6O4P)]
 Deg. of freedom    33
 Full point group                 C1      NOp   1
 Largest Abelian subgroup         C1      NOp   1
 Largest concise Abelian subgroup C1      NOp   1
                         Standard orientation:                         
 ---------------------------------------------------------------------
 Center     Atomic      Atomic             Coordinates (Angstroms)
 Number     Number       Type             X           Y           Z
 ---------------------------------------------------------------------
      1         15           0        0.005195   -0.626762   -0.016568
      2          8           0        0.962076    0.416414   -0.811924
      3          8           0       -0.963434    0.390069    0.805389
      4          8           0        0.842883   -1.361429    1.059622
      5          8           0       -0.767362   -1.425942   -1.019984
      6          6           0        1.716662    1.357350   -0.067599
      7          6           0       -1.785042    1.286025    0.065825
      8          1           0        1.063932    1.997989    0.533882
      9          1           0        2.264835    1.975081   -0.782494
     10          1           0        2.423283    0.839040    0.586670
     11          1           0       -2.499409    0.736580   -0.556284
     12          1           0       -1.178941    1.940575   -0.570294
     13          1           0       -2.334661    1.899013    0.782866
 ---------------------------------------------------------------------
 Rotational constants (GHZ):      2.5851446      2.4344454      1.7620856
 Leave Link  202 at Thu Apr  2 11:01:00 2020, MaxMem= 2684354560 cpu:       0.0
 (Enter /opt/g09gh/gaussian/g09/l301.exe)
 Standard basis: 6-31G(d) (6D, 7F)
 Ernie: Thresh=  0.10000D-02 Tol=  0.10000D-05 Strict=F.
 There are   121 symmetry adapted basis functions of A   symmetry.
 Integral buffers will be    131072 words long.
 Raffenetti 2 integral format.
 Two-electron integral symmetry is turned on.
   121 basis functions,   244 primitive gaussians,   121 cartesian basis functions
    33 alpha electrons       33 beta electrons
       nuclear repulsion energy       439.6486174304 Hartrees.
 IExCor= 4639 DFT=T Ex+Corr=wB97XD ExCW=0 ScaHFX=  1.000000
 ScaDFX=  1.000000  1.000000  1.000000  1.000000 ScalE2=  1.000000  1.000000
 IRadAn=      0 IRanWt=     -1 IRanGd=            0 ICorTp=0
  HFx wShort=  0.000000 wLong=  0.200000 cFull=  0.222036 cShort=  0.000000 cLong=  0.777964
  DFx wShort=  0.000000 wLong=  0.200000 cFull=  0.000000 cShort=  0.000000 cLong=  1.000000
 NAtoms=   13 NActive=   13 NUniq=   13 SFac= 7.50D-01 NAtFMM=   80 NAOKFM=F Big=F
 R6Disp: Dispersion energy =        -0.0053885504 Hartrees.
 Nuclear repulsion after empirical dispersion term =      439.6432288799 Hartrees.
 ------------------------------------------------------------------------------
 Polarizable Continuum Model (PCM)
 =================================
 Model                : PCM.
 Atomic radii         : UFF (Universal Force Field).
 Polarization charges : Total charges.
 Charge compensation  : None.
 Solution method      : Matrix inversion.
 Cavity type          : Scaled VdW (van der Waals Surface) (Alpha=1.100).
 Cavity algorithm     : GePol (No added spheres)
                        Default sphere list used, NSphG=   13.
                        Lebedev-Laikov grids with approx.  5.0 points / Ang**2.
                        Smoothing algorithm: Karplus/York (Gamma=1.0000).
                        Polarization charges: spherical gaussians, with
                                              point-specific exponents (IZeta= 3).
                        Self-potential: point-specific (ISelfS= 7).
                        Self-field    : sphere-specific E.n sum rule (ISelfD= 2).
 1st derivatives      : Analytical E(r).r(x)/FMM algorithm (CHGder, D1EAlg=3).
                        Cavity 1st derivative terms included.
 Solvent              : Water, Eps=  78.355300 Eps(inf)=   1.777849
 ------------------------------------------------------------------------------
 Spheres list:
 ISph  on   Nord    Re0     Alpha      Xe            Ye            Ze
    1   P      1    2.074   1.100      0.005195     -0.626762     -0.016568
    2   O      2    1.750   1.100      0.962076      0.416414     -0.811924
    3   O      3    1.750   1.100     -0.963434      0.390069      0.805389
    4   O      4    1.750   1.100      0.842883     -1.361429      1.059622
    5   O      5    1.750   1.100     -0.767362     -1.425942     -1.019984
    6   C      6    1.926   1.100      1.716662      1.357350     -0.067599
    7   C      7    1.926   1.100     -1.785042      1.286025      0.065825
    8   H      8    1.443   1.100      1.063932      1.997989      0.533882
    9   H      9    1.443   1.100      2.264835      1.975081     -0.782494
   10   H     10    1.443   1.100      2.423283      0.839040      0.586670
   11   H     11    1.443   1.100     -2.499409      0.736580     -0.556284
   12   H     12    1.443   1.100     -1.178941      1.940575     -0.570294
   13   H     13    1.443   1.100     -2.334661      1.899013      0.782866
 ------------------------------------------------------------------------------
 GePol: Number of generator spheres                  =      13
 GePol: Total number of spheres                      =      13
 GePol: Number of exposed spheres                    =      13 (100.00%)
 GePol: Number of points                             =    1257
 GePol: Average weight of points                     =       0.13
 GePol: Minimum weight of points                     =   0.53D-08
 GePol: Maximum weight of points                     =    0.20322
 GePol: Number of points with low weight             =      63
 GePol: Fraction of low-weight points (<1% of avg)   =       5.01%
 GePol: Cavity surface area                          =    164.876 Ang**2
 GePol: Cavity volume                                =    156.493 Ang**3
 Leave Link  301 at Thu Apr  2 11:01:00 2020, MaxMem= 2684354560 cpu:       0.4
 (Enter /opt/g09gh/gaussian/g09/l302.exe)
 NPDir=0 NMtPBC=     1 NCelOv=     1 NCel=       1 NClECP=     1 NCelD=      1
         NCelK=      1 NCelE2=     1 NClLst=     1 CellRange=     0.0.
 One-electron integrals computed using PRISM.
 NBasis=   121 RedAO= T  NBF=   121
 NBsUse=   121 1.00D-06 NBFU=   121
 Precomputing XC quadrature grid using
 IXCGrd= 2 IRadAn=           0 IRanWt=          -1 IRanGd=           0 AccXCQ= 1.00D-10.
 NRdTot=     812 NPtTot=      103188 NUsed=      109054 NTot=      109086
 NSgBfM=   121   121   121   121   121 NAtAll=    13    13.
 Leave Link  302 at Thu Apr  2 11:01:00 2020, MaxMem= 2684354560 cpu:       1.0
 (Enter /opt/g09gh/gaussian/g09/l303.exe)
 DipDrv:  MaxL=1.
 Leave Link  303 at Thu Apr  2 11:01:00 2020, MaxMem= 2684354560 cpu:       0.3
 (Enter /opt/g09gh/gaussian/g09/l401.exe)
 Initial guess read from the read-write file.
 B after Tr=     0.000000    0.000000    0.000000
         Rot=    1.000000    0.000000    0.000000    0.000000 Ang=   0.00 deg.
 Guess basis will be translated and rotated to current coordinates.
 Initial guess orbital symmetries:
       Occupied  (A) (A) (A) (A) (A) (A) (A) (A) (A) (A) (A) (A)
                 (A) (A) (A) (A) (A) (A) (A) (A) (A) (A) (A) (A)
                 (A) (A) (A) (A) (A) (A) (A) (A) (A)
       Virtual   (A) (A) (A) (A) (A) (A) (A) (A) (A) (A) (A) (A)
                 (A) (A) (A) (A) (A) (A) (A) (A) (A) (A) (A) (A)
                 (A) (A) (A) (A) (A) (A) (A) (A) (A) (A) (A) (A)
                 (A) (A) (A) (A) (A) (A) (A) (A) (A) (A) (A) (A)
                 (A) (A) (A) (A) (A) (A) (A) (A) (A) (A) (A) (A)
                 (A) (A) (A) (A) (A) (A) (A) (A) (A) (A) (A) (A)
                 (A) (A) (A) (A) (A) (A) (A) (A) (A) (A) (A) (A)
                 (A) (A) (A) (A)
 The electronic state of the initial guess is 1-A.
 Leave Link  401 at Thu Apr  2 11:01:00 2020, MaxMem= 2684354560 cpu:       0.7
 (Enter /opt/g09gh/gaussian/g09/l502.exe)
 Closed shell SCF:
 Requested convergence on RMS density matrix=1.00D-08 within 128 cycles.
 Requested convergence on MAX density matrix=1.00D-06.
 Requested convergence on             energy=1.00D-06.
 No special actions if energy rises.
 Using DIIS extrapolation, IDIIS=  1040.
 Integral symmetry usage will be decided dynamically.
       108924 words used for storage of precomputed grid.
 IEnd=      172633 IEndB=      172633 NGot=  2684354560 MDV=  2684213330
 LenX=  2684213330 LenY=  2684198248
 Fock matrices will be formed incrementally for  20 cycles.

 Cycle   1  Pass 1  IDiag  1:
 FoFJK:  IHMeth= 1 ICntrl=     0 DoSepK=T KAlg= 1 I1Cent= 0 FoldK=F
 FoFCou: FMM=F IPFlag=           0 FMFlag=      100000 FMFlg1=           0
         NFxFlg=           0 DoJE=T BraDBF=F KetDBF=F FulRan=T
         Omega=  0.000000  0.000000  1.000000  0.000000  0.000000 ICntrl=     500 IOpCl=  0
         NMat0=    1 NMatS0=    1 NMatT0=    0 NMatD0=    1 NMtDS0=    0 NMtDT0=    0
         I1Cent=           0 NGrid=           0.
 Symmetry not used in FoFCou.
 E= -722.139329508198    
 DIIS: error= 7.26D-03 at cycle   1 NSaved=   1.
 NSaved= 1 IEnMin= 1 EnMin= -722.139329508198     IErMin= 1 ErrMin= 7.26D-03
 ErrMax= 7.26D-03 EMaxC= 1.00D-01 BMatC= 1.20D-02 BMatP= 1.20D-02
 IDIUse=3 WtCom= 9.27D-01 WtEn= 7.26D-02
 Coeff-Com:  0.100D+01
 Coeff-En:   0.100D+01
 Coeff:      0.100D+01
 Gap=     0.506 Goal=   None    Shift=    0.000
 GapD=    0.506 DampG=2.000 DampE=1.000 DampFc=2.0000 IDamp=-1.
 RMSDP=1.50D-03 MaxDP=2.17D-02              OVMax= 2.94D-02

 Cycle   2  Pass 1  IDiag  1:
 RMSU=  1.06D-03    CP:  9.98D-01
 FoFJK:  IHMeth= 1 ICntrl=     0 DoSepK=T KAlg= 1 I1Cent= 0 FoldK=F
 E= -722.157957959967     Delta-E=       -0.018628451769 Rises=F Damp=F
 DIIS: error= 2.35D-03 at cycle   2 NSaved=   2.
 NSaved= 2 IEnMin= 2 EnMin= -722.157957959967     IErMin= 2 ErrMin= 2.35D-03
 ErrMax= 2.35D-03 EMaxC= 1.00D-01 BMatC= 1.82D-03 BMatP= 1.20D-02
 IDIUse=3 WtCom= 9.77D-01 WtEn= 2.35D-02
 Coeff-Com:  0.873D-01 0.913D+00
 Coeff-En:   0.000D+00 0.100D+01
 Coeff:      0.852D-01 0.915D+00
 Gap=     0.474 Goal=   None    Shift=    0.000
 RMSDP=5.26D-04 MaxDP=1.41D-02 DE=-1.86D-02 OVMax= 1.84D-02

 Cycle   3  Pass 1  IDiag  1:
 RMSU=  3.55D-04    CP:  9.98D-01  1.10D+00
 FoFJK:  IHMeth= 1 ICntrl=     0 DoSepK=T KAlg= 1 I1Cent= 0 FoldK=F
 E= -722.158624114572     Delta-E=       -0.000666154605 Rises=F Damp=F
 DIIS: error= 2.55D-03 at cycle   3 NSaved=   3.
 NSaved= 3 IEnMin= 3 EnMin= -722.158624114572     IErMin= 2 ErrMin= 2.35D-03
 ErrMax= 2.55D-03 EMaxC= 1.00D-01 BMatC= 1.81D-03 BMatP= 1.82D-03
 IDIUse=3 WtCom= 9.75D-01 WtEn= 2.55D-02
 Coeff-Com: -0.115D+00 0.537D+00 0.578D+00
 Coeff-En:   0.000D+00 0.358D+00 0.642D+00
 Coeff:     -0.112D+00 0.533D+00 0.580D+00
 Gap=     0.479 Goal=   None    Shift=    0.000
 RMSDP=2.95D-04 MaxDP=8.15D-03 DE=-6.66D-04 OVMax= 1.00D-02

 Cycle   4  Pass 1  IDiag  1:
 RMSU=  1.03D-04    CP:  9.97D-01  1.21D+00  6.00D-01
 FoFJK:  IHMeth= 1 ICntrl=     0 DoSepK=T KAlg= 1 I1Cent= 0 FoldK=F
 E= -722.159978944577     Delta-E=       -0.001354830005 Rises=F Damp=F
 DIIS: error= 2.27D-04 at cycle   4 NSaved=   4.
 NSaved= 4 IEnMin= 4 EnMin= -722.159978944577     IErMin= 4 ErrMin= 2.27D-04
 ErrMax= 2.27D-04 EMaxC= 1.00D-01 BMatC= 1.44D-05 BMatP= 1.81D-03
 IDIUse=3 WtCom= 9.98D-01 WtEn= 2.27D-03
 Coeff-Com: -0.186D-01 0.321D-01 0.985D-01 0.888D+00
 Coeff-En:   0.000D+00 0.000D+00 0.000D+00 0.100D+01
 Coeff:     -0.185D-01 0.320D-01 0.983D-01 0.888D+00
 Gap=     0.478 Goal=   None    Shift=    0.000
 RMSDP=5.40D-05 MaxDP=1.22D-03 DE=-1.35D-03 OVMax= 1.25D-03

 Cycle   5  Pass 1  IDiag  1:
 RMSU=  2.62D-05    CP:  9.97D-01  1.22D+00  6.50D-01  1.15D+00
 FoFJK:  IHMeth= 1 ICntrl=     0 DoSepK=T KAlg= 1 I1Cent= 0 FoldK=F
 E= -722.159996652115     Delta-E=       -0.000017707539 Rises=F Damp=F
 DIIS: error= 5.50D-05 at cycle   5 NSaved=   5.
 NSaved= 5 IEnMin= 5 EnMin= -722.159996652115     IErMin= 5 ErrMin= 5.50D-05
 ErrMax= 5.50D-05 EMaxC= 1.00D-01 BMatC= 1.50D-06 BMatP= 1.44D-05
 IDIUse=1 WtCom= 1.00D+00 WtEn= 0.00D+00
 Coeff-Com:  0.531D-02-0.403D-01-0.232D-01 0.245D+00 0.814D+00
 Coeff:      0.531D-02-0.403D-01-0.232D-01 0.245D+00 0.814D+00
 Gap=     0.478 Goal=   None    Shift=    0.000
 RMSDP=1.98D-05 MaxDP=4.55D-04 DE=-1.77D-05 OVMax= 4.40D-04

 Cycle   6  Pass 1  IDiag  1:
 RMSU=  7.11D-06    CP:  9.97D-01  1.23D+00  6.62D-01  1.25D+00  9.70D-01
 FoFJK:  IHMeth= 1 ICntrl=     0 DoSepK=T KAlg= 1 I1Cent= 0 FoldK=F
 E= -722.159998555923     Delta-E=       -0.000001903808 Rises=F Damp=F
 DIIS: error= 2.39D-05 at cycle   6 NSaved=   6.
 NSaved= 6 IEnMin= 6 EnMin= -722.159998555923     IErMin= 6 ErrMin= 2.39D-05
 ErrMax= 2.39D-05 EMaxC= 1.00D-01 BMatC= 2.12D-07 BMatP= 1.50D-06
 IDIUse=1 WtCom= 1.00D+00 WtEn= 0.00D+00
 Coeff-Com:  0.357D-02-0.185D-01-0.176D-01 0.219D-01 0.315D+00 0.696D+00
 Coeff:      0.357D-02-0.185D-01-0.176D-01 0.219D-01 0.315D+00 0.696D+00
 Gap=     0.478 Goal=   None    Shift=    0.000
 RMSDP=6.17D-06 MaxDP=1.46D-04 DE=-1.90D-06 OVMax= 1.35D-04

 Cycle   7  Pass 1  IDiag  1:
 RMSU=  2.63D-06    CP:  9.97D-01  1.23D+00  6.65D-01  1.27D+00  1.04D+00
                    CP:  1.06D+00
 FoFJK:  IHMeth= 1 ICntrl=     0 DoSepK=T KAlg= 1 I1Cent= 0 FoldK=F
 E= -722.159998761383     Delta-E=       -0.000000205460 Rises=F Damp=F
 DIIS: error= 7.82D-06 at cycle   7 NSaved=   7.
 NSaved= 7 IEnMin= 7 EnMin= -722.159998761383     IErMin= 7 ErrMin= 7.82D-06
 ErrMax= 7.82D-06 EMaxC= 1.00D-01 BMatC= 2.68D-08 BMatP= 2.12D-07
 IDIUse=1 WtCom= 1.00D+00 WtEn= 0.00D+00
 Coeff-Com:  0.848D-03-0.311D-02-0.485D-02-0.178D-01 0.364D-01 0.280D+00
 Coeff-Com:  0.709D+00
 Coeff:      0.848D-03-0.311D-02-0.485D-02-0.178D-01 0.364D-01 0.280D+00
 Coeff:      0.709D+00
 Gap=     0.478 Goal=   None    Shift=    0.000
 RMSDP=2.39D-06 MaxDP=5.51D-05 DE=-2.05D-07 OVMax= 6.44D-05

 Cycle   8  Pass 1  IDiag  1:
 RMSU=  7.57D-07    CP:  9.97D-01  1.23D+00  6.66D-01  1.28D+00  1.07D+00
                    CP:  1.19D+00  9.51D-01
 FoFJK:  IHMeth= 1 ICntrl=     0 DoSepK=T KAlg= 1 I1Cent= 0 FoldK=F
 E= -722.159998790124     Delta-E=       -0.000000028741 Rises=F Damp=F
 DIIS: error= 3.10D-06 at cycle   8 NSaved=   8.
 NSaved= 8 IEnMin= 8 EnMin= -722.159998790124     IErMin= 8 ErrMin= 3.10D-06
 ErrMax= 3.10D-06 EMaxC= 1.00D-01 BMatC= 2.28D-09 BMatP= 2.68D-08
 IDIUse=1 WtCom= 1.00D+00 WtEn= 0.00D+00
 Coeff-Com: -0.205D-03 0.148D-02 0.771D-03-0.779D-02-0.299D-01-0.132D-01
 Coeff-Com:  0.205D+00 0.844D+00
 Coeff:     -0.205D-03 0.148D-02 0.771D-03-0.779D-02-0.299D-01-0.132D-01
 Coeff:      0.205D+00 0.844D+00
 Gap=     0.478 Goal=   None    Shift=    0.000
 RMSDP=1.07D-06 MaxDP=2.79D-05 DE=-2.87D-08 OVMax= 2.79D-05

 Cycle   9  Pass 1  IDiag  1:
 RMSU=  2.52D-07    CP:  9.97D-01  1.23D+00  6.66D-01  1.28D+00  1.08D+00
                    CP:  1.24D+00  1.08D+00  1.07D+00
 FoFJK:  IHMeth= 1 ICntrl=     0 DoSepK=T KAlg= 1 I1Cent= 0 FoldK=F
 E= -722.159998793527     Delta-E=       -0.000000003403 Rises=F Damp=F
 DIIS: error= 1.27D-06 at cycle   9 NSaved=   9.
 NSaved= 9 IEnMin= 9 EnMin= -722.159998793527     IErMin= 9 ErrMin= 1.27D-06
 ErrMax= 1.27D-06 EMaxC= 1.00D-01 BMatC= 3.00D-10 BMatP= 2.28D-09
 IDIUse=1 WtCom= 1.00D+00 WtEn= 0.00D+00
 Coeff-Com: -0.158D-03 0.834D-03 0.781D-03-0.689D-03-0.141D-01-0.339D-01
 Coeff-Com:  0.153D-02 0.300D+00 0.745D+00
 Coeff:     -0.158D-03 0.834D-03 0.781D-03-0.689D-03-0.141D-01-0.339D-01
 Coeff:      0.153D-02 0.300D+00 0.745D+00
 Gap=     0.478 Goal=   None    Shift=    0.000
 RMSDP=3.04D-07 MaxDP=7.18D-06 DE=-3.40D-09 OVMax= 8.93D-06

 Cycle  10  Pass 1  IDiag  1:
 RMSU=  8.16D-08    CP:  9.97D-01  1.23D+00  6.66D-01  1.28D+00  1.09D+00
                    CP:  1.26D+00  1.11D+00  1.20D+00  1.02D+00
 FoFJK:  IHMeth= 1 ICntrl=     0 DoSepK=T KAlg= 1 I1Cent= 0 FoldK=F
 E= -722.159998793885     Delta-E=       -0.000000000358 Rises=F Damp=F
 DIIS: error= 3.31D-07 at cycle  10 NSaved=  10.
 NSaved=10 IEnMin=10 EnMin= -722.159998793885     IErMin=10 ErrMin= 3.31D-07
 ErrMax= 3.31D-07 EMaxC= 1.00D-01 BMatC= 3.13D-11 BMatP= 3.00D-10
 IDIUse=1 WtCom= 1.00D+00 WtEn= 0.00D+00
 Coeff-Com: -0.244D-04 0.885D-04 0.162D-03 0.655D-03-0.105D-02-0.937D-02
 Coeff-Com: -0.228D-01-0.129D-02 0.244D+00 0.790D+00
 Coeff:     -0.244D-04 0.885D-04 0.162D-03 0.655D-03-0.105D-02-0.937D-02
 Coeff:     -0.228D-01-0.129D-02 0.244D+00 0.790D+00
 Gap=     0.478 Goal=   None    Shift=    0.000
 RMSDP=1.02D-07 MaxDP=2.26D-06 DE=-3.58D-10 OVMax= 3.01D-06

 Cycle  11  Pass 1  IDiag  1:
 RMSU=  2.95D-08    CP:  9.97D-01  1.23D+00  6.66D-01  1.28D+00  1.09D+00
                    CP:  1.27D+00  1.13D+00  1.23D+00  1.14D+00  1.01D+00
 FoFJK:  IHMeth= 1 ICntrl=     0 DoSepK=T KAlg= 1 I1Cent= 0 FoldK=F
 E= -722.159998793925     Delta-E=       -0.000000000040 Rises=F Damp=F
 DIIS: error= 1.41D-07 at cycle  11 NSaved=  11.
 NSaved=11 IEnMin=11 EnMin= -722.159998793925     IErMin=11 ErrMin= 1.41D-07
 ErrMax= 1.41D-07 EMaxC= 1.00D-01 BMatC= 3.30D-12 BMatP= 3.13D-11
 IDIUse=1 WtCom= 1.00D+00 WtEn= 0.00D+00
 Coeff-Com:  0.103D-04-0.708D-04-0.352D-04 0.308D-03 0.128D-02 0.745D-03
 Coeff-Com: -0.799D-02-0.362D-01-0.792D-02 0.270D+00 0.780D+00
 Coeff:      0.103D-04-0.708D-04-0.352D-04 0.308D-03 0.128D-02 0.745D-03
 Coeff:     -0.799D-02-0.362D-01-0.792D-02 0.270D+00 0.780D+00
 Gap=     0.478 Goal=   None    Shift=    0.000
 RMSDP=3.21D-08 MaxDP=5.98D-07 DE=-4.02D-11 OVMax= 1.02D-06

 Cycle  12  Pass 1  IDiag  1:
 RMSU=  8.38D-09    CP:  9.97D-01  1.23D+00  6.66D-01  1.28D+00  1.09D+00
                    CP:  1.27D+00  1.13D+00  1.24D+00  1.17D+00  1.12D+00
                    CP:  9.78D-01
 FoFJK:  IHMeth= 1 ICntrl=     0 DoSepK=T KAlg= 1 I1Cent= 0 FoldK=F
 E= -722.159998793927     Delta-E=       -0.000000000001 Rises=F Damp=F
 DIIS: error= 1.99D-08 at cycle  12 NSaved=  12.
 NSaved=12 IEnMin=12 EnMin= -722.159998793927     IErMin=12 ErrMin= 1.99D-08
 ErrMax= 1.99D-08 EMaxC= 1.00D-01 BMatC= 1.41D-13 BMatP= 3.30D-12
 IDIUse=1 WtCom= 1.00D+00 WtEn= 0.00D+00
 Coeff-Com:  0.350D-05-0.205D-04-0.167D-04 0.323D-04 0.346D-03 0.676D-03
 Coeff-Com: -0.509D-03-0.787D-02-0.155D-01 0.167D-01 0.170D+00 0.836D+00
 Coeff:      0.350D-05-0.205D-04-0.167D-04 0.323D-04 0.346D-03 0.676D-03
 Coeff:     -0.509D-03-0.787D-02-0.155D-01 0.167D-01 0.170D+00 0.836D+00
 Gap=     0.478 Goal=   None    Shift=    0.000
 RMSDP=6.95D-09 MaxDP=1.44D-07 DE=-1.36D-12 OVMax= 2.38D-07

 Error on total polarization charges =  0.00687
 SCF Done:  E(RwB97XD) =  -722.159998794     A.U. after   12 cycles
             Convg  =    0.6954D-08             -V/T =  2.0064
 KE= 7.175335844071D+02 PE=-2.599539893380D+03 EE= 7.202030812994D+02
 Leave Link  502 at Thu Apr  2 11:01:29 2020, MaxMem= 2684354560 cpu:     112.4
 (Enter /opt/g09gh/gaussian/g09/l701.exe)
 Compute integral first derivatives.
 ... and contract with generalized density number  0.
 R6Disp: Adding dispersion energy 1st derivatives to the gradient.
 D1PCM: PCM CHGder 1st derivatives, ID1Alg=3 FixD1E=F DoIter=F DoCFld=F I1PDM=0.
 GePol: Maximum number of non-zero 1st derivatives   =     221
 Leave Link  701 at Thu Apr  2 11:01:30 2020, MaxMem= 2684354560 cpu:       3.7
 (Enter /opt/g09gh/gaussian/g09/l702.exe)
 L702 exits ... SP integral derivatives will be done elsewhere.
 Leave Link  702 at Thu Apr  2 11:01:30 2020, MaxMem= 2684354560 cpu:       0.2
 (Enter /opt/g09gh/gaussian/g09/l703.exe)
 Compute integral first derivatives, UseDBF=F ICtDFT=           0.
 Integral derivatives from FoFDir, PRISM(SPDF).
 Calling FoFJK, ICntrl=      2127 FMM=F ISym2X=0 I1Cent= 0 IOpClX= 0 NMat=1 NMatS=1 NMatT=0.
 FoFJK:  IHMeth= 1 ICntrl=  2127 DoSepK=T KAlg= 1 I1Cent= 0 FoldK=F
 FoFCou: FMM=F IPFlag=           0 FMFlag=      100000 FMFlg1=         800
         NFxFlg=           0 DoJE=F BraDBF=F KetDBF=F FulRan=T
         Omega=  0.000000  0.000000  1.000000  0.000000  0.000000 ICntrl=    2527 IOpCl=  0
         NMat0=    1 NMatS0=    1 NMatT0=    0 NMatD0=    1 NMtDS0=    0 NMtDT0=    0
         I1Cent=           0 NGrid=           0.
 Symmetry not used in FoFCou.
 Leave Link  703 at Thu Apr  2 11:01:35 2020, MaxMem= 2684354560 cpu:      22.5
 (Enter /opt/g09gh/gaussian/g09/l716.exe)
 Dipole        =-1.90554467D-01 3.47992369D+00-1.55245375D-01
 ***** Axes restored to original set *****
 -------------------------------------------------------------------
 Center     Atomic                   Forces (Hartrees/Bohr)
 Number     Number              X              Y              Z
 -------------------------------------------------------------------
      1       15           0.026220192    0.039484097   -0.042754895
      2        8           0.001263106   -0.005601589    0.012296412
      3        8          -0.007236908   -0.008289897   -0.003402623
      4        8          -0.023347979   -0.022696355    0.031600410
      5        8           0.000628275   -0.005947469    0.004598175
      6        6           0.001025074    0.001763312    0.000617164
      7        6           0.000101979    0.002016954   -0.001129353
      8        1           0.000072364   -0.000399380   -0.001011308
      9        1           0.000134811    0.000134476   -0.000116026
     10        1           0.000491869   -0.000873677   -0.001438209
     11        1           0.000464573    0.000124262    0.000701205
     12        1           0.000055873    0.000138502    0.000715885
     13        1           0.000126772    0.000146765   -0.000676835
 -------------------------------------------------------------------
 Cartesian Forces:  Max     0.042754895 RMS     0.012932794
 Leave Link  716 at Thu Apr  2 11:01:35 2020, MaxMem= 2684354560 cpu:       0.2
 (Enter /opt/g09gh/gaussian/g09/l103.exe)

 GradGradGradGradGradGradGradGradGradGradGradGradGradGradGradGradGradGrad
 Berny optimization.
 Using GEDIIS/GDIIS optimizer.
 Internal  Forces:  Max     0.045299551 RMS     0.007509125
 Search for a local minimum.
 Step number   2 out of a maximum of  100
 All quantities printed in internal units (Hartrees-Bohrs-Radians)
 RMS Force = .75091D-02 SwitMx=.10000D-02 MixMth= 1
 Mixed Optimization -- RFO/linear search
 Update second derivatives using D2CorX and points    1    2
 DE= -1.80D-02 DEPred=-1.62D-02 R= 1.11D+00
 SS=  1.41D+00  RLast= 2.99D-01 DXNew= 5.0454D-01 8.9657D-01
 Trust test= 1.11D+00 RLast= 2.99D-01 DXMaxT set to 5.05D-01
 Use linear search instead of GDIIS.
     Eigenvalues ---    0.01463   0.01464   0.03147   0.03159   0.10146
     Eigenvalues ---    0.10209   0.10526   0.10571   0.15164   0.15984
     Eigenvalues ---    0.16000   0.16000   0.16000   0.16000   0.16019
     Eigenvalues ---    0.16854   0.17376   0.21321   0.24902   0.25000
     Eigenvalues ---    0.25793   0.34377   0.34461   0.34482   0.34495
     Eigenvalues ---    0.34517   0.34522   0.35567   0.42874   0.43209
     Eigenvalues ---    0.47643   0.48484   0.762341000.000001000.00000
     Eigenvalues --- 1000.000001000.000001000.000001000.000001000.00000
     Eigenvalues --- 1000.000001000.000001000.000001000.00000
 RFO step:  Lambda=-3.97236771D-03 EMin= 1.46273513D-02
 Quartic linear search produced a step of  0.46440.
 Iteration  1 RMS(Cart)=  0.04927603 RMS(Int)=  0.00127625
 Iteration  2 RMS(Cart)=  0.00082299 RMS(Int)=  0.00111274
 Iteration  3 RMS(Cart)=  0.00000037 RMS(Int)=  0.00111274
 Variable       Old X    -DE/DX   Delta X   Delta X   Delta X     New X
                                 (Linear)    (Quad)   (Total)
    R1        3.06836   0.00996   0.00421   0.02612   0.03033   3.09869
    R2        3.07498   0.00942   0.00669   0.02196   0.02865   3.10363
    R3        2.92733  -0.04530  -0.06094  -0.07500  -0.13594   2.79139
    R4        2.82978  -0.00051  -0.00382   0.00277  -0.00106   2.82873
    R5        2.67834   0.00152   0.00001   0.00518   0.00519   2.68353
    R6        2.68895  -0.00208   0.00501  -0.01243  -0.00742   2.68153
    R7        2.06858   0.00072   0.00193   0.00090   0.00283   2.07141
    R8        2.06418  -0.00008  -0.00050   0.00021  -0.00029   2.06389
    R9        2.06666   0.00082   0.00066   0.00273   0.00339   2.07005
[...]
   A14        1.90863   0.00000   0.00006  -0.00007  -0.00002   1.90861
   A15        1.93779   0.00001   0.00000  -0.00004  -0.00004   1.93776
   A16        1.93738   0.00000   0.00004  -0.00007  -0.00003   1.93735
   A17        1.87805  -0.00002  -0.00017   0.00008  -0.00009   1.87796
   A18        1.89820   0.00000   0.00001   0.00000   0.00001   1.89821
   A19        1.90853   0.00001   0.00005   0.00003   0.00008   1.90860
   A20        1.90345   0.00001   0.00006   0.00002   0.00008   1.90353
    D1        1.09882   0.00000  -0.00034  -0.00006  -0.00040   1.09842
    D2       -0.84129   0.00002  -0.00030  -0.00003  -0.00033  -0.84162
    D3        3.10469  -0.00004  -0.00048  -0.00007  -0.00055   3.10415
    D4        1.09864  -0.00002  -0.00040   0.00001  -0.00040   1.09825
    D5        3.10416   0.00002  -0.00031   0.00012  -0.00019   3.10397
    D6       -0.84144  -0.00001  -0.00037  -0.00002  -0.00039  -0.84183
    D7       -1.09765   0.00000  -0.00003  -0.00017  -0.00021  -1.09785
    D8        3.10417  -0.00001  -0.00004  -0.00033  -0.00037   3.10380
    D9        1.01616   0.00000  -0.00006  -0.00026  -0.00032   1.01584
   D10        1.01562   0.00000  -0.00008  -0.00008  -0.00016   1.01546
   D11       -1.09810   0.00000  -0.00013   0.00001  -0.00012  -1.09822
   D12        3.10357   0.00000  -0.00012  -0.00002  -0.00015   3.10342
         Item               Value     Threshold  Converged?
 Maximum Force            0.000101     0.000450     YES
 RMS     Force            0.000028     0.000300     YES
 Maximum Displacement     0.001138     0.001800     YES
 RMS     Displacement     0.000539     0.001200     YES
 Predicted change in Energy=-6.584174D-08
 Optimization completed.
    -- Stationary point found.
                           ----------------------------
                           !   Optimized Parameters   !
                           ! (Angstroms and Degrees)  !
 --------------------------                            --------------------------
 ! Name  Definition              Value          Derivative Info.                !
 --------------------------------------------------------------------------------
 ! R1    R(1,2)                  1.6481         -DE/DX =   -0.0001              !
 ! R2    R(1,3)                  1.648          -DE/DX =   -0.0001              !
 ! R3    R(1,4)                  1.4976         -DE/DX =    0.0                 !
 ! R4    R(1,5)                  1.4975         -DE/DX =    0.0001              !
 ! R5    R(2,6)                  1.4181         -DE/DX =    0.0                 !
 ! R6    R(3,7)                  1.418          -DE/DX =    0.0                 !
 ! R7    R(6,8)                  1.0969         -DE/DX =    0.0                 !
 ! R8    R(6,9)                  1.0927         -DE/DX =    0.0                 !
 ! R9    R(6,10)                 1.0954         -DE/DX =    0.0                 !
 ! R10   R(7,11)                 1.0954         -DE/DX =    0.0                 !
 ! R11   R(7,12)                 1.0969         -DE/DX =    0.0                 !
 ! R12   R(7,13)                 1.0927         -DE/DX =    0.0                 !
 ! A1    A(2,1,3)              100.7909         -DE/DX =    0.0                 !
 ! A2    A(2,1,4)              110.4067         -DE/DX =    0.0                 !
 ! A3    A(2,1,5)              105.4813         -DE/DX =    0.0                 !
 ! A4    A(3,1,4)              105.4892         -DE/DX =    0.0                 !
 ! A5    A(3,1,5)              110.4282         -DE/DX =    0.0                 !
 ! A6    A(4,1,5)              122.2331         -DE/DX =    0.0                 !
 ! A7    A(1,2,6)              117.3493         -DE/DX =    0.0                 !
 ! A8    A(1,3,7)              117.3551         -DE/DX =    0.0                 !
 ! A9    A(2,6,8)              110.9988         -DE/DX =    0.0                 !
 ! A10   A(2,6,9)              107.595          -DE/DX =    0.0                 !
 ! A11   A(2,6,10)             111.032          -DE/DX =    0.0                 !
 ! A12   A(8,6,9)              109.0597         -DE/DX =    0.0                 !
 ! A13   A(8,6,10)             108.763          -DE/DX =    0.0                 !
 ! A14   A(9,6,10)             109.3564         -DE/DX =    0.0                 !
 ! A15   A(3,7,11)             111.0275         -DE/DX =    0.0                 !
 ! A16   A(3,7,12)             111.0037         -DE/DX =    0.0                 !
 ! A17   A(3,7,13)             107.6043         -DE/DX =    0.0                 !
 ! A18   A(11,7,12)            108.7589         -DE/DX =    0.0                 !
 ! A19   A(11,7,13)            109.3506         -DE/DX =    0.0                 !
 ! A20   A(12,7,13)            109.0599         -DE/DX =    0.0                 !
 ! D1    D(3,1,2,6)             62.9577         -DE/DX =    0.0                 !
 ! D2    D(4,1,2,6)            -48.2025         -DE/DX =    0.0                 !
 ! D3    D(5,1,2,6)            177.8859         -DE/DX =    0.0                 !
 ! D4    D(2,1,3,7)             62.9477         -DE/DX =    0.0                 !
 ! D5    D(4,1,3,7)            177.8552         -DE/DX =    0.0                 !
 ! D6    D(5,1,3,7)            -48.2111         -DE/DX =    0.0                 !
 ! D7    D(1,2,6,8)            -62.8907         -DE/DX =    0.0                 !
 ! D8    D(1,2,6,9)            177.8558         -DE/DX =    0.0                 !
 ! D9    D(1,2,6,10)            58.2215         -DE/DX =    0.0                 !
 ! D10   D(1,3,7,11)            58.1908         -DE/DX =    0.0                 !
 ! D11   D(1,3,7,12)           -62.9164         -DE/DX =    0.0                 !
 ! D12   D(1,3,7,13)           177.8212         -DE/DX =    0.0                 !
 --------------------------------------------------------------------------------
 GradGradGradGradGradGradGradGradGradGradGradGradGradGradGradGradGradGrad

 Largest change from initial coordinates is atom    5       0.148 Angstoms.
 Leave Link  103 at Thu Apr  2 11:04:42 2020, MaxMem= 2684354560 cpu:       0.1
 (Enter /opt/g09gh/gaussian/g09/l202.exe)
                          Input orientation:                          
 ---------------------------------------------------------------------
 Center     Atomic      Atomic             Coordinates (Angstroms)
 Number     Number       Type             X           Y           Z
 ---------------------------------------------------------------------
      1         15           0       -0.017603    0.612647   -0.048803
      2          8           0        0.980804   -0.386903    0.799979
      3          8           0       -0.992896   -0.486422   -0.795013
      4          8           0        0.736408    1.291282   -1.150529
      5          8           0       -0.786957    1.378956    0.982429
      6          6           0        1.802439   -1.271803    0.056455
      7          6           0       -1.795615   -1.312629    0.031960
      8          1           0        1.195609   -1.981283   -0.519454
      9          1           0        2.419821   -1.825640    0.767861
     10          1           0        2.449971   -0.720475   -0.633935
     11          1           0       -2.455423   -0.711032    0.666529
     12          1           0       -1.173995   -1.949569    0.673194
     13          1           0       -2.400463   -1.946130   -0.621374
 ---------------------------------------------------------------------
                    Distance matrix (angstroms):
                    1          2          3          4          5
     1  P    0.000000
     2  O    1.648134   0.000000
     3  O    1.648023   2.539566   0.000000
     4  O    1.497624   2.584669   2.505417   0.000000
     5  O    1.497523   2.505299   2.584830   2.622564   0.000000
     6  C    2.621981   1.418084   3.025841   3.026985   3.819545
     7  C    2.621934   3.025776   1.418048   3.819656   3.027444
     8  H    2.902046   2.080647   2.664600   3.364343   4.180601
     9  H    3.543052   2.035133   3.985312   4.028561   4.538601
    10  H    2.865050   2.079864   3.454571   2.692644   4.183055
    11  H    2.864751   3.454059   2.079794   4.183151   2.692884
    12  H    2.902322   2.664800   2.080680   4.180756   3.365190
    13  H    3.543050   3.985524   2.035226   4.538811   4.028869
                    6          7          8          9         10
     6  C    0.000000
     7  C    3.598368   0.000000
     8  H    1.096939   3.114253   0.000000
     9  H    1.092700   4.309829   1.783284   0.000000
    10  H    1.095399   4.338094   1.782180   1.785310   0.000000
    11  H    4.337746   1.095420   4.043529   5.002061   5.074858
    12  H    3.114304   1.096943   2.653006   3.597198   4.043809
    13  H    4.310285   1.092708   3.597688   5.017931   5.002909
                   11         12         13
    11  H    0.000000
    12  H    1.782154   0.000000
    13  H    1.785268   1.783295   0.000000
 Stoichiometry    C2H6O4P(1-)
 Framework group  C1[X(C2H6O4P)]
 Deg. of freedom    33
 Full point group                 C1      NOp   1
 Largest Abelian subgroup         C1      NOp   1
 Largest concise Abelian subgroup C1      NOp   1
                         Standard orientation:                         
 ---------------------------------------------------------------------
 Center     Atomic      Atomic             Coordinates (Angstroms)
 Number     Number       Type             X           Y           Z
 ---------------------------------------------------------------------
      1         15           0        0.000035   -0.629986    0.000055
      2          8           0        0.968316    0.420820   -0.821276
      3          8           0       -0.968621    0.420458    0.821182
      4          8           0        0.786270   -1.353016    1.049788
      5          8           0       -0.785375   -1.353700   -1.049681
      6          6           0        1.798100    1.277578   -0.054213
      7          6           0       -1.798637    1.276947    0.054134
      8          1           0        1.197740    1.951334    0.569402
      9          1           0        2.393157    1.872277   -0.751518
     10          1           0        2.467037    0.700544    0.593441
     11          1           0       -2.466958    0.699641   -0.593946
     12          1           0       -1.198546    1.951275   -0.569128
     13          1           0       -2.394450    1.871070    0.751296
 ---------------------------------------------------------------------
 Rotational constants (GHZ):      2.6587573      2.3672649      1.7746156
 Leave Link  202 at Thu Apr  2 11:04:42 2020, MaxMem= 2684354560 cpu:       0.0
 (Enter /opt/g09gh/gaussian/g09/l601.exe)
 Copying SCF densities to generalized density rwf, IOpCl= 0 IROHF=0.

 **********************************************************************

            Population analysis using the SCF density.

 **********************************************************************

 Orbital symmetries:
       Occupied  (A) (A) (A) (A) (A) (A) (A) (A) (A) (A) (A) (A)
                 (A) (A) (A) (A) (A) (A) (A) (A) (A) (A) (A) (A)
                 (A) (A) (A) (A) (A) (A) (A) (A) (A)
       Virtual   (A) (A) (A) (A) (A) (A) (A) (A) (A) (A) (A) (A)
                 (A) (A) (A) (A) (A) (A) (A) (A) (A) (A) (A) (A)
                 (A) (A) (A) (A) (A) (A) (A) (A) (A) (A) (A) (A)
                 (A) (A) (A) (A) (A) (A) (A) (A) (A) (A) (A) (A)
                 (A) (A) (A) (A) (A) (A) (A) (A) (A) (A) (A) (A)
                 (A) (A) (A) (A) (A) (A) (A) (A) (A) (A) (A) (A)
                 (A) (A) (A) (A) (A) (A) (A) (A) (A) (A) (A) (A)
                 (A) (A) (A) (A)
 The electronic state is 1-A.
 Alpha  occ. eigenvalues --  -77.32371 -19.26230 -19.26225 -19.18698 -19.18695
 Alpha  occ. eigenvalues --  -10.32863 -10.32861  -6.73178  -4.88232  -4.88072
 Alpha  occ. eigenvalues --   -4.87856  -1.14277  -1.09378  -1.02981  -0.99230
 Alpha  occ. eigenvalues --   -0.77905  -0.76838  -0.62502  -0.57426  -0.54189
 Alpha  occ. eigenvalues --   -0.53231  -0.51734  -0.50520  -0.48115  -0.43789
 Alpha  occ. eigenvalues --   -0.42506  -0.39620  -0.36668  -0.36285  -0.36198
 Alpha  occ. eigenvalues --   -0.33891  -0.32722  -0.31420
 Alpha virt. eigenvalues --    0.17470   0.21870   0.21918   0.23101   0.24219
 Alpha virt. eigenvalues --    0.25760   0.26197   0.28185   0.30037   0.31172
 Alpha virt. eigenvalues --    0.33344   0.33484   0.44274   0.45601   0.51015
 Alpha virt. eigenvalues --    0.53621   0.59994   0.64768   0.65120   0.71243
 Alpha virt. eigenvalues --    0.72667   0.74609   0.78142   0.84244   0.92468
 Alpha virt. eigenvalues --    0.92956   0.94830   0.95433   0.96252   0.97563
 Alpha virt. eigenvalues --    1.02276   1.02427   1.06572   1.10300   1.11711
 Alpha virt. eigenvalues --    1.12260   1.14321   1.16234   1.21565   1.21803
 Alpha virt. eigenvalues --    1.24348   1.24979   1.29825   1.32891   1.33909
 Alpha virt. eigenvalues --    1.37208   1.46752   1.57528   1.61336   1.61960
 Alpha virt. eigenvalues --    1.62449   1.67276   1.68636   1.76612   1.82908
 Alpha virt. eigenvalues --    1.89722   1.93896   1.95293   1.95687   1.99091
 Alpha virt. eigenvalues --    2.04503   2.09399   2.13883   2.16039   2.16566
 Alpha virt. eigenvalues --    2.21544   2.24872   2.25503   2.27128   2.32532
 Alpha virt. eigenvalues --    2.43960   2.46289   2.47538   2.51005   2.53839
 Alpha virt. eigenvalues --    2.65512   2.74961   2.86994   2.87002   2.98845
 Alpha virt. eigenvalues --    2.99562   3.64061   3.87029   3.90204   4.15028
 Alpha virt. eigenvalues --    4.16652   4.36678   4.38006
          Condensed to atoms (all electrons):
              1          2          3          4          5          6
     1  P   12.357014   0.228488   0.228520   0.578364   0.578423  -0.016783
     2  O    0.228488   8.331306  -0.031776  -0.035285  -0.042021   0.230839
     3  O    0.228520  -0.031776   8.331114  -0.042006  -0.035257  -0.000859
     4  O    0.578364  -0.035285  -0.042006   8.230466  -0.033503  -0.005136
     5  O    0.578423  -0.042021  -0.035257  -0.033503   8.230280   0.000708
     6  C   -0.016783   0.230839  -0.000859  -0.005136   0.000708   4.921641
     7  C   -0.016798  -0.000843   0.230848   0.000708  -0.005146  -0.000484
     8  H   -0.003818  -0.037718   0.008520  -0.001011  -0.000046   0.371551
     9  H    0.000618  -0.034232   0.000076   0.000103  -0.000042   0.384921
    10  H   -0.003929  -0.036600  -0.000662   0.009959  -0.000054   0.371273
    11  H   -0.003927  -0.000663  -0.036604  -0.000054   0.009957  -0.000035
    12  H   -0.003810   0.008511  -0.037716  -0.000046  -0.001008   0.000352
    13  H    0.000615   0.000077  -0.034222  -0.000042   0.000103  -0.000003
              7          8          9         10         11         12
     1  P   -0.016798  -0.003818   0.000618  -0.003929  -0.003927  -0.003810
     2  O   -0.000843  -0.037718  -0.034232  -0.036600  -0.000663   0.008511
     3  O    0.230848   0.008520   0.000076  -0.000662  -0.036604  -0.037716
     4  O    0.000708  -0.001011   0.000103   0.009959  -0.000054  -0.000046
     5  O   -0.005146  -0.000046  -0.000042  -0.000054   0.009957  -0.001008
     6  C   -0.000484   0.371551   0.384921   0.371273  -0.000035   0.000352
     7  C    4.921674   0.000349  -0.000003  -0.000035   0.371269   0.371561
     8  H    0.000349   0.575882  -0.033664  -0.039984   0.000165  -0.002057
     9  H   -0.000003  -0.033664   0.538917  -0.031399   0.000004  -0.000079
    10  H   -0.000035  -0.039984  -0.031399   0.566017  -0.000008   0.000165
    11  H    0.371269   0.000165   0.000004  -0.000008   0.566018  -0.039983
    12  H    0.371561  -0.002057  -0.000079   0.000165  -0.039983   0.575836
    13  H    0.384923  -0.000079  -0.000001   0.000004  -0.031399  -0.033665
             13
     1  P    0.000615
     2  O    0.000077
     3  O   -0.034222
     4  O   -0.000042
     5  O    0.000103
     6  C   -0.000003
     7  C    0.384923
     8  H   -0.000079
     9  H   -0.000001
    10  H    0.000004
    11  H   -0.031399
    12  H   -0.033665
    13  H    0.538877
 Mulliken atomic charges:
              1
     1  P    1.077023
     2  O   -0.580083
     3  O   -0.579977
     4  O   -0.702518
     5  O   -0.702394
     6  C   -0.257986
     7  C   -0.258023
     8  H    0.161909
     9  H    0.174781
    10  H    0.165253
    11  H    0.165261
    12  H    0.161939
    13  H    0.174814
 Sum of Mulliken atomic charges =  -1.00000
 Mulliken charges with hydrogens summed into heavy atoms:
              1
     1  P    1.077023
     2  O   -0.580083
     3  O   -0.579977
     4  O   -0.702518
     5  O   -0.702394
     6  C    0.243957
     7  C    0.243991
 Sum of Mulliken charges with hydrogens summed into heavy atoms =  -1.00000
 Electronic spatial extent (au):  <R**2>=            817.1954
 Charge=             -1.0000 electrons
 Dipole moment (field-independent basis, Debye):
    X=             -0.0041    Y=              7.9400    Z=             -0.0001  Tot=              7.9400
 Quadrupole moment (field-independent basis, Debye-Ang):
   XX=            -49.0971   YY=            -56.6793   ZZ=            -59.5986
   XY=              0.0015   XZ=             -2.6326   YZ=             -0.0009
 Traceless Quadrupole moment (field-independent basis, Debye-Ang):
   XX=              6.0279   YY=             -1.5543   ZZ=             -4.4736
   XY=              0.0015   XZ=             -2.6326   YZ=             -0.0009
 Octapole moment (field-independent basis, Debye-Ang**2):
  XXX=             -0.0148  YYY=             19.4185  ZZZ=             -0.0018  XYY=             -0.0019
  XXY=             12.6164  XXZ=             -0.0042  XZZ=             -0.0055  YZZ=              8.6166
  YYZ=              0.0042  XYZ=              7.0151
 Hexadecapole moment (field-independent basis, Debye-Ang**3):
 XXXX=           -443.5328 YYYY=           -401.6973 ZZZZ=           -195.4684 XXXY=             -0.0089
 XXXZ=             -5.0815 YYYX=              0.0008 YYYZ=             -0.0149 ZZZX=             -5.4305
 ZZZY=              0.0018 XXYY=           -136.1315 XXZZ=           -112.1874 YYZZ=           -106.3239
 XXYZ=              0.0080 YYXZ=            -14.9923 ZZXY=              0.0033
 N-N= 4.402229618630D+02 E-N=-2.600831275266D+03  KE= 7.176014007320D+02
 No NMR shielding tensors so no spin-rotation constants.
 Leave Link  601 at Thu Apr  2 11:04:43 2020, MaxMem= 2684354560 cpu:       0.6
 (Enter /opt/g09gh/gaussian/g09/l9999.exe)
 1\1\GINC-NODE37\FOpt\RwB97XD\6-31G(d)\C2H6O4P1(1-)\BDW2292\02-Apr-2020
 \0\\#P opt=(maxcycle=400) wB97XD/6-31G* Guess=INDO MaxDisk=100GB SCRF=
 (PCM)\\DiMethylPhosphate0H Gaussian OPT Calculation on node37.bme.utex
 as.edu\\-1,1\P,-0.0176025108,0.612647337,-0.0488030896\O,0.9808036618,
 -0.3869028643,0.7999792882\O,-0.9928956861,-0.4864216853,-0.7950130889
 \O,0.7364084862,1.2912821708,-1.1505289293\O,-0.7869569227,1.378956213
 3,0.9824293263\C,1.8024386231,-1.2718033822,0.0564552152\C,-1.79561471
 89,-1.3126290569,0.0319596755\H,1.1956088953,-1.981282994,-0.519454092
 9\H,2.4198206301,-1.8256397266,0.7678614425\H,2.4499710102,-0.72047514
 67,-0.6339349145\H,-2.45542294,-0.7110321573,0.6665292349\H,-1.1739952
 706,-1.949568821,0.6731937988\H,-2.4004632575,-1.9461298869,-0.6213738
 663\\Version=EM64L-G09RevA.02\State=1-A\HF=-722.1637393\RMSD=6.168e-09
 \RMSF=4.343e-05\Dipole=0.0332822,-3.1199657,0.1522491\Quadrupole=4.565
 9181,-1.1583464,-3.4075718,0.1493243,1.7723351,-0.0906621\PG=C01 [X(C2
 H6O4P1)]\\@


 A COMPLEXITY IS MERELY A DISARRANGEMENT OF SIMPLICITIES.

                                    -- G. O. ABELL IN "EXPLORATION OF THE UNIVERSE"
 Job cpu time:  0 days  0 hours 17 minutes 26.2 seconds.
 File lengths (MBytes):  RWF=     43 Int=      0 D2E=      0 Chk=      4 Scr=      1
 Normal termination of Gaussian 09 at Thu Apr  2 11:04:43 2020.
