DiMethylPhosphate0H Gaussian SP Calculation on node37.bme.utexas.edu    
SP        RMP2-FC                                                     6-311++G(2d,2p)     
Number of atoms                            I               13
Info1-9                                    I   N=           9
          26          26           0           0           0         110
           1           2           1
Charge                                     I               -1
Multiplicity                               I                1
Number of electrons                        I               66
Number of alpha electrons                  I               33
Number of beta electrons                   I               33
Number of basis functions                  I              257
Number of independent functions            I              257
Number of point charges in /Mol/           I                0
Number of translation vectors              I                0
Atomic numbers                             I   N=          13
          15           8           8           8           8           6
           6           1           1           1           1           1
           1
Nuclear charges                            R   N=          13
  1.50000000E+01  8.00000000E+00  8.00000000E+00  8.00000000E+00  8.00000000E+00
  6.00000000E+00  6.00000000E+00  1.00000000E+00  1.00000000E+00  1.00000000E+00
  1.00000000E+00  1.00000000E+00  1.00000000E+00
Current cartesian coordinates              R   N=          39
 -6.59803696E-05  1.19050092E+00  1.03876792E-04 -1.82985201E+00 -7.95234527E-01
 -1.55198678E+00  1.83042846E+00 -7.94550670E-01  1.55180903E+00 -1.48583472E+00
  2.55682970E+00  1.98381176E+00  1.48414391E+00  2.55812209E+00 -1.98360968E+00
 -3.39791662E+00 -2.41427241E+00 -1.02447781E-01  3.39893128E+00 -2.41308041E+00
  1.02298376E-01 -2.26340072E+00 -3.68748680E+00  1.07601378E+00 -4.52241145E+00
 -3.53809059E+00 -1.42016326E+00 -4.66202428E+00 -1.32383611E+00  1.12144091E+00
  4.66187501E+00 -1.32213025E+00 -1.12239534E+00  2.26492356E+00 -3.68737559E+00
 -1.07549611E+00  4.52485461E+00 -3.53581024E+00  1.41974363E+00
Force Field                                I                0
Int Atom Types                             I   N=          13
           0           0           0           0           0           0
           0           0           0           0           0           0
           0
MM charges                                 R   N=          13
  0.00000000E+00  0.00000000E+00  0.00000000E+00  0.00000000E+00  0.00000000E+00
  0.00000000E+00  0.00000000E+00  0.00000000E+00  0.00000000E+00  0.00000000E+00
  0.00000000E+00  0.00000000E+00  0.00000000E+00
Integer atomic weights                     I   N=          13
          31          16          16          16          16          12
          12           1           1           1           1           1
           1
Real atomic weights                        R   N=          13
  3.09737634E+01  1.59949146E+01  1.59949146E+01  1.59949146E+01  1.59949146E+01
  1.20000000E+01  1.20000000E+01  1.00782504E+00  1.00782504E+00  1.00782504E+00
  1.00782504E+00  1.00782504E+00  1.00782504E+00
Atom fragment info                         I   N=          13
           0           0           0           0           0           0
           0           0           0           0           0           0
           0
Atom residue num                           I   N=          13
           0           0           0           0           0           0
           0           0           0           0           0           0
           0
Nuclear spins                              I   N=          13
           1           0           0           0           0           0
           0           1           1           1           1           1
           1
Nuclear ZEff                               R   N=          13
 -1.29400000E+01 -5.60000000E+00 -5.60000000E+00 -5.60000000E+00 -5.60000000E+00
 -3.60000000E+00 -3.60000000E+00 -1.00000000E+00 -1.00000000E+00 -1.00000000E+00
 -1.00000000E+00 -1.00000000E+00 -1.00000000E+00
Nuclear QMom                               R   N=          13
  0.00000000E+00  0.00000000E+00  0.00000000E+00  0.00000000E+00  0.00000000E+00
  0.00000000E+00  0.00000000E+00  0.00000000E+00  0.00000000E+00  0.00000000E+00
  0.00000000E+00  0.00000000E+00  0.00000000E+00
Nuclear GFac                               R   N=          13
  1.13160000E+00  0.00000000E+00  0.00000000E+00  0.00000000E+00  0.00000000E+00
  0.00000000E+00  0.00000000E+00  2.79284600E+00  2.79284600E+00  2.79284600E+00
  2.79284600E+00  2.79284600E+00  2.79284600E+00
MicOpt                                     I   N=          13
          -1          -1          -1          -1          -1          -1
          -1          -1          -1          -1          -1          -1
          -1
Number of contracted shells                I               92
Number of primitive shells                 I              157
Pure/Cartesian d shells                    I                0
Pure/Cartesian f shells                    I                0
Highest angular momentum                   I                2
Largest degree of contraction              I                6
Shell types                                I   N=          92
           0           0           0           0           0           0
          -1           1           1           1           1           1
          -2          -2           0          -1          -1          -1
          -1          -2          -2           0          -1          -1
          -1          -1          -2          -2           0          -1
          -1          -1          -1          -2          -2           0
          -1          -1          -1          -1          -2          -2
           0          -1          -1          -1          -1          -2
          -2           0          -1          -1          -1          -1
          -2          -2           0           0           0           0
           1           1           0           0           0           0
           1           1           0           0           0           0
           1           1           0           0           0           0
           1           1           0           0           0           0
           1           1           0           0           0           0
           1           1
Number of primitives per shell             I   N=          92
           6           3           1           1           1           1
           1           4           2           1           1           1
           1           1           6           3           1           1
           1           1           1           6           3           1
           1           1           1           1           6           3
           1           1           1           1           1           6
           3           1           1           1           1           1
           6           3           1           1           1           1
           1           6           3           1           1           1
           1           1           3           1           1           1
           1           1           3           1           1           1
           1           1           3           1           1           1
           1           1           3           1           1           1
           1           1           3           1           1           1
           1           1           3           1           1           1
           1           1
Shell to atom map                          I   N=          92
           1           1           1           1           1           1
           1           1           1           1           1           1
           1           1           2           2           2           2
           2           2           2           3           3           3
           3           3           3           3           4           4
           4           4           4           4           4           5
           5           5           5           5           5           5
           6           6           6           6           6           6
           6           7           7           7           7           7
           7           7           8           8           8           8
           8           8           9           9           9           9
           9           9          10          10          10          10
          10          10          11          11          11          11
          11          11          12          12          12          12
          12          12          13          13          13          13
          13          13
Primitive exponents                        R   N=         157
  7.74924000E+04  1.16058000E+04  2.64596000E+03  7.54976000E+02  2.48755000E+02
  9.11565000E+01  9.11565000E+01  3.62257000E+01  1.52113000E+01  4.79417000E+00
  1.80793000E+00  3.56816000E-01  1.14783000E-01  3.48000000E-02  3.84843000E+02
  9.05521000E+01  2.91339000E+01  1.08862000E+01  4.35259000E+00  1.77706000E+00
  6.97005000E-01  2.53532000E-01  6.84930000E-02  1.10000000E+00  2.75000000E-01
  8.58850000E+03  1.29723000E+03  2.99296000E+02  8.73771000E+01  2.56789000E+01
  3.74004000E+00  4.21175000E+01  9.62837000E+00  2.85332000E+00  9.05661000E-01
  2.55611000E-01  8.45000000E-02  2.58400000E+00  6.46000000E-01  8.58850000E+03
  1.29723000E+03  2.99296000E+02  8.73771000E+01  2.56789000E+01  3.74004000E+00
  4.21175000E+01  9.62837000E+00  2.85332000E+00  9.05661000E-01  2.55611000E-01
  8.45000000E-02  2.58400000E+00  6.46000000E-01  8.58850000E+03  1.29723000E+03
  2.99296000E+02  8.73771000E+01  2.56789000E+01  3.74004000E+00  4.21175000E+01
  9.62837000E+00  2.85332000E+00  9.05661000E-01  2.55611000E-01  8.45000000E-02
  2.58400000E+00  6.46000000E-01  8.58850000E+03  1.29723000E+03  2.99296000E+02
  8.73771000E+01  2.56789000E+01  3.74004000E+00  4.21175000E+01  9.62837000E+00
  2.85332000E+00  9.05661000E-01  2.55611000E-01  8.45000000E-02  2.58400000E+00
  6.46000000E-01  4.56324000E+03  6.82024000E+02  1.54973000E+02  4.44553000E+01
  1.30290000E+01  1.82773000E+00  2.09642000E+01  4.80331000E+00  1.45933000E+00
  4.83456000E-01  1.45585000E-01  4.38000000E-02  1.25200000E+00  3.13000000E-01
  4.56324000E+03  6.82024000E+02  1.54973000E+02  4.44553000E+01  1.30290000E+01
  1.82773000E+00  2.09642000E+01  4.80331000E+00  1.45933000E+00  4.83456000E-01
  1.45585000E-01  4.38000000E-02  1.25200000E+00  3.13000000E-01  3.38650000E+01
  5.09479000E+00  1.15879000E+00  3.25840000E-01  1.02741000E-01  3.60000000E-02
  1.50000000E+00  3.75000000E-01  3.38650000E+01  5.09479000E+00  1.15879000E+00
  3.25840000E-01  1.02741000E-01  3.60000000E-02  1.50000000E+00  3.75000000E-01
  3.38650000E+01  5.09479000E+00  1.15879000E+00  3.25840000E-01  1.02741000E-01
  3.60000000E-02  1.50000000E+00  3.75000000E-01  3.38650000E+01  5.09479000E+00
  1.15879000E+00  3.25840000E-01  1.02741000E-01  3.60000000E-02  1.50000000E+00
  3.75000000E-01  3.38650000E+01  5.09479000E+00  1.15879000E+00  3.25840000E-01
  1.02741000E-01  3.60000000E-02  1.50000000E+00  3.75000000E-01  3.38650000E+01
  5.09479000E+00  1.15879000E+00  3.25840000E-01  1.02741000E-01  3.60000000E-02
  1.50000000E+00  3.75000000E-01
Contraction coefficients                   R   N=         157
  7.81000147E-04  6.06800114E-03  3.11600059E-02  1.23431023E-01  3.78209071E-01
  5.63262106E-01  1.60255011E-01  6.27647045E-01  2.63849019E-01  1.00000000E+00
  1.00000000E+00  1.00000000E+00  1.00000000E+00  1.00000000E+00  9.20599888E-03
  6.98739915E-02  2.92469964E-01  7.28102911E-01  6.28348873E-01  4.28043913E-01
  1.00000000E+00  1.00000000E+00  1.00000000E+00  1.00000000E+00  1.00000000E+00
  1.89515008E-03  1.43859006E-02  7.07320031E-02  2.40001011E-01  5.94797026E-01
  2.80802012E-01  1.13889012E-01  9.20811101E-01 -3.27447036E-03  1.00000000E+00
  1.00000000E+00  1.00000000E+00  1.00000000E+00  1.00000000E+00  1.89515008E-03
  1.43859006E-02  7.07320031E-02  2.40001011E-01  5.94797026E-01  2.80802012E-01
  1.13889012E-01  9.20811101E-01 -3.27447036E-03  1.00000000E+00  1.00000000E+00
  1.00000000E+00  1.00000000E+00  1.00000000E+00  1.89515008E-03  1.43859006E-02
  7.07320031E-02  2.40001011E-01  5.94797026E-01  2.80802012E-01  1.13889012E-01
  9.20811101E-01 -3.27447036E-03  1.00000000E+00  1.00000000E+00  1.00000000E+00
  1.00000000E+00  1.00000000E+00  1.89515008E-03  1.43859006E-02  7.07320031E-02
  2.40001011E-01  5.94797026E-01  2.80802012E-01  1.13889012E-01  9.20811101E-01
 -3.27447036E-03  1.00000000E+00  1.00000000E+00  1.00000000E+00  1.00000000E+00
  1.00000000E+00  1.96665025E-03  1.52306019E-02  7.61269097E-02  2.60801033E-01
  6.16462078E-01  2.21006028E-01  1.14660081E-01  9.19999648E-01 -3.03068213E-03
  1.00000000E+00  1.00000000E+00  1.00000000E+00  1.00000000E+00  1.00000000E+00
  1.96665025E-03  1.52306019E-02  7.61269097E-02  2.60801033E-01  6.16462078E-01
  2.21006028E-01  1.14660081E-01  9.19999648E-01 -3.03068213E-03  1.00000000E+00
  1.00000000E+00  1.00000000E+00  1.00000000E+00  1.00000000E+00  2.54938145E-02
  1.90373109E-01  8.52161486E-01  1.00000000E+00  1.00000000E+00  1.00000000E+00
  1.00000000E+00  1.00000000E+00  2.54938145E-02  1.90373109E-01  8.52161486E-01
  1.00000000E+00  1.00000000E+00  1.00000000E+00  1.00000000E+00  1.00000000E+00
  2.54938145E-02  1.90373109E-01  8.52161486E-01  1.00000000E+00  1.00000000E+00
  1.00000000E+00  1.00000000E+00  1.00000000E+00  2.54938145E-02  1.90373109E-01
  8.52161486E-01  1.00000000E+00  1.00000000E+00  1.00000000E+00  1.00000000E+00
  1.00000000E+00  2.54938145E-02  1.90373109E-01  8.52161486E-01  1.00000000E+00
  1.00000000E+00  1.00000000E+00  1.00000000E+00  1.00000000E+00  2.54938145E-02
  1.90373109E-01  8.52161486E-01  1.00000000E+00  1.00000000E+00  1.00000000E+00
  1.00000000E+00  1.00000000E+00
P(S=P) Contraction coefficients            R   N=         157
  0.00000000E+00  0.00000000E+00  0.00000000E+00  0.00000000E+00  0.00000000E+00
  0.00000000E+00  0.00000000E+00  0.00000000E+00  0.00000000E+00  0.00000000E+00
  0.00000000E+00  0.00000000E+00  0.00000000E+00  1.00000000E+00  0.00000000E+00
  0.00000000E+00  0.00000000E+00  0.00000000E+00  0.00000000E+00  0.00000000E+00
  0.00000000E+00  0.00000000E+00  0.00000000E+00  0.00000000E+00  0.00000000E+00
  0.00000000E+00  0.00000000E+00  0.00000000E+00  0.00000000E+00  0.00000000E+00
  0.00000000E+00  3.65113974E-02  2.37152983E-01  8.19701941E-01  1.00000000E+00
  1.00000000E+00  1.00000000E+00  0.00000000E+00  0.00000000E+00  0.00000000E+00
  0.00000000E+00  0.00000000E+00  0.00000000E+00  0.00000000E+00  0.00000000E+00
  3.65113974E-02  2.37152983E-01  8.19701941E-01  1.00000000E+00  1.00000000E+00
  1.00000000E+00  0.00000000E+00  0.00000000E+00  0.00000000E+00  0.00000000E+00
  0.00000000E+00  0.00000000E+00  0.00000000E+00  0.00000000E+00  3.65113974E-02
  2.37152983E-01  8.19701941E-01  1.00000000E+00  1.00000000E+00  1.00000000E+00
  0.00000000E+00  0.00000000E+00  0.00000000E+00  0.00000000E+00  0.00000000E+00
  0.00000000E+00  0.00000000E+00  0.00000000E+00  3.65113974E-02  2.37152983E-01
  8.19701941E-01  1.00000000E+00  1.00000000E+00  1.00000000E+00  0.00000000E+00
  0.00000000E+00  0.00000000E+00  0.00000000E+00  0.00000000E+00  0.00000000E+00
  0.00000000E+00  0.00000000E+00  4.02486927E-02  2.37593957E-01  8.15853851E-01
  1.00000000E+00  1.00000000E+00  1.00000000E+00  0.00000000E+00  0.00000000E+00
  0.00000000E+00  0.00000000E+00  0.00000000E+00  0.00000000E+00  0.00000000E+00
  0.00000000E+00  4.02486927E-02  2.37593957E-01  8.15853851E-01  1.00000000E+00
  1.00000000E+00  1.00000000E+00  0.00000000E+00  0.00000000E+00  0.00000000E+00
  0.00000000E+00  0.00000000E+00  0.00000000E+00  0.00000000E+00  0.00000000E+00
  0.00000000E+00  0.00000000E+00  0.00000000E+00  0.00000000E+00  0.00000000E+00
  0.00000000E+00  0.00000000E+00  0.00000000E+00  0.00000000E+00  0.00000000E+00
  0.00000000E+00  0.00000000E+00  0.00000000E+00  0.00000000E+00  0.00000000E+00
  0.00000000E+00  0.00000000E+00  0.00000000E+00  0.00000000E+00  0.00000000E+00
  0.00000000E+00  0.00000000E+00  0.00000000E+00  0.00000000E+00  0.00000000E+00
  0.00000000E+00  0.00000000E+00  0.00000000E+00  0.00000000E+00  0.00000000E+00
  0.00000000E+00  0.00000000E+00  0.00000000E+00  0.00000000E+00  0.00000000E+00
  0.00000000E+00  0.00000000E+00  0.00000000E+00  0.00000000E+00  0.00000000E+00
  0.00000000E+00  0.00000000E+00
Coordinates of each shell                  R   N=         276
 -6.59803696E-05  1.19050092E+00  1.03876792E-04 -6.59803696E-05  1.19050092E+00
  1.03876792E-04 -6.59803696E-05  1.19050092E+00  1.03876792E-04 -6.59803696E-05
  1.19050092E+00  1.03876792E-04 -6.59803696E-05  1.19050092E+00  1.03876792E-04
 -6.59803696E-05  1.19050092E+00  1.03876792E-04 -6.59803696E-05  1.19050092E+00
  1.03876792E-04 -6.59803696E-05  1.19050092E+00  1.03876792E-04 -6.59803696E-05
  1.19050092E+00  1.03876792E-04 -6.59803696E-05  1.19050092E+00  1.03876792E-04
 -6.59803696E-05  1.19050092E+00  1.03876792E-04 -6.59803696E-05  1.19050092E+00
  1.03876792E-04 -6.59803696E-05  1.19050092E+00  1.03876792E-04 -6.59803696E-05
  1.19050092E+00  1.03876792E-04 -1.82985201E+00 -7.95234527E-01 -1.55198678E+00
 -1.82985201E+00 -7.95234527E-01 -1.55198678E+00 -1.82985201E+00 -7.95234527E-01
 -1.55198678E+00 -1.82985201E+00 -7.95234527E-01 -1.55198678E+00 -1.82985201E+00
 -7.95234527E-01 -1.55198678E+00 -1.82985201E+00 -7.95234527E-01 -1.55198678E+00
 -1.82985201E+00 -7.95234527E-01 -1.55198678E+00  1.83042846E+00 -7.94550670E-01
  1.55180903E+00  1.83042846E+00 -7.94550670E-01  1.55180903E+00  1.83042846E+00
 -7.94550670E-01  1.55180903E+00  1.83042846E+00 -7.94550670E-01  1.55180903E+00
  1.83042846E+00 -7.94550670E-01  1.55180903E+00  1.83042846E+00 -7.94550670E-01
  1.55180903E+00  1.83042846E+00 -7.94550670E-01  1.55180903E+00 -1.48583472E+00
  2.55682970E+00  1.98381176E+00 -1.48583472E+00  2.55682970E+00  1.98381176E+00
 -1.48583472E+00  2.55682970E+00  1.98381176E+00 -1.48583472E+00  2.55682970E+00
  1.98381176E+00 -1.48583472E+00  2.55682970E+00  1.98381176E+00 -1.48583472E+00
  2.55682970E+00  1.98381176E+00 -1.48583472E+00  2.55682970E+00  1.98381176E+00
  1.48414391E+00  2.55812209E+00 -1.98360968E+00  1.48414391E+00  2.55812209E+00
 -1.98360968E+00  1.48414391E+00  2.55812209E+00 -1.98360968E+00  1.48414391E+00
  2.55812209E+00 -1.98360968E+00  1.48414391E+00  2.55812209E+00 -1.98360968E+00
  1.48414391E+00  2.55812209E+00 -1.98360968E+00  1.48414391E+00  2.55812209E+00
 -1.98360968E+00 -3.39791662E+00 -2.41427241E+00 -1.02447781E-01 -3.39791662E+00
 -2.41427241E+00 -1.02447781E-01 -3.39791662E+00 -2.41427241E+00 -1.02447781E-01
 -3.39791662E+00 -2.41427241E+00 -1.02447781E-01 -3.39791662E+00 -2.41427241E+00
 -1.02447781E-01 -3.39791662E+00 -2.41427241E+00 -1.02447781E-01 -3.39791662E+00
 -2.41427241E+00 -1.02447781E-01  3.39893128E+00 -2.41308041E+00  1.02298376E-01
  3.39893128E+00 -2.41308041E+00  1.02298376E-01  3.39893128E+00 -2.41308041E+00
  1.02298376E-01  3.39893128E+00 -2.41308041E+00  1.02298376E-01  3.39893128E+00
 -2.41308041E+00  1.02298376E-01  3.39893128E+00 -2.41308041E+00  1.02298376E-01
  3.39893128E+00 -2.41308041E+00  1.02298376E-01 -2.26340072E+00 -3.68748680E+00
  1.07601378E+00 -2.26340072E+00 -3.68748680E+00  1.07601378E+00 -2.26340072E+00
 -3.68748680E+00  1.07601378E+00 -2.26340072E+00 -3.68748680E+00  1.07601378E+00
 -2.26340072E+00 -3.68748680E+00  1.07601378E+00 -2.26340072E+00 -3.68748680E+00
  1.07601378E+00 -4.52241145E+00 -3.53809059E+00 -1.42016326E+00 -4.52241145E+00
 -3.53809059E+00 -1.42016326E+00 -4.52241145E+00 -3.53809059E+00 -1.42016326E+00
 -4.52241145E+00 -3.53809059E+00 -1.42016326E+00 -4.52241145E+00 -3.53809059E+00
 -1.42016326E+00 -4.52241145E+00 -3.53809059E+00 -1.42016326E+00 -4.66202428E+00
 -1.32383611E+00  1.12144091E+00 -4.66202428E+00 -1.32383611E+00  1.12144091E+00
 -4.66202428E+00 -1.32383611E+00  1.12144091E+00 -4.66202428E+00 -1.32383611E+00
  1.12144091E+00 -4.66202428E+00 -1.32383611E+00  1.12144091E+00 -4.66202428E+00
 -1.32383611E+00  1.12144091E+00  4.66187501E+00 -1.32213025E+00 -1.12239534E+00
  4.66187501E+00 -1.32213025E+00 -1.12239534E+00  4.66187501E+00 -1.32213025E+00
 -1.12239534E+00  4.66187501E+00 -1.32213025E+00 -1.12239534E+00  4.66187501E+00
 -1.32213025E+00 -1.12239534E+00  4.66187501E+00 -1.32213025E+00 -1.12239534E+00
  2.26492356E+00 -3.68737559E+00 -1.07549611E+00  2.26492356E+00 -3.68737559E+00
 -1.07549611E+00  2.26492356E+00 -3.68737559E+00 -1.07549611E+00  2.26492356E+00
 -3.68737559E+00 -1.07549611E+00  2.26492356E+00 -3.68737559E+00 -1.07549611E+00
  2.26492356E+00 -3.68737559E+00 -1.07549611E+00  4.52485461E+00 -3.53581024E+00
  1.41974363E+00  4.52485461E+00 -3.53581024E+00  1.41974363E+00  4.52485461E+00
 -3.53581024E+00  1.41974363E+00  4.52485461E+00 -3.53581024E+00  1.41974363E+00
  4.52485461E+00 -3.53581024E+00  1.41974363E+00  4.52485461E+00 -3.53581024E+00
  1.41974363E+00
Constraint Structure                       R   N=          39
 -6.59803696E-05  1.19050092E+00  1.03876792E-04 -1.82985201E+00 -7.95234527E-01
 -1.55198678E+00  1.83042846E+00 -7.94550670E-01  1.55180903E+00 -1.48583472E+00
  2.55682970E+00  1.98381176E+00  1.48414391E+00  2.55812209E+00 -1.98360968E+00
 -3.39791662E+00 -2.41427241E+00 -1.02447781E-01  3.39893128E+00 -2.41308041E+00
  1.02298376E-01 -2.26340072E+00 -3.68748680E+00  1.07601378E+00 -4.52241145E+00
 -3.53809059E+00 -1.42016326E+00 -4.66202428E+00 -1.32383611E+00  1.12144091E+00
  4.66187501E+00 -1.32213025E+00 -1.12239534E+00  2.26492356E+00 -3.68737559E+00
 -1.07549611E+00  4.52485461E+00 -3.53581024E+00  1.41974363E+00
Num ILSW                                   I              100
ILSW                                       I   N=         100
           0           0           0           0           2           0
           0           0           0           0           0 13421772800
           0           0           0           0           0           0
           0           0           0           0           0           0
           1           0           0           0           0           0
           0           0      100000           0          -1           0
           0           0           0           0           0           0
           0           0           0           1           0           0
           0           0           1           0           0           0
           0           0           4          40           0           0
           0           0           0           0           0           0
           0           0           0           0           0           0
           0           0           0           0           0           0
           0           0           0           0           0           0
           0           0           0           0           0           0
           0           0           0           0           0           0
           0           0           0           0
Num RLSW                                   I               40
RLSW                                       R   N=          40
  1.00000000E+00  1.00000000E+00  1.00000000E+00  1.00000000E+00  1.00000000E+00
  0.00000000E+00  0.00000000E+00  1.00000000E+00  0.00000000E+00  0.00000000E+00
  0.00000000E+00  0.00000000E+00  1.00000000E+00  0.00000000E+00  0.00000000E+00
  0.00000000E+00  0.00000000E+00  1.00000000E+00  0.00000000E+00  0.00000000E+00
  0.00000000E+00  0.00000000E+00  1.00000000E+00  0.00000000E+00  0.00000000E+00
  0.00000000E+00  0.00000000E+00  1.00000000E+00  0.00000000E+00  0.00000000E+00
  0.00000000E+00  0.00000000E+00  0.00000000E+00  0.00000000E+00  0.00000000E+00
  0.00000000E+00  0.00000000E+00  0.00000000E+00  1.00000000E+00  1.00000000E+00
MxBond                                     I                4
NBond                                      I   N=          13
           4           2           2           1           1           4
           4           1           1           1           1           1
           1
IBond                                      I   N=          52
           2           3           4           5           1           6
           0           0           1           7           0           0
           1           0           0           0           1           0
           0           0           2           8           9          10
           3          11          12          13           6           0
           0           0           6           0           0           0
           6           0           0           0           7           0
           0           0           7           0           0           0
           7           0           0           0
RBond                                      R   N=          52
  1.00000000E+00  1.00000000E+00  2.00000000E+00  2.00000000E+00  1.00000000E+00
  1.00000000E+00  0.00000000E+00  0.00000000E+00  1.00000000E+00  1.00000000E+00
  0.00000000E+00  0.00000000E+00  2.00000000E+00  0.00000000E+00  0.00000000E+00
  0.00000000E+00  2.00000000E+00  0.00000000E+00  0.00000000E+00  0.00000000E+00
  1.00000000E+00  1.00000000E+00  1.00000000E+00  1.00000000E+00  1.00000000E+00
  1.00000000E+00  1.00000000E+00  1.00000000E+00  1.00000000E+00  0.00000000E+00
  0.00000000E+00  0.00000000E+00  1.00000000E+00  0.00000000E+00  0.00000000E+00
  0.00000000E+00  1.00000000E+00  0.00000000E+00  0.00000000E+00  0.00000000E+00
  1.00000000E+00  0.00000000E+00  0.00000000E+00  0.00000000E+00  1.00000000E+00
  0.00000000E+00  0.00000000E+00  0.00000000E+00  1.00000000E+00  0.00000000E+00
  0.00000000E+00  0.00000000E+00
Virial Ratio                               R      2.000865700383486E+00
SCF Energy                                 R     -7.196927411528986E+02
MP2 Energy                                 R     -7.210264967279842E+02
Total Energy                               R     -7.210264967279842E+02
Post-SCF wavefunction norm                 R      1.173619985829278E+00
RMS Density                                R      6.739587515782640E-09
External E-field                           R   N=          35
  0.00000000E+00  0.00000000E+00  0.00000000E+00  0.00000000E+00  0.00000000E+00
  0.00000000E+00  0.00000000E+00  0.00000000E+00  0.00000000E+00  0.00000000E+00
  0.00000000E+00  0.00000000E+00  0.00000000E+00  0.00000000E+00  0.00000000E+00
  0.00000000E+00  0.00000000E+00  0.00000000E+00  0.00000000E+00  0.00000000E+00
  0.00000000E+00  0.00000000E+00  0.00000000E+00  0.00000000E+00  0.00000000E+00
  0.00000000E+00  0.00000000E+00  0.00000000E+00  0.00000000E+00  0.00000000E+00
  0.00000000E+00  0.00000000E+00  0.00000000E+00  0.00000000E+00  0.00000000E+00
IOpCl                                      I                0
IROHF                                      I                0
Alpha Orbital Energies                     R   N=         257
 -7.98710345E+01 -2.04051153E+01 -2.04050544E+01 -2.03030146E+01 -2.03029853E+01
 -1.11378228E+01 -1.11377798E+01 -7.39106196E+00 -5.29055926E+00 -5.28967116E+00
 -5.28863772E+00 -1.24398693E+00 -1.19383349E+00 -1.10385778E+00 -1.06263948E+00
 -7.96166749E-01 -7.86806653E-01 -5.95484403E-01 -5.29920967E-01 -5.06374470E-01
 -4.86125278E-01 -4.71377535E-01 -4.62355174E-01 -4.22444648E-01 -3.75628893E-01
 -3.69981894E-01 -3.32199695E-01 -3.12623817E-01 -3.05085319E-01 -2.87056233E-01
 -2.66877654E-01 -2.48782632E-01 -2.33435481E-01  1.32493443E-01  1.43863256E-01
  1.63230638E-01  1.78169558E-01  1.82282662E-01  2.01926414E-01  2.24726820E-01
  2.33075692E-01  2.47024182E-01  2.53473168E-01  2.67049608E-01  2.72235103E-01
  2.79098887E-01  2.79880284E-01  2.92823854E-01  2.98710108E-01  3.23812423E-01
  3.33492378E-01  4.08488374E-01  4.14075955E-01  4.16674263E-01  4.30893071E-01
  4.42297761E-01  4.53760780E-01  4.58739356E-01  4.64548495E-01  4.83960883E-01
  4.87982679E-01  4.98800430E-01  5.19121104E-01  5.29473413E-01  5.39745897E-01
  5.39795567E-01  5.46224236E-01  5.58280344E-01  5.63164736E-01  5.69859143E-01
  5.80095459E-01  5.81208974E-01  5.96914234E-01  6.07058468E-01  6.24566339E-01
  6.40557442E-01  6.41651010E-01  6.79129018E-01  6.81201341E-01  7.10406000E-01
  7.12985161E-01  7.32762802E-01  7.37557249E-01  7.81657245E-01  7.95030837E-01
  8.37803031E-01  8.44058459E-01  8.58524343E-01  8.62718761E-01  8.82020120E-01
  8.91296201E-01  9.02300026E-01  9.11913747E-01  9.35158800E-01  9.59293389E-01
  9.66395864E-01  1.04746469E+00  1.06010881E+00  1.06262972E+00  1.12176472E+00
  1.14678556E+00  1.15457007E+00  1.18957417E+00  1.23420323E+00  1.24759499E+00
  1.25674943E+00  1.29738946E+00  1.32001896E+00  1.34406342E+00  1.35942949E+00
  1.38161045E+00  1.40174654E+00  1.40340035E+00  1.41245720E+00  1.43019487E+00
  1.45356404E+00  1.45594478E+00  1.48444678E+00  1.51791129E+00  1.53352071E+00
  1.56158801E+00  1.59467299E+00  1.59683083E+00  1.60752911E+00  1.62092714E+00
  1.63313802E+00  1.64505011E+00  1.64968034E+00  1.68053768E+00  1.69683384E+00
  1.70902707E+00  1.71570965E+00  1.71938704E+00  1.75455623E+00  1.75751116E+00
  1.76067630E+00  1.80433123E+00  1.80550906E+00  1.81770372E+00  1.84213979E+00
  1.89603964E+00  1.92048968E+00  1.94915372E+00  1.97002614E+00  1.97045609E+00
  2.01290664E+00  2.04325337E+00  2.07944177E+00  2.12333494E+00  2.15377821E+00
  2.18390674E+00  2.18544622E+00  2.23892183E+00  2.27452619E+00  2.28843016E+00
  2.32969781E+00  2.36889794E+00  2.38920561E+00  2.49478774E+00  2.50454884E+00
  2.52736688E+00  2.53950309E+00  2.57499247E+00  2.65097261E+00  2.69287893E+00
  2.73119596E+00  2.76836920E+00  2.90140963E+00  2.96110928E+00  2.99860410E+00
  3.04776092E+00  3.07259798E+00  3.10271760E+00  3.14333359E+00  3.25401692E+00