
    -----------------------------------------------------------------------
          Psi4: An Open-Source Ab Initio Electronic Structure Package
                               Psi4 1.3.2 release

                         Git: Rev {HEAD} ecbda83 


    R. M. Parrish, L. A. Burns, D. G. A. Smith, A. C. Simmonett,
    A. E. DePrince III, E. G. Hohenstein, U. Bozkaya, A. Yu. Sokolov,
    R. Di Remigio, R. M. Richard, J. F. Gonthier, A. M. James,
    H. R. McAlexander, A. Kumar, M. Saitow, X. Wang, B. P. Pritchard,
    P. Verma, H. F. Schaefer III, K. Patkowski, R. A. King, E. F. Valeev,
    F. A. Evangelista, J. M. Turney, T. D. Crawford, and C. D. Sherrill,
    J. Chem. Theory Comput. 13(7) pp 3185--3197 (2017).
    (doi: 10.1021/acs.jctc.7b00174)


                         Additional Contributions by
    P. Kraus, H. Kruse, M. H. Lechner, M. C. Schieber, R. A. Shaw,
    A. Alenaizan, R. Galvelis, Z. L. Glick, S. Lehtola, and J. P. Misiewicz

    -----------------------------------------------------------------------


    Psi4 started on: Monday, 31 May 2021 04:24PM

    Process ID: 26102
    Host:       daniele-Precision-5750
    PSIDATADIR: /home/daniele/anaconda3/envs/poltype/share/psi4
    Memory:     500.0 MiB
    Threads:    1
    
  ==> Input File <==

--------------------------------------------------------------------------
molecule { 
0 1
 C    0.729200    0.059500   -0.039000
 C   -0.730700   -0.043400    0.014500
 C    1.373400    0.973900   -0.847600
 C   -1.389800   -0.430400    1.164200
 C    1.531300   -0.765200    0.727400
 C   -1.525300    0.239700   -1.077400
 C    2.746300    1.071000   -0.898600
 C   -2.763400   -0.533900    1.237100
 C    2.913700   -0.683700    0.690700
 C   -2.899300    0.138400   -1.011900
 C    3.538800    0.237500   -0.124600
 C   -3.551300   -0.248900    0.140900
 H    0.806100    1.640600   -1.465300
 H   -0.754100   -0.653100    2.024300
 H    1.021300   -1.482200    1.361200
 H   -1.027500    0.547600   -1.998700
 H    3.268600    1.776500   -1.521700
 H   -3.263500   -0.843600    2.163800
 H    3.501900   -1.348900    1.307000
 H   -3.525900    0.361500   -1.871800
 H    4.630700    0.315100   -0.165600
 H   -4.630500   -0.328100    0.191100
}
set {
  geom_maxiter 400
  g_convergence GAU_LOOSE
  dynamic_level 1
}
memory 700MB
set_num_threads(3)
psi4_io.set_default_path("/home/daniele/PSI4_sctatch/Psi4-biphenyl")
for _ in range(1):
  try:
    set opt_coordinates both
    optimize('mp2/6-31G*')
    break
  except OptimizationConvergenceError:
    break
  else:
    try:
      set opt_coordinates cartesian
      optimize('mp2/6-31G*')
      break
    except OptimizationConvergenceError:
      pass
clean()
--------------------------------------------------------------------------

  Memory set to 667.572 MiB by Python driver.
  Threads set to 3 by Python driver.
gradient() will perform analytic gradient computation.
    SCF Algorithm Type (re)set to DF.

*** tstart() called on daniele-Precision-5750
*** at Mon May 31 16:24:55 2021

   => Loading Basis Set <=

    Name: 6-31G*
    Role: ORBITAL
    Keyword: BASIS
    atoms 1-12  entry C          line   111 file /home/daniele/anaconda3/envs/poltype/share/psi4/basis/6-31gs.gbs 
    atoms 13-22 entry H          line    44 file /home/daniele/anaconda3/envs/poltype/share/psi4/basis/6-31gs.gbs 


         ---------------------------------------------------------
                                   SCF
               by Justin Turney, Rob Parrish, Andy Simmonett
                          and Daniel G. A. Smith
                              RHF Reference
                        3 Threads,    667 MiB Core
         ---------------------------------------------------------

  ==> Geometry <==

    Molecular point group: c1
    Full point group: C1

    Geometry (in Angstrom), charge = 0, multiplicity = 1:

       Center              X                  Y                   Z               Mass       
    ------------   -----------------  -----------------  -----------------  -----------------
         C            0.731133354909     0.058466202211    -0.037266401318    12.000000000000
         C           -0.728766645091    -0.044433797789     0.016233598682    12.000000000000
         C            1.375333354909     0.972866202211    -0.845866401318    12.000000000000
         C           -1.387866645091    -0.431433797789     1.165933598682    12.000000000000
         C            1.533233354909    -0.766233797789     0.729133598682    12.000000000000
         C           -1.523366645091     0.238666202211    -1.075666401318    12.000000000000
         C            2.748233354909     1.069966202211    -0.896866401318    12.000000000000
         C           -2.761466645091    -0.534933797789     1.238833598682    12.000000000000
         C            2.915633354909    -0.684733797789     0.692433598682    12.000000000000
         C           -2.897366645091     0.137366202211    -1.010166401318    12.000000000000
         C            3.540733354909     0.236466202211    -0.122866401318    12.000000000000
         C           -3.549366645091    -0.249933797789     0.142633598682    12.000000000000
         H            0.808033354909     1.639566202211    -1.463566401318     1.007825032230
         H           -0.752166645091    -0.654133797789     2.026033598682     1.007825032230
         H            1.023233354909    -1.483233797789     1.362933598682     1.007825032230
         H           -1.025566645091     0.546566202211    -1.996966401318     1.007825032230
         H            3.270533354909     1.775466202211    -1.519966401318     1.007825032230
         H           -3.261566645091    -0.844633797789     2.165533598682     1.007825032230
         H            3.503833354909    -1.349933797789     1.308733598682     1.007825032230
         H           -3.523966645091     0.360466202211    -1.870066401318     1.007825032230
         H            4.632633354909     0.314066202211    -0.163866401318     1.007825032230
         H           -4.628566645091    -0.329133797789     0.192833598682     1.007825032230

  Running in c1 symmetry.

  Rotational constants: A =      0.09978  B =      0.01850  C =      0.01597 [cm^-1]
  Rotational constants: A =   2991.44101  B =    554.67157  C =    478.69179 [MHz]
  Nuclear repulsion =  605.286343262595096

  Charge       = 0
  Multiplicity = 1
  Electrons    = 82
  Nalpha       = 41
  Nbeta        = 41

  ==> Algorithm <==

  SCF Algorithm Type is DF.
  DIIS enabled.
  MOM disabled.
  Fractional occupation disabled.
  Guess Type is SAD.
  Energy threshold   = 1.00e-10
  Density threshold  = 1.00e-10
  Integral threshold = 0.00e+00

  ==> Primary Basis <==

  Basis Set: 6-31G*
    Blend: 6-31G*
    Number of shells: 92
    Number of basis function: 200
    Number of Cartesian functions: 200
    Spherical Harmonics?: false
    Max angular momentum: 2

   => Loading Basis Set <=

    Name: (6-31G* AUX)
    Role: JKFIT
    Keyword: DF_BASIS_SCF
    atoms 1-12  entry C          line   121 file /home/daniele/anaconda3/envs/poltype/share/psi4/basis/cc-pvdz-jkfit.gbs 
    atoms 13-22 entry H          line    51 file /home/daniele/anaconda3/envs/poltype/share/psi4/basis/cc-pvdz-jkfit.gbs 

  ==> Pre-Iterations <==

   -------------------------------------------------------
    Irrep   Nso     Nmo     Nalpha   Nbeta   Ndocc  Nsocc
   -------------------------------------------------------
     A        200     200       0       0       0       0
   -------------------------------------------------------
    Total     200     200      41      41      41       0
   -------------------------------------------------------

  ==> Integral Setup <==

  DFHelper Memory: AOs need 0.342 GiB; user supplied 0.489 GiB. Using in-core AOs.

  ==> MemDFJK: Density-Fitted J/K Matrices <==

    J tasked:                   Yes
    K tasked:                   Yes
    wK tasked:                   No
    OpenMP threads:               3
    Memory [MiB]:               500
    Algorithm:                 Core
    Schwarz Cutoff:           1E-12
    Mask sparsity (%):      11.9750
    Fitting Condition:        1E-10

   => Auxiliary Basis Set <=

  Basis Set: (6-31G* AUX)
    Blend: CC-PVDZ-JKFIT
    Number of shells: 378
    Number of basis function: 1222
    Number of Cartesian functions: 1222
    Spherical Harmonics?: false
    Max angular momentum: 3

  Minimum eigenvalue in the overlap matrix is 3.8698955720E-04.
  Using Symmetric Orthogonalization.

  SCF Guess: Superposition of Atomic Densities via on-the-fly atomic UHF.

  ==> Iterations <==

                           Total Energy        Delta E     RMS |[F,P]|

   @DF-RHF iter SAD:  -459.63368516531034   -4.59634e+02   0.00000e+00 
   @DF-RHF iter   1:  -460.06645770687669   -4.32773e-01   2.51290e-03 DIIS
   @DF-RHF iter   2:  -460.22478187093031   -1.58324e-01   9.53243e-04 DIIS
   @DF-RHF iter   3:  -460.24384187544655   -1.90600e-02   2.22553e-04 DIIS
   @DF-RHF iter   4:  -460.24551834747803   -1.67647e-03   2.78810e-05 DIIS
   @DF-RHF iter   5:  -460.24553898041734   -2.06329e-05   1.58206e-05 DIIS
   @DF-RHF iter   6:  -460.24554490134136   -5.92092e-06   3.14080e-06 DIIS
   @DF-RHF iter   7:  -460.24554523876975   -3.37428e-07   8.33944e-07 DIIS
   @DF-RHF iter   8:  -460.24554527796664   -3.91969e-08   4.34774e-07 DIIS
   @DF-RHF iter   9:  -460.24554529257045   -1.46038e-08   1.71323e-07 DIIS
   @DF-RHF iter  10:  -460.24554529568786   -3.11741e-09   7.96009e-08 DIIS
   @DF-RHF iter  11:  -460.24554529612209   -4.34227e-10   2.84487e-08 DIIS
   @DF-RHF iter  12:  -460.24554529620127   -7.91829e-11   8.92386e-09 DIIS
   @DF-RHF iter  13:  -460.24554529620889   -7.61702e-12   3.67636e-09 DIIS
   @DF-RHF iter  14:  -460.24554529620889    0.00000e+00   1.37530e-09 DIIS
   @DF-RHF iter  15:  -460.24554529620912   -2.27374e-13   5.14665e-10 DIIS
   @DF-RHF iter  16:  -460.24554529620963   -5.11591e-13   2.70517e-10 DIIS
   @DF-RHF iter  17:  -460.24554529620940    2.27374e-13   1.16537e-10 DIIS
   @DF-RHF iter  18:  -460.24554529621003   -6.25278e-13   5.85098e-11 DIIS
  Energy and wave function converged.


  ==> Post-Iterations <==

    Orbital Energies [Eh]
    ---------------------

    Doubly Occupied:                                                      

       1A    -11.237946     2A    -11.236790     3A    -11.232413  
       4A    -11.232030     5A    -11.230893     6A    -11.230835  
       7A    -11.229671     8A    -11.229227     9A    -11.228892  
      10A    -11.228711    11A    -11.228347    12A    -11.227495  
      13A     -1.176051    14A     -1.146018    15A     -1.058506  
      16A     -1.018321    17A     -1.007206    18A     -0.987666  
      19A     -0.850451    20A     -0.845692    21A     -0.807195  
      22A     -0.786610    23A     -0.721047    24A     -0.679499  
      25A     -0.651800    26A     -0.642341    27A     -0.609246  
      28A     -0.603019    29A     -0.589506    30A     -0.585921  
      31A     -0.570623    32A     -0.522558    33A     -0.521118  
      34A     -0.495613    35A     -0.491365    36A     -0.488628  
      37A     -0.468136    38A     -0.372380    39A     -0.334884  
      40A     -0.332304    41A     -0.297059  

    Virtual:                                                              

      42A      0.108539    43A      0.140407    44A      0.153914  
      45A      0.192921    46A      0.237234    47A      0.244960  
      48A      0.274819    49A      0.295316    50A      0.303140  
      51A      0.321742    52A      0.323576    53A      0.332635  
      54A      0.348998    55A      0.360303    56A      0.398147  
      57A      0.401493    58A      0.444883    59A      0.448368  
      60A      0.468031    61A      0.494378    62A      0.498583  
      63A      0.503781    64A      0.560540    65A      0.564982  
      66A      0.596928    67A      0.624370    68A      0.717417  
      69A      0.736156    70A      0.750398    71A      0.754756  
      72A      0.766668    73A      0.770713    74A      0.774326  
      75A      0.788044    76A      0.803066    77A      0.818050  
      78A      0.819472    79A      0.838709    80A      0.841296  
      81A      0.843061    82A      0.845248    83A      0.848133  
      84A      0.852202    85A      0.858446    86A      0.876275  
      87A      0.885784    88A      0.889419    89A      0.916216  
      90A      0.927879    91A      0.951819    92A      0.981130  
      93A      1.026744    94A      1.036714    95A      1.076523  
      96A      1.104100    97A      1.105257    98A      1.111564  
      99A      1.111992   100A      1.116049   101A      1.118333  
     102A      1.131736   103A      1.159477   104A      1.183918  
     105A      1.195768   106A      1.211003   107A      1.216744  
     108A      1.232960   109A      1.240678   110A      1.245785  
     111A      1.298627   112A      1.299769   113A      1.304120  
     114A      1.353077   115A      1.373783   116A      1.374443  
     117A      1.400729   118A      1.432064   119A      1.468218  
     120A      1.476236   121A      1.502252   122A      1.522906  
     123A      1.547107   124A      1.609243   125A      1.684430  
     126A      1.696955   127A      1.705637   128A      1.729762  
     129A      1.737950   130A      1.745876   131A      1.774299  
     132A      1.784449   133A      1.790249   134A      1.792949  
     135A      1.805647   136A      1.810092   137A      1.898053  
     138A      2.013435   139A      2.087119   140A      2.091971  
     141A      2.140110   142A      2.156914   143A      2.165172  
     144A      2.180507   145A      2.193601   146A      2.243256  
     147A      2.252447   148A      2.324803   149A      2.339109  
     150A      2.375859   151A      2.406877   152A      2.407089  
     153A      2.412681   154A      2.450625   155A      2.452077  
     156A      2.480403   157A      2.486029   158A      2.498341  
     159A      2.518129   160A      2.570856   161A      2.571310  
     162A      2.621951   163A      2.633295   164A      2.658499  
     165A      2.659532   166A      2.663150   167A      2.675430  
     168A      2.803617   169A      2.855233   170A      2.922571  
     171A      2.937893   172A      2.940924   173A      3.007164  
     174A      3.016221   175A      3.030884   176A      3.060740  
     177A      3.092117   178A      3.118772   179A      3.135909  
     180A      3.140043   181A      3.156492   182A      3.179001  
     183A      3.241196   184A      3.349916   185A      3.384224  
     186A      3.637185   187A      3.790654   188A      3.907541  
     189A      4.533254   190A      4.535322   191A      4.547237  
     192A      4.549527   193A      4.554177   194A      4.590517  
     195A      4.725106   196A      4.762477   197A      4.773490  
     198A      4.851337   199A      5.075098   200A      5.227386  

    Final Occupation by Irrep:
              A 
    DOCC [    41 ]

  @DF-RHF Final Energy:  -460.24554529621003

   => Energetics <=

    Nuclear Repulsion Energy =            605.2863432625950963
    One-Electron Energy =               -1822.1957541748747644
    Two-Electron Energy =                 756.6638656160697565
    Total Energy =                       -460.2455452962100253

Computation Completed


Properties will be evaluated at   0.000000,   0.000000,   0.000000 [a0]

Properties computed using the SCF density matrix

  Nuclear Dipole Moment: [e a0]
     X:     0.0435      Y:    -0.0234      Z:     0.0390

  Electronic Dipole Moment: [e a0]
     X:    -0.0313      Y:     0.0287      Z:    -0.0456

  Dipole Moment: [e a0]
     X:     0.0123      Y:     0.0053      Z:    -0.0065     Total:     0.0149

  Dipole Moment: [D]
     X:     0.0312      Y:     0.0135      Z:    -0.0166     Total:     0.0378


*** tstop() called on daniele-Precision-5750 at Mon May 31 16:25:01 2021
Module time:
	user time   =      13.57 seconds =       0.23 minutes
	system time =       0.84 seconds =       0.01 minutes
	total time  =          6 seconds =       0.10 minutes
Total time:
	user time   =      13.57 seconds =       0.23 minutes
	system time =       0.84 seconds =       0.01 minutes
	total time  =          6 seconds =       0.10 minutes

*** tstart() called on daniele-Precision-5750
*** at Mon May 31 16:25:01 2021


  //>>>>>>>>>>>>>>>>>>>>>>>>>>>>>>>>>>>//
  //               DFMP2               //
  //<<<<<<<<<<<<<<<<<<<<<<<<<<<<<<<<<<<//

   => Loading Basis Set <=

    Name: (6-31G* AUX)
    Role: RIFIT
    Keyword: DF_BASIS_MP2
    atoms 1-12  entry C          line   159 file /home/daniele/anaconda3/envs/poltype/share/psi4/basis/cc-pvdz-ri.gbs 
    atoms 13-22 entry H          line    19 file /home/daniele/anaconda3/envs/poltype/share/psi4/basis/cc-pvdz-ri.gbs 

	 --------------------------------------------------------
	                          DF-MP2                         
	      2nd-Order Density-Fitted Moller-Plesset Theory     
	              RMP2 Wavefunction,   3 Threads             
	                                                         
	        Rob Parrish, Justin Turney, Andy Simmonett,      
	           Ed Hohenstein, and C. David Sherrill          
	 --------------------------------------------------------

   => Auxiliary Basis Set <=

  Basis Set: (6-31G* AUX)
    Blend: CC-PVDZ-RI
    Number of shells: 276
    Number of basis function: 812
    Number of Cartesian functions: 942
    Spherical Harmonics?: true
    Max angular momentum: 3

	 --------------------------------------------------------
	                 NBF =   200, NAUX =   812
	 --------------------------------------------------------
	   CLASS    FOCC     OCC    AOCC    AVIR     VIR    FVIR
	   PAIRS       0      41      41     159     159       0
	 --------------------------------------------------------

  DFHelper Memory: AOs need 0.342 GiB; user supplied 0.489 GiB. Using in-core AOs.


         ------------------------------------------------------------
                                     CPHF                           
                                  Rob Parrish                       
         ------------------------------------------------------------

  ==> Geometry <==

    Molecular point group: c1
    Full point group: C1

    Geometry (in Angstrom), charge = 0, multiplicity = 1:

       Center              X                  Y                   Z               Mass       
    ------------   -----------------  -----------------  -----------------  -----------------
         C            0.731133354909     0.058466202211    -0.037266401318    12.000000000000
         C           -0.728766645091    -0.044433797789     0.016233598682    12.000000000000
         C            1.375333354909     0.972866202211    -0.845866401318    12.000000000000
         C           -1.387866645091    -0.431433797789     1.165933598682    12.000000000000
         C            1.533233354909    -0.766233797789     0.729133598682    12.000000000000
         C           -1.523366645091     0.238666202211    -1.075666401318    12.000000000000
         C            2.748233354909     1.069966202211    -0.896866401318    12.000000000000
         C           -2.761466645091    -0.534933797789     1.238833598682    12.000000000000
         C            2.915633354909    -0.684733797789     0.692433598682    12.000000000000
         C           -2.897366645091     0.137366202211    -1.010166401318    12.000000000000
         C            3.540733354909     0.236466202211    -0.122866401318    12.000000000000
         C           -3.549366645091    -0.249933797789     0.142633598682    12.000000000000
         H            0.808033354909     1.639566202211    -1.463566401318     1.007825032230
         H           -0.752166645091    -0.654133797789     2.026033598682     1.007825032230
         H            1.023233354909    -1.483233797789     1.362933598682     1.007825032230
         H           -1.025566645091     0.546566202211    -1.996966401318     1.007825032230
         H            3.270533354909     1.775466202211    -1.519966401318     1.007825032230
         H           -3.261566645091    -0.844633797789     2.165533598682     1.007825032230
         H            3.503833354909    -1.349933797789     1.308733598682     1.007825032230
         H           -3.523966645091     0.360466202211    -1.870066401318     1.007825032230
         H            4.632633354909     0.314066202211    -0.163866401318     1.007825032230
         H           -4.628566645091    -0.329133797789     0.192833598682     1.007825032230

  Nuclear repulsion =  605.286343262595096
  Reference energy  = -460.245545296210025

  ==> Basis Set <==

  Basis Set: 6-31G*
    Blend: 6-31G*
    Number of shells: 92
    Number of basis function: 200
    Number of Cartesian functions: 200
    Spherical Harmonics?: false
    Max angular momentum: 2

  ==> CGRSolver (by Rob Parrish) <==

   Number of roots    =         1
   Preconditioning    =    JACOBI
   Convergence cutoff =     1E-06
   Maximum iterations =       100

  ==> CPHFRHamiltonian (by Rob Parrish) <== 

  ==> MemDFJK: Density-Fitted J/K Matrices <==

    J tasked:                   Yes
    K tasked:                   Yes
    wK tasked:                   No
    OpenMP threads:               3
    Memory [MiB]:               500
    Algorithm:                 Core
    Schwarz Cutoff:           1E-12
    Mask sparsity (%):      11.9750
    Fitting Condition:        1E-10

   => Auxiliary Basis Set <=

  Basis Set: (6-31G* AUX)
    Blend: CC-PVDZ-JKFIT
    Number of shells: 378
    Number of basis function: 1222
    Number of Cartesian functions: 1222
    Spherical Harmonics?: false
    Max angular momentum: 3

  ==> CPHF Iterations <==

  => Iterations <=

             Iter  Converged  Remaining    Residual
  CGR           1          0          1   7.932E-02
  CGR           2          0          1   1.145E-02
  CGR           3          0          1   4.313E-03
  CGR           4          0          1   1.925E-03
  CGR           5          0          1   8.818E-04
  CGR           6          0          1   2.087E-04
  CGR           7          0          1   7.767E-05
  CGR           8          0          1   2.730E-05
  CGR           9          0          1   1.053E-05
  CGR          10          0          1   5.570E-06
  CGR          11          0          1   2.046E-06
  CGR          12          1          0   8.815E-07

    CGRSolver converged.

  ==> DFCorrGrad: Density-Fitted Correlated Gradients <==

    OpenMP threads:              3
    Integrals threads:           3
    Memory [GiB]:            0.489
    Schwarz Cutoff:          0E+00
    Fitting Condition:       1E-10

   => Auxiliary Basis Set <=

  Basis Set: (6-31G* AUX)
    Blend: CC-PVDZ-JKFIT
    Number of shells: 378
    Number of basis function: 1222
    Number of Cartesian functions: 1222
    Spherical Harmonics?: false
    Max angular momentum: 3

	-----------------------------------------------------------
	 ==================> DF-MP2 Energies <==================== 
	-----------------------------------------------------------
	 Reference Energy          =    -460.2455452962100253 [Eh]
	 Singles Energy            =      -0.0000000000000000 [Eh]
	 Same-Spin Energy          =      -0.4235725607500951 [Eh]
	 Opposite-Spin Energy      =      -1.1493536603817605 [Eh]
	 Correlation Energy        =      -1.5729262211318555 [Eh]
	 Total Energy              =    -461.8184715173418908 [Eh]
	-----------------------------------------------------------
	 ================> DF-SCS-MP2 Energies <================== 
	-----------------------------------------------------------
	 SCS Same-Spin Scale       =       0.3333333333333333 [-]
	 SCS Opposite-Spin Scale   =       1.2000000000000000 [-]
	 SCS Same-Spin Energy      =      -0.1411908535833650 [Eh]
	 SCS Opposite-Spin Energy  =      -1.3792243924581125 [Eh]
	 SCS Correlation Energy    =      -1.5204152460414775 [Eh]
	 SCS Total Energy          =    -461.7659605422514915 [Eh]
	-----------------------------------------------------------


  -Total Gradient:
     Atom            X                  Y                   Z
    ------   -----------------  -----------------  -----------------
       1        0.002315943201     0.001061573768    -0.000768804928
       2       -0.000323160233    -0.001326128226     0.001493002895
       3        0.001563893110    -0.014448170428     0.014456154433
       4       -0.015751112125     0.007817363120    -0.025732311286
       5        0.004064832605     0.012084313659    -0.012126467850
       6       -0.007775812201    -0.008626681862     0.023530692765
       7       -0.015756654341     0.002182777894    -0.001077459980
       8        0.013325044152     0.008386067303    -0.021902698186
       9       -0.001923248356     0.008770216052    -0.009116917623
      10        0.018011007437    -0.005372142731     0.018211755753
      11       -0.010165612944    -0.001860919920     0.001322621274
      12       -0.001919643247     0.000576753084    -0.002211315886
      13        0.008291903654    -0.008278393329     0.005313287113
      14        0.008601283257    -0.001114239907    -0.002854809026
      15       -0.005667817927     0.005481687100    -0.001962866511
      16        0.005815314452     0.001816053425     0.000978179104
      17        0.004117056087    -0.008553891463     0.007490920886
      18       -0.007504546619    -0.001575487863     0.002943949943
      19       -0.002122307408     0.003464122798    -0.002850682984
      20       -0.004888409986    -0.001435239826     0.004694041535
      21        0.005966006140     0.001198514981    -0.000909526397
      22        0.001726041289    -0.000248147631     0.001079254957


*** tstop() called on daniele-Precision-5750 at Mon May 31 16:25:18 2021
Module time:
	user time   =      50.14 seconds =       0.84 minutes
	system time =       2.89 seconds =       0.05 minutes
	total time  =         17 seconds =       0.28 minutes
Total time:
	user time   =      63.71 seconds =       1.06 minutes
	system time =       3.73 seconds =       0.06 minutes
	total time  =         23 seconds =       0.38 minutes

			-----------------------------------------
			 OPTKING 2.0: for geometry optimizations 
			  - R.A. King,  Bethel University        
			-----------------------------------------
	At level 1: Red. Int., RFO, no backsteps, dynamic trust

	Internal coordinates to be generated automatically.
	Detected frag 1 with atoms:  1 2 3 4 5 6 7 8 9 10 11 12 13 14 15 16 17 18 19 20
	 21 22
	---Fragment 1 Bond Connectivity---
	 1 : 2 3 5
	 2 : 1 4 6
	 3 : 1 7 13
	 4 : 2 8 14
	 5 : 1 9 15
	 6 : 2 10 16
	 7 : 3 11 17
	 8 : 4 12 18
	 9 : 5 11 19
	 10 : 6 12 20
	 11 : 7 9 21
	 12 : 8 10 22
	 13 : 3
	 14 : 4
	 15 : 5
	 16 : 6
	 17 : 7
	 18 : 8
	 19 : 9
	 20 : 10
	 21 : 11
	 22 : 12

	---Fragment 1 Geometry and Gradient---
	 C           1.3816418020        0.1104851098       -0.0704232922
	 C          -1.3771693686       -0.0839677085        0.0306770555
	 C           2.5990033720        1.8384506789       -1.5984558372
	 C          -2.6226878579       -0.8152917191        2.2032951820
	 C           2.8973911272       -1.4479720259        1.3778628104
	 C          -2.8787457479        0.4510137576       -2.0327149008
	 C           5.1934083696        2.0219430857       -1.6948318696
	 C          -5.2184156638       -1.0108783731        2.3410562165
	 C           5.5097485230       -1.2939593467        1.3085098616
	 C          -5.4752294443        0.2595845011       -1.9089378396
	 C           6.6910163241        0.4468563601       -0.2321838485
	 C          -6.7073308781       -0.4723064273        0.2695384378
	 H           1.5269617410        3.0983310867       -2.7657396649
	 H          -1.4213889599       -1.2361337272        3.8286486225
	 H           1.9336308032       -2.8029056578        2.5755712287
	 H          -1.9380400826        1.0328604316       -3.7737195802
	 H           6.1804123250        3.3551448672       -2.8723202184
	 H          -6.1634676992       -1.5961265541        4.0922654170
	 H           6.6212854300       -2.5510051653        2.4731480727
	 H          -6.6593318345        0.6811823997       -3.5339133349
	 H           8.7544082804        0.5934991074       -0.3096626197
	 H          -8.7467233127       -0.6219727365        0.3644026893
	             0.0023159432        0.0010615738       -0.0007688049
	            -0.0003231602       -0.0013261282        0.0014930029
	             0.0015638931       -0.0144481704        0.0144561544
	            -0.0157511121        0.0078173631       -0.0257323113
	             0.0040648326        0.0120843137       -0.0121264678
	            -0.0077758122       -0.0086266819        0.0235306928
	            -0.0157566543        0.0021827779       -0.0010774600
	             0.0133250442        0.0083860673       -0.0219026982
	            -0.0019232484        0.0087702161       -0.0091169176
	             0.0180110074       -0.0053721427        0.0182117558
	            -0.0101656129       -0.0018609199        0.0013226213
	            -0.0019196432        0.0005767531       -0.0022113159
	             0.0082919037       -0.0082783933        0.0053132871
	             0.0086012833       -0.0011142399       -0.0028548090
	            -0.0056678179        0.0054816871       -0.0019628665
	             0.0058153145        0.0018160534        0.0009781791
	             0.0041170561       -0.0085538915        0.0074909209
	            -0.0075045466       -0.0015754879        0.0029439499
	            -0.0021223074        0.0034641228       -0.0028506830
	            -0.0048884100       -0.0014352398        0.0046940415
	             0.0059660061        0.0011985150       -0.0009095264
	             0.0017260413       -0.0002481476        0.0010792550

	Previous optimization step data not found.  Starting new optimization.

	---Fragment 1 Intrafragment Coordinates---
	 - Coordinate -           - BOHR/RAD -       - ANG/DEG -
	 R(1,2)           =         2.767503	       1.464499
	 R(1,3)           =         2.608202	       1.380201
	 R(1,5)           =         2.612244	       1.382340
	 R(2,4)           =         2.608912	       1.380577
	 R(2,6)           =         2.607398	       1.379775
	 R(3,7)           =         2.602671	       1.377274
	 R(3,13)          =         2.024629	       1.071388
	 R(4,8)           =         2.606729	       1.379421
	 R(4,14)          =         2.064461	       1.092466
	 R(5,9)           =         2.617812	       1.385287
	 R(5,15)          =         2.049191	       1.084385
	 R(6,10)          =         2.606471	       1.379285
	 R(6,16)          =         2.062661	       1.091513
	 R(7,11)          =         2.619746	       1.386310
	 R(7,17)          =         2.034228	       1.076467
	 R(8,12)          =         2.607319	       1.379734
	 R(8,18)          =         2.074216	       1.097628
	 R(9,11)          =         2.607599	       1.379882
	 R(9,19)          =         2.042562	       1.080877
	 R(10,12)         =         2.607585	       1.379874
	 R(10,20)         =         2.054358	       1.087120
	 R(11,21)         =         2.070047	       1.095422
	 R(12,22)         =         2.047076	       1.083266
	 B(1,2,4)         =         2.124720	     121.737462
	 B(1,2,6)         =         2.130289	     122.056570
	 B(1,3,7)         =         2.133723	     122.253319
	 B(1,3,13)        =         2.097743	     120.191804
	 B(1,5,9)         =         2.128514	     121.954893
	 B(1,5,15)        =         2.032666	     116.463173
	 B(2,1,3)         =         2.133210	     122.223943
	 B(2,1,5)         =         2.113267	     121.081265
	 B(2,4,8)         =         2.141753	     122.713419
	 B(2,4,14)        =         2.020813	     115.784056
	 B(2,6,10)        =         2.118859	     121.401671
	 B(2,6,16)        =         2.052386	     117.593058
	 B(3,1,5)         =         2.036708	     116.694792
	 B(3,7,11)        =         2.102246	     120.449827
	 B(3,7,17)        =         2.154715	     123.456056
	 B(4,2,6)         =         2.028177	     116.205968
	 B(4,8,12)        =         2.107325	     120.740831
	 B(4,8,18)        =         2.117044	     121.297709
	 B(5,9,11)        =         2.102492	     120.463895
	 B(5,9,19)        =         2.084884	     119.455059
	 B(6,10,12)       =         2.130558	     122.071954
	 B(6,10,20)       =         2.119453	     121.435730
	 B(7,3,13)        =         2.051720	     117.554874
	 B(7,11,9)        =         2.062687	     118.183274
	 B(7,11,21)       =         2.101726	     120.420018
	 B(8,4,14)        =         2.120619	     121.502525
	 B(8,12,10)       =         2.039699	     116.866156
	 B(8,12,22)       =         2.114125	     121.130445
	 B(9,5,15)        =         2.122005	     121.581933
	 B(9,11,21)       =         2.118772	     121.396708
	 B(10,6,16)       =         2.111940	     121.005269
	 B(10,12,22)      =         2.129361	     122.003398
	 B(11,7,17)       =         2.026225	     116.094117
	 B(11,9,19)       =         2.095810	     120.081046
	 B(12,8,18)       =         2.058816	     117.961457
	 B(12,10,20)      =         2.033174	     116.492315
	 D(1,2,4,8)       =         3.141474	     179.993220
	 D(1,2,4,14)      =        -0.000221	      -0.012675
	 D(1,2,6,10)      =        -3.141489	    -179.994064
	 D(1,2,6,16)      =         0.000356	       0.020418
	 D(1,3,7,11)      =        -0.000040	      -0.002284
	 D(1,3,7,17)      =        -3.141514	    -179.995493
	 D(1,5,9,11)      =         0.000096	       0.005484
	 D(1,5,9,19)      =        -3.141352	    -179.986190
	 D(2,1,3,7)       =        -3.141345	    -179.985832
	 D(2,1,3,13)      =        -0.000093	      -0.005314
	 D(2,1,5,9)       =         3.141320	     179.984362
	 D(2,1,5,15)      =        -0.000069	      -0.003932
	 D(2,4,8,12)      =         0.000015	       0.000879
	 D(2,4,8,18)      =        -3.141197	    -179.977308
	 D(2,6,10,12)     =         0.000000	       0.000000
	 D(2,6,10,20)     =         3.141386	     179.988158
	 D(3,1,2,4)       =        -2.598450	    -148.880241
	 D(3,1,2,6)       =         0.543197	      31.122908
	 D(3,1,5,9)       =        -0.000121	      -0.006917
	 D(3,1,5,15)      =        -3.141509	    -179.995212
	 D(3,7,11,9)      =         0.000000	       0.000000
	 D(3,7,11,21)     =         3.141514	     179.995471
	 D(4,2,1,5)       =         0.543303	      31.128968
	 D(4,2,6,10)      =         0.000156	       0.008921
	 D(4,2,6,16)      =        -3.141184	    -179.976597
	 D(4,8,12,10)     =         0.000154	       0.008827
	 D(4,8,12,22)     =         3.141568	     179.998585
	 D(5,1,2,6)       =        -2.598235	    -148.867883
	 D(5,1,3,7)       =         0.000093	       0.005340
	 D(5,1,3,13)      =         3.141346	     179.985858
	 D(5,9,11,7)      =        -0.000036	      -0.002081
	 D(5,9,11,21)     =        -3.141540	    -179.996975
	 D(6,2,4,8)       =        -0.000170	      -0.009754
	 D(6,2,4,14)      =         3.141320	     179.984351
	 D(6,10,12,8)     =        -0.000168	      -0.009652
	 D(6,10,12,22)    =         3.141593	     180.000000
	 D(7,11,9,19)     =         3.141410	     179.989541
	 D(8,12,10,20)    =        -3.141553	    -179.997709
	 D(9,11,7,17)     =         3.141492	     179.994217
	 D(10,12,8,18)    =         3.141378	     179.987725
	 D(11,7,3,13)     =        -3.141301	    -179.983291
	 D(11,9,5,15)     =         3.141474	     179.993183
	 D(12,8,4,14)     =        -3.141469	    -179.992895
	 D(12,10,6,16)    =         3.141343	     179.985711
	 D(13,3,7,17)     =         0.000410	       0.023500
	 D(14,4,8,18)     =         0.000505	       0.028918
	 D(15,5,9,19)     =         0.000026	       0.001509
	 D(16,6,10,20)    =        -0.000468	      -0.026818
	 D(17,7,11,21)    =        -0.000189	      -0.010837
	 D(18,8,12,22)    =        -0.000393	      -0.022517
	 D(19,9,11,21)    =        -0.000093	      -0.005353
	 D(20,10,12,22)   =         0.000220	       0.012630

	Current energy   :      -461.8184715173

	Generating empirical Hessian (Schlegel '84) for each fragment.
	Taking RFO optimization step.
	Going to follow RFO solution 1.
	Using RFO vector 1.
	Norm of target step-size    0.31153
	Projected energy change by RFO approximation:        -0.0246389669

	Back-transformation to cartesian coordinates...
	Successfully converged to displaced geometry.
	First geometry is closer to target in internal coordinates, so am using that one.
	First geometry has RMS(Delta(q)) = 1.72e-03

	--- Internal Coordinate Step in ANG or DEG, aJ/ANG or AJ/DEG ---
	 ---------------------------------------------------------------------------
	   Coordinate                Previous        Force       Change         New 
	   ----------                --------       ------       ------       ------
	    1 R(1,2)          =      1.464499     0.075804     0.012784     1.477284
	    2 R(1,3)          =      1.380201     0.185061     0.025393     1.405594
	    3 R(1,5)          =      1.382340     0.194138     0.026460     1.408800
	    4 R(2,4)          =      1.380577     0.209990     0.028431     1.409008
	    5 R(2,6)          =      1.379775     0.215483     0.029013     1.408789
	    6 R(3,7)          =      1.377274     0.105889     0.013470     1.390744
	    7 R(3,13)         =      1.071388     0.103852     0.019535     1.090923
	    8 R(4,8)          =      1.379421     0.075250     0.009797     1.389219
	    9 R(4,14)         =      1.092466    -0.024589    -0.000448     1.092018
	   10 R(5,9)          =      1.385287     0.052976     0.006802     1.392088
	   11 R(5,15)         =      1.084385     0.017352     0.006664     1.091049
	   12 R(6,10)         =      1.379285     0.077636     0.009970     1.389255
	   13 R(6,16)         =      1.091513    -0.019269    -0.001361     1.090152
	   14 R(7,11)         =      1.386310     0.113947     0.015332     1.401641
	   15 R(7,17)         =      1.076467     0.065453     0.013508     1.089975
	   16 R(8,12)         =      1.379734     0.161245     0.021464     1.401198
	   17 R(8,18)         =      1.097628    -0.052310    -0.007983     1.089645
	   18 R(9,11)         =      1.379882     0.129443     0.017050     1.396932
	   19 R(9,19)         =      1.080877     0.040471     0.008453     1.089330
	   20 R(10,12)        =      1.379874     0.150606     0.019709     1.399584
	   21 R(10,20)        =      1.087120     0.009803     0.003627     1.090746
	   22 R(11,21)        =      1.095422    -0.049974    -0.008924     1.086498
	   23 R(12,22)        =      1.083266     0.013605     0.002472     1.085738
	   24 B(1,2,4)        =    121.737462    -0.000152    -0.572282   121.165180
	   25 B(1,2,6)        =    122.056570    -0.000457    -1.417688   120.638881
	   26 B(1,3,7)        =    122.253319    -0.000499    -1.362560   120.890759
	   27 B(1,3,13)       =    120.191804     0.000106     0.122710   120.314514
	   28 B(1,5,9)        =    121.954893    -0.000298    -0.871292   121.083601
	   29 B(1,5,15)       =    116.463173     0.000733     2.984563   119.447736
	   30 B(2,1,3)        =    122.223943    -0.000521    -1.600408   120.623535
	   31 B(2,1,5)        =    121.081265     0.000091     0.098023   121.179287
	   32 B(2,4,8)        =    122.713419    -0.000591    -1.717897   120.995522
	   33 B(2,4,14)       =    115.784056     0.000947     3.711166   119.495222
	   34 B(2,6,10)       =    121.401671    -0.000216    -0.531116   120.870555
	   35 B(2,6,16)       =    117.593058     0.000536     2.114996   119.708055
	   36 B(3,1,5)        =    116.694792     0.000430     1.501483   118.196275
	   37 B(3,7,11)       =    120.449827    -0.000060    -0.236981   120.212847
	   38 B(3,7,17)       =    123.456056    -0.000675    -2.899231   120.556824
	   39 B(4,2,6)        =    116.205968     0.000609     1.989280   118.195248
	   40 B(4,8,12)       =    120.740831    -0.000160    -0.600443   120.140387
	   41 B(4,8,18)       =    121.297709    -0.000331    -1.482874   119.814836
	   42 B(5,9,11)       =    120.463895    -0.000090    -0.473141   119.990754
	   43 B(5,9,19)       =    119.455059    -0.000006    -0.026343   119.428716
	   44 B(6,10,12)      =    122.071954    -0.000531    -1.764447   120.307506
	   45 B(6,10,20)      =    121.435730    -0.000268    -1.429835   120.005895
	   46 B(7,3,13)       =    117.554874     0.000393     1.226151   118.781025
	   47 B(7,11,9)       =    118.183274     0.000518     1.441843   119.625117
	   48 B(7,11,21)      =    120.420018    -0.000178    -0.376873   120.043145
	   49 B(8,4,14)       =    121.502525    -0.000356    -2.013493   119.489032
	   50 B(8,12,10)      =    116.866156     0.000888     2.623927   119.490083
	   51 B(8,12,22)      =    121.130445    -0.000349    -0.912770   120.217675
	   52 B(9,5,15)       =    121.581933    -0.000435    -2.132431   119.449502
	   53 B(9,11,21)      =    121.396708    -0.000340    -1.065136   120.331573
	   54 B(10,6,16)      =    121.005269    -0.000320    -1.598195   119.407074
	   55 B(10,12,22)     =    122.003398    -0.000539    -1.711329   120.292069
	   56 B(11,7,17)      =    116.094117     0.000735     3.134204   119.228321
	   57 B(11,9,19)      =    120.081046     0.000097     0.495749   120.576795
	   58 B(12,8,18)      =    117.961457     0.000491     2.078777   120.040233
	   59 B(12,10,20)     =    116.492315     0.000798     3.191599   119.683914
	   60 D(1,2,4,8)      =    179.993220     0.000001     0.006780   180.000000
	   61 D(1,2,4,14)     =     -0.012675     0.000019     1.657384     1.644709
	   62 D(1,2,6,10)     =   -179.994064     0.000000     0.100396  -179.893668
	   63 D(1,2,6,16)     =      0.020418     0.000015     1.470452     1.490871
	   64 D(1,3,7,11)     =     -0.002284    -0.000001    -0.016181    -0.018464
	   65 D(1,3,7,17)     =   -179.995493     0.000006     0.496510  -179.498983
	   66 D(1,5,9,11)     =      0.005484    -0.000002    -0.156582    -0.151098
	   67 D(1,5,9,19)     =   -179.986190     0.000006     0.534010  -179.452179
	   68 D(2,1,3,7)      =   -179.985832     0.000001     0.125292  -179.860541
	   69 D(2,1,3,13)     =     -0.005314     0.000017     1.507680     1.502366
	   70 D(2,1,5,9)      =    179.984362     0.000000    -0.040368   179.943995
	   71 D(2,1,5,15)     =     -0.003932     0.000018     1.549111     1.545178
	   72 D(2,4,8,12)     =      0.000879    -0.000003    -0.177874    -0.176995
	   73 D(2,4,8,18)     =   -179.977308     0.000006     0.575358  -179.401950
	   74 D(2,6,10,12)    =      0.000000    -0.000000    -0.039293    -0.039293
	   75 D(2,6,10,20)    =    179.988158     0.000006     0.570431   180.558589
	   76 D(3,1,2,4)      =   -148.880241     0.000043     5.121468  -143.758773
	   77 D(3,1,2,6)      =     31.122908     0.000040     4.810606    35.933514
	   78 D(3,1,5,9)      =     -0.006917     0.000003     0.294619     0.287701
	   79 D(3,1,5,15)     =   -179.995212     0.000021     1.884097  -178.111115
	   80 D(3,7,11,9)     =      0.000000     0.000002     0.160457     0.160457
	   81 D(3,7,11,21)    =    179.995471     0.000000     0.017413   180.012884
	   82 D(4,2,1,5)      =     31.128968     0.000046     5.464274    36.593242
	   83 D(4,2,6,10)     =      0.008921    -0.000002    -0.201342    -0.192421
	   84 D(4,2,6,16)     =   -179.976597     0.000013     1.168714  -178.807882
	   85 D(4,8,12,10)    =      0.008827    -0.000000    -0.069817    -0.060990
	   86 D(4,8,12,22)    =    179.998585     0.000001     0.090772   180.089357
	   87 D(5,1,2,6)      =   -148.867883     0.000043     5.153412  -143.714471
	   88 D(5,1,3,7)      =      0.005340    -0.000002    -0.207597    -0.202257
	   89 D(5,1,3,13)     =    179.985858     0.000014     1.174791   181.160649
	   90 D(5,9,11,7)     =     -0.002081    -0.000001    -0.074075    -0.076155
	   91 D(5,9,11,21)    =   -179.996975     0.000001     0.068825  -179.928150
	   92 D(6,2,4,8)      =     -0.009754     0.000004     0.310564     0.300810
	   93 D(6,2,4,14)     =    179.984351     0.000022     1.960758   181.945109
	   94 D(6,10,12,8)    =     -0.009652     0.000002     0.178050     0.168398
	   95 D(6,10,12,22)   =    180.000000     0.000000     0.017937   180.017937
	   96 D(7,11,9,19)    =    179.989541    -0.000008    -0.772749   179.216792
	   97 D(8,12,10,20)   =   -179.997709    -0.000005    -0.429851  -180.427560
	   98 D(9,11,7,17)    =    179.994217    -0.000004    -0.346363   179.647854
	   99 D(10,12,8,18)   =    179.987725    -0.000008    -0.825517   179.162208
	  100 D(11,7,3,13)    =   -179.983291    -0.000016    -1.377553  -181.360844
	  101 D(11,9,5,15)    =    179.993183    -0.000021    -1.745493   178.247690
	  102 D(12,8,4,14)    =   -179.992895    -0.000021    -1.828298  -181.821193
	  103 D(12,10,6,16)   =    179.985711    -0.000016    -1.405424   178.580287
	  104 D(13,3,7,17)    =      0.023500    -0.000009    -0.864862    -0.841363
	  105 D(14,4,8,18)    =      0.028918    -0.000013    -1.075066    -1.046148
	  106 D(15,5,9,19)    =      0.001509    -0.000013    -1.054900    -1.053391
	  107 D(16,6,10,20)   =     -0.026818    -0.000009    -0.795013    -0.821831
	  108 D(17,7,11,21)   =     -0.010837    -0.000006    -0.488882    -0.499719
	  109 D(18,8,12,22)   =     -0.022517    -0.000007    -0.664928    -0.687445
	  110 D(19,9,11,21)   =     -0.005353    -0.000007    -0.629850    -0.635203
	  111 D(20,10,12,22)  =      0.012630    -0.000006    -0.590651    -0.578021
	 ---------------------------------------------------------------------------
	Successfully symmetrized geometry.

  ==> Convergence Check <==

  Measures of convergence in internal coordinates in au.
  Criteria marked as inactive (o), active & met (*), and active & unmet ( ).
  --------------------------------------------------------------------------------------------- ~
   Step     Total Energy     Delta E     MAX Force     RMS Force      MAX Disp      RMS Disp    ~
  --------------------------------------------------------------------------------------------- ~
    Convergence Criteria             o    2.50e-03 *    1.70e-03 *    1.00e-02 *    6.70e-03 *  ~
  --------------------------------------------------------------------------------------------- ~
      1    -461.81847152   -4.62e+02 o    2.62e-02      7.23e-03      9.54e-02      2.98e-02    ~
  ---------------------------------------------------------------------------------------------

	Writing optimization data to binary file.
	Structure for next step:
	Cartesian Geometry (in Angstrom)
	    C     0.7383545242   0.0455892527  -0.0191139634
	    C    -0.7345442943  -0.0541279730   0.0355959621
	    C     1.3608123381   1.0209294959  -0.8172076666
	    C    -1.3985162863  -0.3932816285   1.2311789882
	    C     1.5567548343  -0.8336369270   0.7170241215
	    C    -1.5141075164   0.1951965160  -1.1110532471
	    C     2.7469621078   1.1179208531  -0.8750853059
	    C    -2.7838199860  -0.4860730353   1.2786381031
	    C     2.9445491124  -0.7386189042   0.6630966428
	    C    -2.8996458444   0.1049423972  -1.0644921931
	    C     3.5471512947   0.2384838401  -0.1328683963
	    C    -3.5453941277  -0.2378075915   0.1289756873
	    H     0.7603204201   1.7316431927  -1.3867756791
	    H    -0.8171484213  -0.5596439926   2.1404851900
	    H     1.0957825191  -1.6182523312   1.3189145745
	    H    -1.0250587294   0.4404699324  -2.0539760206
	    H     3.2238467506   1.8815696786  -1.4894679430
	    H    -3.2779859465  -0.7402286113   2.2159375260
	    H     3.5516147170  -1.4382478598   1.2363605576
	    H    -3.4889628015   0.2920268783  -1.9630647184
	    H     4.6297943635   0.3168587045  -0.1799713486
	    H    -4.6282252203  -0.3085554383   0.1650082998
			--------------------------
			 OPTKING Finished Execution 
			--------------------------

    Structure for next step:
    Molecular point group: c1
    Full point group: C1

    Geometry (in Angstrom), charge = 0, multiplicity = 1:

    C            0.736752489425     0.047200010836    -0.021838178152
    C           -0.736146334768    -0.052517215207     0.032871747553
    C            1.359210305789     1.022540257829    -0.819931884447
    C           -1.400118329385    -0.391670872118     1.228454778337
    C            1.555152802751    -0.832026172314     0.714299909627
    C           -1.515709560013     0.196807274758    -1.113777466147
    C            2.745360080991     1.119531615467    -0.877809524053
    C           -2.785422034557    -0.484462279274     1.275913893431
    C            2.942947086362    -0.737008149118     0.660372430725
    C           -2.901247893452     0.106553155530    -1.067216411913
    C            3.545549271027     0.240094598970    -0.135592611490
    C           -3.546996179266    -0.236196834470     0.126251473147
    H            0.758718385507     1.733253957429    -1.389499899225
    H           -0.818750462133    -0.558033236870     2.137760983714
    H            1.094180485741    -1.616641579596     1.316190365031
    H           -1.026660771034     0.442080692085    -2.056700243362
    H            3.222244725605     1.883180443986    -1.492192163555
    H           -3.279587997011    -0.738617856233     2.213213320042
    H            3.550012693357    -1.436637107542     1.233636347782
    H           -3.490564852825     0.293637637425    -1.965788940830
    H            4.628192344098     0.318469463716    -0.182695563941
    H           -4.629827276084    -0.306944681511     0.162284085818

gradient() will perform analytic gradient computation.
    SCF Algorithm Type (re)set to DF.

*** tstart() called on daniele-Precision-5750
*** at Mon May 31 16:25:19 2021

   => Loading Basis Set <=

    Name: 6-31G*
    Role: ORBITAL
    Keyword: BASIS
    atoms 1-12  entry C          line   111 file /home/daniele/anaconda3/envs/poltype/share/psi4/basis/6-31gs.gbs 
    atoms 13-22 entry H          line    44 file /home/daniele/anaconda3/envs/poltype/share/psi4/basis/6-31gs.gbs 


         ---------------------------------------------------------
                                   SCF
               by Justin Turney, Rob Parrish, Andy Simmonett
                          and Daniel G. A. Smith
                              RHF Reference
                        3 Threads,    667 MiB Core
         ---------------------------------------------------------

  ==> Geometry <==

    Molecular point group: c1
    Full point group: C1

    Geometry (in Angstrom), charge = 0, multiplicity = 1:

       Center              X                  Y                   Z               Mass       
    ------------   -----------------  -----------------  -----------------  -----------------
         C            0.736752489425     0.047200010836    -0.021838178152    12.000000000000
         C           -0.736146334768    -0.052517215207     0.032871747553    12.000000000000
         C            1.359210305789     1.022540257829    -0.819931884447    12.000000000000
         C           -1.400118329385    -0.391670872118     1.228454778337    12.000000000000
         C            1.555152802751    -0.832026172314     0.714299909627    12.000000000000
         C           -1.515709560013     0.196807274758    -1.113777466147    12.000000000000
         C            2.745360080991     1.119531615467    -0.877809524053    12.000000000000
         C           -2.785422034557    -0.484462279274     1.275913893431    12.000000000000
         C            2.942947086362    -0.737008149118     0.660372430725    12.000000000000
         C           -2.901247893452     0.106553155530    -1.067216411913    12.000000000000
         C            3.545549271027     0.240094598970    -0.135592611490    12.000000000000
         C           -3.546996179266    -0.236196834470     0.126251473147    12.000000000000
         H            0.758718385507     1.733253957429    -1.389499899225     1.007825032230
         H           -0.818750462133    -0.558033236870     2.137760983714     1.007825032230
         H            1.094180485741    -1.616641579596     1.316190365031     1.007825032230
         H           -1.026660771034     0.442080692085    -2.056700243362     1.007825032230
         H            3.222244725605     1.883180443986    -1.492192163555     1.007825032230
         H           -3.279587997011    -0.738617856233     2.213213320042     1.007825032230
         H            3.550012693357    -1.436637107542     1.233636347782     1.007825032230
         H           -3.490564852825     0.293637637425    -1.965788940830     1.007825032230
         H            4.628192344098     0.318469463716    -0.182695563941     1.007825032230
         H           -4.629827276084    -0.306944681511     0.162284085818     1.007825032230

  Running in c1 symmetry.

  Rotational constants: A =      0.09482  B =      0.01831  C =      0.01585 [cm^-1]
  Rotational constants: A =   2842.48634  B =    549.05287  C =    475.18891 [MHz]
  Nuclear repulsion =  598.839895173350442

  Charge       = 0
  Multiplicity = 1
  Electrons    = 82
  Nalpha       = 41
  Nbeta        = 41

  ==> Algorithm <==

  SCF Algorithm Type is DF.
  DIIS enabled.
  MOM disabled.
  Fractional occupation disabled.
  Guess Type is READ.
  Energy threshold   = 1.00e-10
  Density threshold  = 1.00e-10
  Integral threshold = 0.00e+00

  ==> Primary Basis <==

  Basis Set: 6-31G*
    Blend: 6-31G*
    Number of shells: 92
    Number of basis function: 200
    Number of Cartesian functions: 200
    Spherical Harmonics?: false
    Max angular momentum: 2

   => Loading Basis Set <=

    Name: (6-31G* AUX)
    Role: JKFIT
    Keyword: DF_BASIS_SCF
    atoms 1-12  entry C          line   121 file /home/daniele/anaconda3/envs/poltype/share/psi4/basis/cc-pvdz-jkfit.gbs 
    atoms 13-22 entry H          line    51 file /home/daniele/anaconda3/envs/poltype/share/psi4/basis/cc-pvdz-jkfit.gbs 

   => Loading Basis Set <=

    Name: 6-31G*
    Role: ORBITAL
    Keyword: BASIS
    atoms 1-12  entry C          line   111 file /home/daniele/anaconda3/envs/poltype/share/psi4/basis/6-31gs.gbs 
    atoms 13-22 entry H          line    44 file /home/daniele/anaconda3/envs/poltype/share/psi4/basis/6-31gs.gbs 

  Reading orbitals from file 180, no projection.

  ==> Pre-Iterations <==

   -------------------------------------------------------
    Irrep   Nso     Nmo     Nalpha   Nbeta   Ndocc  Nsocc
   -------------------------------------------------------
     A        200     200       0       0       0       0
   -------------------------------------------------------
    Total     200     200      41      41      41       0
   -------------------------------------------------------

  ==> Integral Setup <==

  DFHelper Memory: AOs need 0.341 GiB; user supplied 0.489 GiB. Using in-core AOs.

  ==> MemDFJK: Density-Fitted J/K Matrices <==

    J tasked:                   Yes
    K tasked:                   Yes
    wK tasked:                   No
    OpenMP threads:               3
    Memory [MiB]:               500
    Algorithm:                 Core
    Schwarz Cutoff:           1E-12
    Mask sparsity (%):      12.1200
    Fitting Condition:        1E-10

   => Auxiliary Basis Set <=

  Basis Set: (6-31G* AUX)
    Blend: CC-PVDZ-JKFIT
    Number of shells: 378
    Number of basis function: 1222
    Number of Cartesian functions: 1222
    Spherical Harmonics?: false
    Max angular momentum: 3

  Minimum eigenvalue in the overlap matrix is 4.6185408381E-04.
  Using Symmetric Orthogonalization.

  SCF Guess: Orbitals guess was supplied from a previous computation.

  ==> Iterations <==

                           Total Energy        Delta E     RMS |[F,P]|

   @DF-RHF iter   0:  -460.09331609166099   -4.60093e+02   1.18624e-03 
   @DF-RHF iter   1:  -460.24732814663594   -1.54012e-01   2.21508e-04 DIIS
   @DF-RHF iter   2:  -460.24882970676538   -1.50156e-03   1.21119e-04 DIIS
   @DF-RHF iter   3:  -460.24919889238225   -3.69186e-04   4.49815e-05 DIIS
   @DF-RHF iter   4:  -460.24928992881263   -9.10364e-05   1.79908e-05 DIIS
   @DF-RHF iter   5:  -460.24930270468582   -1.27759e-05   3.68518e-06 DIIS
   @DF-RHF iter   6:  -460.24930363926831   -9.34582e-07   1.22385e-06 DIIS
   @DF-RHF iter   7:  -460.24930370648656   -6.72183e-08   5.12095e-07 DIIS
   @DF-RHF iter   8:  -460.24930372160100   -1.51144e-08   1.83185e-07 DIIS
   @DF-RHF iter   9:  -460.24930372475018   -3.14918e-09   8.87443e-08 DIIS
   @DF-RHF iter  10:  -460.24930372553217   -7.81995e-10   4.22923e-08 DIIS
   @DF-RHF iter  11:  -460.24930372575864   -2.26464e-10   1.35780e-08 DIIS
   @DF-RHF iter  12:  -460.24930372578024   -2.16005e-11   4.78522e-09 DIIS
   @DF-RHF iter  13:  -460.24930372578314   -2.89901e-12   1.92516e-09 DIIS
   @DF-RHF iter  14:  -460.24930372578331   -1.70530e-13   8.11664e-10 DIIS
   @DF-RHF iter  15:  -460.24930372578206    1.25056e-12   4.35889e-10 DIIS
   @DF-RHF iter  16:  -460.24930372578297   -9.09495e-13   1.91532e-10 DIIS
   @DF-RHF iter  17:  -460.24930372578262    3.41061e-13   6.39132e-11 DIIS
  Energy and wave function converged.


  ==> Post-Iterations <==

    Orbital Energies [Eh]
    ---------------------

    Doubly Occupied:                                                      

       1A    -11.245544     2A    -11.244784     3A    -11.236340  
       4A    -11.236308     5A    -11.235991     6A    -11.235945  
       7A    -11.234656     8A    -11.234643     9A    -11.234333  
      10A    -11.234281    11A    -11.234007    12A    -11.233983  
      13A     -1.162682    14A     -1.133974    15A     -1.047021  
      16A     -1.015251    17A     -1.006270    18A     -0.974932  
      19A     -0.848011    20A     -0.835966    21A     -0.802095  
      22A     -0.784855    23A     -0.712456    24A     -0.674484  
      25A     -0.651466    26A     -0.633362    27A     -0.609964  
      28A     -0.597867    29A     -0.587506    30A     -0.579089  
      31A     -0.576717    32A     -0.515368    33A     -0.510834  
      34A     -0.498439    35A     -0.483661    36A     -0.481498  
      37A     -0.475730    38A     -0.362902    39A     -0.333391  
      40A     -0.332660    41A     -0.291385  

    Virtual:                                                              

      42A      0.106088    43A      0.139879    44A      0.147270  
      45A      0.184856    46A      0.238611    47A      0.242934  
      48A      0.274579    49A      0.295504    50A      0.298770  
      51A      0.319141    52A      0.322988    53A      0.328679  
      54A      0.341611    55A      0.347341    56A      0.382060  
      57A      0.385040    58A      0.438622    59A      0.444122  
      60A      0.464001    61A      0.489421    62A      0.491228  
      63A      0.491455    64A      0.537777    65A      0.556339  
      66A      0.578927    67A      0.627824    68A      0.712517  
      69A      0.734397    70A      0.742993    71A      0.748780  
      72A      0.765880    73A      0.769032    74A      0.771768  
      75A      0.776005    76A      0.780874    77A      0.818757  
      78A      0.821405    79A      0.829642    80A      0.835829  
      81A      0.838949    82A      0.840214    83A      0.842444  
      84A      0.844953    85A      0.845550    86A      0.870061  
      87A      0.875811    88A      0.888819    89A      0.916986  
      90A      0.924879    91A      0.937381    92A      0.975435  
      93A      1.014187    94A      1.035142    95A      1.079560  
      96A      1.092966    97A      1.105503    98A      1.110602  
      99A      1.112059   100A      1.114240   101A      1.114378  
     102A      1.116878   103A      1.157085   104A      1.181633  
     105A      1.182215   106A      1.195133   107A      1.209677  
     108A      1.218552   109A      1.227464   110A      1.236036  
     111A      1.275552   112A      1.289058   113A      1.295513  
     114A      1.330991   115A      1.353605   116A      1.359522  
     117A      1.406023   118A      1.426172   119A      1.434852  
     120A      1.462276   121A      1.475249   122A      1.522168  
     123A      1.543677   124A      1.591598   125A      1.671986  
     126A      1.678889   127A      1.694169   128A      1.723621  
     129A      1.724338   130A      1.739825   131A      1.773526  
     132A      1.777237   133A      1.778169   134A      1.779188  
     135A      1.797421   136A      1.800388   137A      1.908618  
     138A      2.012771   139A      2.080523   140A      2.083310  
     141A      2.119045   142A      2.138907   143A      2.142910  
     144A      2.159126   145A      2.168113   146A      2.236147  
     147A      2.254452   148A      2.295772   149A      2.309343  
     150A      2.337723   151A      2.381232   152A      2.384419  
     153A      2.387631   154A      2.436278   155A      2.440554  
     156A      2.460941   157A      2.476725   158A      2.478044  
     159A      2.492021   160A      2.532871   161A      2.545240  
     162A      2.613439   163A      2.615320   164A      2.638920  
     165A      2.644007   166A      2.646208   167A      2.665248  
     168A      2.757633   169A      2.840704   170A      2.911499  
     171A      2.918755   172A      2.923844   173A      2.973651  
     174A      2.987758   175A      3.013969   176A      3.030232  
     177A      3.073962   178A      3.090941   179A      3.095815  
     180A      3.104684   181A      3.125679   182A      3.140870  
     183A      3.202891   184A      3.321646   185A      3.354140  
     186A      3.579595   187A      3.737973   188A      3.841762  
     189A      4.513832   190A      4.518146   191A      4.541672  
     192A      4.543532   193A      4.546754   194A      4.578534  
     195A      4.728343   196A      4.752260   197A      4.763635  
     198A      4.842408   199A      5.064237   200A      5.192913  

    Final Occupation by Irrep:
              A 
    DOCC [    41 ]

  @DF-RHF Final Energy:  -460.24930372578262

   => Energetics <=

    Nuclear Repulsion Energy =            598.8398951733504418
    One-Electron Energy =               -1809.4570912891049375
    Two-Electron Energy =                 750.3678923899718711
    Total Energy =                       -460.2493037257826245

Computation Completed


Properties will be evaluated at   0.000000,   0.000000,   0.000000 [a0]

Properties computed using the SCF density matrix

  Nuclear Dipole Moment: [e a0]
     X:     0.0075      Y:     0.0129      Z:    -0.0223

  Electronic Dipole Moment: [e a0]
     X:    -0.0053      Y:    -0.0111      Z:     0.0194

  Dipole Moment: [e a0]
     X:     0.0022      Y:     0.0018      Z:    -0.0029     Total:     0.0041

  Dipole Moment: [D]
     X:     0.0056      Y:     0.0046      Z:    -0.0074     Total:     0.0104


*** tstop() called on daniele-Precision-5750 at Mon May 31 16:25:23 2021
Module time:
	user time   =      11.89 seconds =       0.20 minutes
	system time =       0.80 seconds =       0.01 minutes
	total time  =          4 seconds =       0.07 minutes
Total time:
	user time   =      75.80 seconds =       1.26 minutes
	system time =       4.56 seconds =       0.08 minutes
	total time  =         28 seconds =       0.47 minutes

*** tstart() called on daniele-Precision-5750
*** at Mon May 31 16:25:23 2021


  //>>>>>>>>>>>>>>>>>>>>>>>>>>>>>>>>>>>//
  //               DFMP2               //
  //<<<<<<<<<<<<<<<<<<<<<<<<<<<<<<<<<<<//

   => Loading Basis Set <=

    Name: (6-31G* AUX)
    Role: RIFIT
    Keyword: DF_BASIS_MP2
    atoms 1-12  entry C          line   159 file /home/daniele/anaconda3/envs/poltype/share/psi4/basis/cc-pvdz-ri.gbs 
    atoms 13-22 entry H          line    19 file /home/daniele/anaconda3/envs/poltype/share/psi4/basis/cc-pvdz-ri.gbs 

	 --------------------------------------------------------
	                          DF-MP2                         
	      2nd-Order Density-Fitted Moller-Plesset Theory     
	              RMP2 Wavefunction,   3 Threads             
	                                                         
	        Rob Parrish, Justin Turney, Andy Simmonett,      
	           Ed Hohenstein, and C. David Sherrill          
	 --------------------------------------------------------

   => Auxiliary Basis Set <=

  Basis Set: (6-31G* AUX)
    Blend: CC-PVDZ-RI
    Number of shells: 276
    Number of basis function: 812
    Number of Cartesian functions: 942
    Spherical Harmonics?: true
    Max angular momentum: 3

	 --------------------------------------------------------
	                 NBF =   200, NAUX =   812
	 --------------------------------------------------------
	   CLASS    FOCC     OCC    AOCC    AVIR     VIR    FVIR
	   PAIRS       0      41      41     159     159       0
	 --------------------------------------------------------

  DFHelper Memory: AOs need 0.341 GiB; user supplied 0.489 GiB. Using in-core AOs.


         ------------------------------------------------------------
                                     CPHF                           
                                  Rob Parrish                       
         ------------------------------------------------------------

  ==> Geometry <==

    Molecular point group: c1
    Full point group: C1

    Geometry (in Angstrom), charge = 0, multiplicity = 1:

       Center              X                  Y                   Z               Mass       
    ------------   -----------------  -----------------  -----------------  -----------------
         C            0.736752489425     0.047200010836    -0.021838178152    12.000000000000
         C           -0.736146334768    -0.052517215207     0.032871747553    12.000000000000
         C            1.359210305789     1.022540257829    -0.819931884447    12.000000000000
         C           -1.400118329385    -0.391670872118     1.228454778337    12.000000000000
         C            1.555152802751    -0.832026172314     0.714299909627    12.000000000000
         C           -1.515709560013     0.196807274758    -1.113777466147    12.000000000000
         C            2.745360080991     1.119531615467    -0.877809524053    12.000000000000
         C           -2.785422034557    -0.484462279274     1.275913893431    12.000000000000
         C            2.942947086362    -0.737008149118     0.660372430725    12.000000000000
         C           -2.901247893452     0.106553155530    -1.067216411913    12.000000000000
         C            3.545549271027     0.240094598970    -0.135592611490    12.000000000000
         C           -3.546996179266    -0.236196834470     0.126251473147    12.000000000000
         H            0.758718385507     1.733253957429    -1.389499899225     1.007825032230
         H           -0.818750462133    -0.558033236870     2.137760983714     1.007825032230
         H            1.094180485741    -1.616641579596     1.316190365031     1.007825032230
         H           -1.026660771034     0.442080692085    -2.056700243362     1.007825032230
         H            3.222244725605     1.883180443986    -1.492192163555     1.007825032230
         H           -3.279587997011    -0.738617856233     2.213213320042     1.007825032230
         H            3.550012693357    -1.436637107542     1.233636347782     1.007825032230
         H           -3.490564852825     0.293637637425    -1.965788940830     1.007825032230
         H            4.628192344098     0.318469463716    -0.182695563941     1.007825032230
         H           -4.629827276084    -0.306944681511     0.162284085818     1.007825032230

  Nuclear repulsion =  598.839895173350442
  Reference energy  = -460.249303725782624

  ==> Basis Set <==

  Basis Set: 6-31G*
    Blend: 6-31G*
    Number of shells: 92
    Number of basis function: 200
    Number of Cartesian functions: 200
    Spherical Harmonics?: false
    Max angular momentum: 2

  ==> CGRSolver (by Rob Parrish) <==

   Number of roots    =         1
   Preconditioning    =    JACOBI
   Convergence cutoff =     1E-06
   Maximum iterations =       100

  ==> CPHFRHamiltonian (by Rob Parrish) <== 

  ==> MemDFJK: Density-Fitted J/K Matrices <==

    J tasked:                   Yes
    K tasked:                   Yes
    wK tasked:                   No
    OpenMP threads:               3
    Memory [MiB]:               500
    Algorithm:                 Core
    Schwarz Cutoff:           1E-12
    Mask sparsity (%):      12.1200
    Fitting Condition:        1E-10

   => Auxiliary Basis Set <=

  Basis Set: (6-31G* AUX)
    Blend: CC-PVDZ-JKFIT
    Number of shells: 378
    Number of basis function: 1222
    Number of Cartesian functions: 1222
    Spherical Harmonics?: false
    Max angular momentum: 3

  ==> CPHF Iterations <==

  => Iterations <=

             Iter  Converged  Remaining    Residual
  CGR           1          0          1   7.896E-02
  CGR           2          0          1   1.227E-02
  CGR           3          0          1   4.593E-03
  CGR           4          0          1   1.995E-03
  CGR           5          0          1   9.316E-04
  CGR           6          0          1   3.016E-04
  CGR           7          0          1   8.271E-05
  CGR           8          0          1   2.244E-05
  CGR           9          0          1   4.661E-06
  CGR          10          0          1   1.574E-06
  CGR          11          1          0   7.104E-07

    CGRSolver converged.

  ==> DFCorrGrad: Density-Fitted Correlated Gradients <==

    OpenMP threads:              3
    Integrals threads:           3
    Memory [GiB]:            0.489
    Schwarz Cutoff:          0E+00
    Fitting Condition:       1E-10

   => Auxiliary Basis Set <=

  Basis Set: (6-31G* AUX)
    Blend: CC-PVDZ-JKFIT
    Number of shells: 378
    Number of basis function: 1222
    Number of Cartesian functions: 1222
    Spherical Harmonics?: false
    Max angular momentum: 3

	-----------------------------------------------------------
	 ==================> DF-MP2 Energies <==================== 
	-----------------------------------------------------------
	 Reference Energy          =    -460.2493037257826245 [Eh]
	 Singles Energy            =      -0.0000000000000000 [Eh]
	 Same-Spin Energy          =      -0.4234446102175565 [Eh]
	 Opposite-Spin Energy      =      -1.1537717220032038 [Eh]
	 Correlation Energy        =      -1.5772163322207602 [Eh]
	 Total Energy              =    -461.8265200580033820 [Eh]
	-----------------------------------------------------------
	 ================> DF-SCS-MP2 Energies <================== 
	-----------------------------------------------------------
	 SCS Same-Spin Scale       =       0.3333333333333333 [-]
	 SCS Opposite-Spin Scale   =       1.2000000000000000 [-]
	 SCS Same-Spin Energy      =      -0.1411482034058522 [Eh]
	 SCS Opposite-Spin Energy  =      -1.3845260664038446 [Eh]
	 SCS Correlation Energy    =      -1.5256742698096968 [Eh]
	 SCS Total Energy          =    -461.7749779955923373 [Eh]
	-----------------------------------------------------------


  -Total Gradient:
     Atom            X                  Y                   Z
    ------   -----------------  -----------------  -----------------
       1       -0.003259876097     0.000969337002    -0.000566567500
       2        0.004569700902     0.000126051086    -0.000007518119
       3        0.002106631450    -0.001952769908     0.000988788581
       4       -0.007667723978    -0.001022123470     0.000708814943
       5        0.005735645609    -0.000060725601     0.000545471348
       6       -0.005940642542     0.000533778267    -0.001297537077
       7       -0.007147519948     0.003900611021    -0.003046792384
       8        0.006270940505    -0.000565274890     0.003871800243
       9       -0.000917328092    -0.001499989336     0.001023323171
      10        0.006684331146     0.000933838964    -0.002620603292
      11        0.003114396980    -0.001485803634     0.001405894403
      12       -0.005043590069    -0.000070609396    -0.001221967709
      13        0.000360453934     0.001932849624    -0.002502511545
      14        0.001076492361    -0.000846021496     0.002733011232
      15       -0.000465879704    -0.001655182936     0.001716797368
      16        0.000110155438     0.001185841718    -0.001844599301
      17        0.002229632505     0.000856973477    -0.000669598495
      18       -0.000701852135    -0.000291633005     0.001522250481
      19        0.000154907717    -0.001393538749     0.001024078467
      20       -0.001694933148     0.000276501325    -0.001714537246
      21       -0.000334779771     0.000066048950    -0.000087974795
      22        0.000760836932     0.000061840987     0.000039977232


*** tstop() called on daniele-Precision-5750 at Mon May 31 16:25:40 2021
Module time:
	user time   =      47.12 seconds =       0.79 minutes
	system time =       2.68 seconds =       0.04 minutes
	total time  =         17 seconds =       0.28 minutes
Total time:
	user time   =     122.93 seconds =       2.05 minutes
	system time =       7.24 seconds =       0.12 minutes
	total time  =         45 seconds =       0.75 minutes

			-----------------------------------------
			 OPTKING 2.0: for geometry optimizations 
			  - R.A. King,  Bethel University        
			-----------------------------------------
	At level 1: Red. Int., RFO, no backsteps, dynamic trust

	Previous internal coordinate definitions found.
	---Fragment 1 Geometry and Gradient---
	 C           1.3922604273        0.0891950936       -0.0412681758
	 C          -1.3911149610       -0.0992431536        0.0621186001
	 C           2.5685352248        1.9323210396       -1.5494467031
	 C          -2.6458401858       -0.7401506796        2.3214430886
	 C           2.9388128804       -1.5723015949        1.3498312006
	 C          -2.8642759542        0.3719118488       -2.1047343757
	 C           5.1879786688        2.1156081420       -1.6588195908
	 C          -5.2636847891       -0.9155010259        2.4111278183
	 C           5.5613639949       -1.3927435541        1.2479230349
	 C          -5.4825639407        0.2013562818       -2.0167467351
	 C           6.7001170866        0.4537130363       -0.2562329004
	 C          -6.7028513469       -0.4463473288        0.2385807072
	 H           1.4337699550        3.2753752854       -2.6257742609
	 H          -1.5472141385       -1.0545299866        4.0397827809
	 H           2.0677014499       -3.0550098285        2.4872393189
	 H          -1.9401076810        0.8354114334       -3.8866001821
	 H           6.0891600406        3.5586952840       -2.8198345157
	 H          -6.1975231187       -1.3957854597        4.1823670321
	 H           6.7085517323       -2.7148506749        2.3312348357
	 H          -6.5962115950        0.5548947149       -3.7148027186
	 H           8.7460159863        0.6018200657       -0.3452445802
	 H          -8.7491055600       -0.5800413837        0.3066724767
	            -0.0032598761        0.0009693370       -0.0005665675
	             0.0045697009        0.0001260511       -0.0000075181
	             0.0021066315       -0.0019527699        0.0009887886
	            -0.0076677240       -0.0010221235        0.0007088149
	             0.0057356456       -0.0000607256        0.0005454713
	            -0.0059406425        0.0005337783       -0.0012975371
	            -0.0071475199        0.0039006110       -0.0030467924
	             0.0062709405       -0.0005652749        0.0038718002
	            -0.0009173281       -0.0014999893        0.0010233232
	             0.0066843311        0.0009338390       -0.0026206033
	             0.0031143970       -0.0014858036        0.0014058944
	            -0.0050435901       -0.0000706094       -0.0012219677
	             0.0003604539        0.0019328496       -0.0025025115
	             0.0010764924       -0.0008460215        0.0027330112
	            -0.0004658797       -0.0016551829        0.0017167974
	             0.0001101554        0.0011858417       -0.0018445993
	             0.0022296325        0.0008569735       -0.0006695985
	            -0.0007018521       -0.0002916330        0.0015222505
	             0.0001549077       -0.0013935387        0.0010240785
	            -0.0016949331        0.0002765013       -0.0017145372
	            -0.0003347798        0.0000660490       -0.0000879748
	             0.0007608369        0.0000618410        0.0000399772

	---Fragment 1 Intrafragment Coordinates---
	 - Coordinate -           - BOHR/RAD -       - ANG/DEG -
	 R(1,2)           =         2.791662	       1.477284
	 R(1,3)           =         2.656189	       1.405594
	 R(1,5)           =         2.662246	       1.408800
	 R(2,4)           =         2.662639	       1.409008
	 R(2,6)           =         2.662225	       1.408789
	 R(3,7)           =         2.628125	       1.390744
	 R(3,13)          =         2.061545	       1.090923
	 R(4,8)           =         2.625243	       1.389219
	 R(4,14)          =         2.063615	       1.092018
	 R(5,9)           =         2.630665	       1.392088
	 R(5,15)          =         2.061785	       1.091049
	 R(6,10)          =         2.625312	       1.389255
	 R(6,16)          =         2.060088	       1.090152
	 R(7,11)          =         2.648718	       1.401641
	 R(7,17)          =         2.059753	       1.089975
	 R(8,12)          =         2.647880	       1.401198
	 R(8,18)          =         2.059130	       1.089645
	 R(9,11)          =         2.639819	       1.396932
	 R(9,19)          =         2.058536	       1.089330
	 R(10,12)         =         2.644830	       1.399584
	 R(10,20)         =         2.061212	       1.090746
	 R(11,21)         =         2.053183	       1.086498
	 R(12,22)         =         2.051747	       1.085738
	 B(1,2,4)         =         2.114731	     121.165180
	 B(1,2,6)         =         2.105546	     120.638881
	 B(1,3,7)         =         2.109942	     120.890759
	 B(1,3,13)        =         2.099884	     120.314514
	 B(1,5,9)         =         2.113308	     121.083601
	 B(1,5,15)        =         2.084756	     119.447736
	 B(2,1,3)         =         2.105278	     120.623535
	 B(2,1,5)         =         2.114978	     121.179287
	 B(2,4,8)         =         2.111770	     120.995522
	 B(2,4,14)        =         2.085585	     119.495222
	 B(2,6,10)        =         2.109589	     120.870555
	 B(2,6,16)        =         2.089300	     119.708055
	 B(3,1,5)         =         2.062914	     118.196275
	 B(3,7,11)        =         2.098110	     120.212847
	 B(3,7,17)        =         2.104114	     120.556824
	 B(4,2,6)         =         2.062896	     118.195248
	 B(4,8,12)        =         2.096845	     120.140387
	 B(4,8,18)        =         2.091163	     119.814836
	 B(5,9,11)        =         2.094234	     119.990754
	 B(5,9,19)        =         2.084424	     119.428716
	 B(6,10,12)       =         2.099762	     120.307506
	 B(6,10,20)       =         2.094498	     120.005895
	 B(7,3,13)        =         2.073120	     118.781025
	 B(7,11,9)        =         2.087852	     119.625117
	 B(7,11,21)       =         2.095148	     120.043145
	 B(8,4,14)        =         2.085477	     119.489032
	 B(8,12,10)       =         2.085495	     119.490083
	 B(8,12,22)       =         2.098194	     120.217675
	 B(9,5,15)        =         2.084787	     119.449502
	 B(9,11,21)       =         2.100182	     120.331573
	 B(10,6,16)       =         2.084047	     119.407074
	 B(10,12,22)      =         2.099493	     120.292069
	 B(11,7,17)       =         2.080927	     119.228321
	 B(11,9,19)       =         2.104462	     120.576795
	 B(12,8,18)       =         2.095097	     120.040233
	 B(12,10,20)      =         2.088878	     119.683914
	 D(1,2,4,8)       =         3.141593	     180.000000
	 D(1,2,4,14)      =         0.028706	       1.644709
	 D(1,2,6,10)      =        -3.139737	    -179.893668
	 D(1,2,6,16)      =         0.026021	       1.490871
[...]
	 R(9,19)          =         2.054782	       1.087344
	 R(10,12)         =         2.637203	       1.395548
	 R(10,20)         =         2.054443	       1.087164
	 R(11,21)         =         2.053840	       1.086845
	 R(12,22)         =         2.054086	       1.086976
	 B(1,2,4)         =         2.105694	     120.647370
	 B(1,2,6)         =         2.104738	     120.592579
	 B(1,3,7)         =         2.104681	     120.589334
	 B(1,3,13)        =         2.082588	     119.323499
	 B(1,5,9)         =         2.105043	     120.610053
	 B(1,5,15)        =         2.083529	     119.377436
	 B(2,1,3)         =         2.104821	     120.597372
	 B(2,1,5)         =         2.105772	     120.651846
	 B(2,4,8)         =         2.104780	     120.595015
	 B(2,4,14)        =         2.083554	     119.378874
	 B(2,6,10)        =         2.104942	     120.604305
	 B(2,6,16)        =         2.083235	     119.360546
	 B(3,1,5)         =         2.072590	     118.750673
	 B(3,7,11)        =         2.098411	     120.230093
	 B(3,7,17)        =         2.088624	     119.669320
	 B(4,2,6)         =         2.072752	     118.759963
	 B(4,8,12)        =         2.098048	     120.209286
	 B(4,8,18)        =         2.089375	     119.712382
	 B(5,9,11)        =         2.098096	     120.212032
	 B(5,9,19)        =         2.089423	     119.715118
	 B(6,10,12)       =         2.097849	     120.197891
	 B(6,10,20)       =         2.089175	     119.700918
	 B(7,3,13)        =         2.095566	     120.067074
	 B(7,11,9)        =         2.087538	     119.607137
	 B(7,11,21)       =         2.097500	     120.177894
	 B(8,4,14)        =         2.094453	     120.003290
	 B(8,12,10)       =         2.087987	     119.632869
	 B(8,12,22)       =         2.097719	     120.190471
	 B(9,5,15)        =         2.094215	     119.989697
	 B(9,11,21)       =         2.098146	     120.214935
	 B(10,6,16)       =         2.094662	     120.015282
	 B(10,12,22)      =         2.097478	     120.176624
	 B(11,7,17)       =         2.096105	     120.097981
	 B(11,9,19)       =         2.095616	     120.069954
	 B(12,8,18)       =         2.095712	     120.075435
	 B(12,10,20)      =         2.096115	     120.098538
	 D(1,2,4,8)       =        -3.140319	    -179.927028
	 D(1,2,4,14)      =         0.031600	       1.810530
	 D(1,2,6,10)      =        -3.138754	    -179.837347
	 D(1,2,6,16)      =         0.031131	       1.783682
	 D(1,3,7,11)      =        -0.004017	      -0.230156
	 D(1,3,7,17)      =        -3.135369	    -179.643425
	 D(1,5,9,11)      =        -0.004264	      -0.244325
	 D(1,5,9,19)      =        -3.135061	    -179.625753
	 D(2,1,3,7)       =        -3.138533	    -179.824708
	 D(2,1,3,13)      =         0.031497	       1.804667
	 D(2,1,5,9)       =        -3.140523	    -179.938726
	 D(2,1,5,15)      =         0.031395	       1.798816
	 D(2,4,8,12)      =        -0.004281	      -0.245293
	 D(2,4,8,18)      =        -3.135076	    -179.626620
	 D(2,6,10,12)     =        -0.003965	      -0.227184
	 D(2,6,10,20)     =        -3.135227	    -179.635252
	 D(3,1,2,4)       =        -2.367430	    -135.643723
	 D(3,1,2,6)       =         0.772259	      44.247187
	 D(3,1,5,9)       =         0.003150	       0.180458
	 D(3,1,5,15)      =        -3.108117	    -178.082000
	 D(3,7,11,9)      =         0.002911	       0.166772
	 D(3,7,11,21)     =        -3.139842	    -179.899707
	 D(4,2,1,5)       =         0.776282	      44.477669
	 D(4,2,6,10)      =         0.000970	       0.055594
	 D(4,2,6,16)      =        -3.112330	    -178.323377
	 D(4,8,12,10)     =         0.001263	       0.072357
	 D(4,8,12,22)     =        -3.139147	    -179.859847
	 D(5,1,2,6)       =        -2.367215	    -135.631421
	 D(5,1,3,7)       =         0.000980	       0.056176
	 D(5,1,3,13)      =        -3.112174	    -178.314450
	 D(5,9,11,7)      =         0.001205	       0.069059
	 D(5,9,11,21)     =        -3.139227	    -179.864436
	 D(6,2,4,8)       =         0.003143	       0.180092
	 D(6,2,4,14)      =        -3.108123	    -178.082351
	 D(6,10,12,8)     =         0.002836	       0.162471
	 D(6,10,12,22)    =        -3.139940	    -179.905315
	 D(7,11,9,19)     =         3.131963	     179.448281
	 D(8,12,10,20)    =         3.134056	     179.568171
	 D(9,11,7,17)     =         3.134219	     179.577513
	 D(10,12,8,18)    =         3.132018	     179.451426
	 D(11,7,3,13)     =         3.108926	     178.128362
	 D(11,9,5,15)     =         3.106817	     178.007514
	 D(12,8,4,14)     =         3.106796	     178.006316
	 D(12,10,6,16)    =         3.109150	     178.141189
	 D(13,3,7,17)     =        -0.022426	      -1.284907
	 D(14,4,8,18)     =        -0.023998	      -1.375012
	 D(15,5,9,19)     =        -0.023979	      -1.373914
	 D(16,6,10,20)    =        -0.022111	      -1.266879
	 D(17,7,11,21)    =        -0.008534	      -0.488967
	 D(18,8,12,22)    =        -0.008391	      -0.480778
	 D(19,9,11,21)    =        -0.008469	      -0.485214
	 D(20,10,12,22)   =        -0.008720	      -0.499615

	Current energy   :      -461.8272789357

	Energy change for the previous step:
		Projected    :        -0.0001833084
		Actual       :        -0.0001149902

	Performing BFGS update.
	Previous computed or guess Hessian on step 1.
	Steps to be used in Hessian update: 3 2
	Taking RFO optimization step.
	Going to follow RFO solution 1.
	Using RFO vector 1.
	Norm of target step-size    0.01345
	Projected energy change by RFO approximation:         0.0000007415

	Back-transformation to cartesian coordinates...
	Could not converge backtransformation.
	Using first guess instead.

	--- Internal Coordinate Step in ANG or DEG, aJ/ANG or AJ/DEG ---
	 ---------------------------------------------------------------------------
	   Coordinate                Previous        Force       Change         New 
	   ----------                --------       ------       ------       ------
	    1 R(1,2)          =      1.474456     0.007943     0.001413     1.475869
	    2 R(1,3)          =      1.402403    -0.000724    -0.000162     1.402241
	    3 R(1,5)          =      1.402184    -0.000347    -0.000064     1.402119
	    4 R(2,4)          =      1.402281    -0.000872    -0.000143     1.402138
	    5 R(2,6)          =      1.402306    -0.000513    -0.000123     1.402183
	    6 R(3,7)          =      1.393469    -0.000450    -0.000059     1.393410
	    7 R(3,13)         =      1.088170    -0.002251    -0.000439     1.087730
	    8 R(4,8)          =      1.393591    -0.000808    -0.000115     1.393476
	    9 R(4,14)         =      1.087572     0.001320     0.000227     1.087799
	   10 R(5,9)          =      1.393601    -0.000936    -0.000130     1.393471
	   11 R(5,15)         =      1.087714     0.000554     0.000066     1.087780
	   12 R(6,10)         =      1.393547    -0.000653    -0.000098     1.393449
	   13 R(6,16)         =      1.087857    -0.000415    -0.000118     1.087739
	   14 R(7,11)         =      1.395534    -0.001641    -0.000239     1.395295
	   15 R(7,17)         =      1.087318     0.000008    -0.000030     1.087288
	   16 R(8,12)         =      1.395396    -0.000905    -0.000137     1.395259
	   17 R(8,18)         =      1.087130     0.000992     0.000173     1.087304
	   18 R(9,11)         =      1.395381    -0.000706    -0.000119     1.395261
	   19 R(9,19)         =      1.087344    -0.000211    -0.000060     1.087284
	   20 R(10,12)        =      1.395548    -0.001782    -0.000254     1.395294
	   21 R(10,20)        =      1.087164     0.000772     0.000119     1.087283
	   22 R(11,21)        =      1.086845     0.000539     0.000094     1.086940
	   23 R(12,22)        =      1.086976    -0.000114    -0.000031     1.086945
	   24 B(1,2,4)        =    120.647370    -0.000009    -0.028020   120.619350
	   25 B(1,2,6)        =    120.592579     0.000013     0.030889   120.623468
	   26 B(1,3,7)        =    120.589334     0.000005     0.015893   120.605227
	   27 B(1,3,13)       =    119.323499     0.000002     0.004090   119.327589
	   28 B(1,5,9)        =    120.610053    -0.000001    -0.004887   120.605166
	   29 B(1,5,15)       =    119.377436    -0.000007    -0.033880   119.343556
	   30 B(2,1,3)        =    120.597372     0.000012     0.027652   120.625024
	   31 B(2,1,5)        =    120.651846    -0.000011    -0.030919   120.620927
	   32 B(2,4,8)        =    120.595015     0.000003     0.007495   120.602511
	   33 B(2,4,14)       =    119.378874    -0.000008    -0.037908   119.340966
	   34 B(2,6,10)       =    120.604305     0.000001     0.001673   120.605978
	   35 B(2,6,16)       =    119.360546    -0.000004    -0.023687   119.336859
	   36 B(3,1,5)        =    118.750673    -0.000001     0.003363   118.754036
	   37 B(3,7,11)       =    120.230093    -0.000010    -0.037201   120.192892
	   38 B(3,7,17)       =    119.669320     0.000017     0.076762   119.746082
	   39 B(4,2,6)        =    118.759963    -0.000004    -0.002794   118.757169
	   40 B(4,8,12)       =    120.209286    -0.000004    -0.016047   120.193239
	   41 B(4,8,18)       =    119.712382     0.000008     0.038483   119.750866
	   42 B(5,9,11)       =    120.212032    -0.000004    -0.018199   120.193833
	   43 B(5,9,19)       =    119.715118     0.000007     0.036023   119.751141
	   44 B(6,10,12)      =    120.197891    -0.000001    -0.008758   120.189133
	   45 B(6,10,20)      =    119.700918     0.000011     0.050128   119.751046
	   46 B(7,3,13)       =    120.067074    -0.000007    -0.019502   120.047572
	   47 B(7,11,9)       =    119.607137     0.000011     0.041200   119.648336
	   48 B(7,11,21)      =    120.177894    -0.000003    -0.007568   120.170327
	   49 B(8,4,14)       =    120.003290     0.000005     0.034025   120.037315
	   50 B(8,12,10)      =    119.632869     0.000005     0.018586   119.651456
	   51 B(8,12,22)      =    120.190471    -0.000003    -0.013887   120.176585
	   52 B(9,5,15)       =    119.989697     0.000008     0.042507   120.032204
	   53 B(9,11,21)      =    120.214935    -0.000008    -0.033601   120.181335
	   54 B(10,6,16)      =    120.015282     0.000003     0.022354   120.037636
	   55 B(10,12,22)     =    120.176624    -0.000001    -0.004666   120.171958
	   56 B(11,7,17)      =    120.097981    -0.000008    -0.040129   120.057852
	   57 B(11,9,19)      =    120.069954    -0.000003    -0.017860   120.052094
	   58 B(12,8,18)      =    120.075435    -0.000005    -0.022448   120.052987
	   59 B(12,10,20)     =    120.098538    -0.000009    -0.041931   120.056607
	   60 D(1,2,4,8)      =   -179.927028     0.000000     0.053375  -179.873653
	   61 D(1,2,4,14)     =      1.810530    -0.000001    -0.090582     1.719948
	   62 D(1,2,6,10)     =   -179.837347    -0.000000    -0.075912  -179.913260
	   63 D(1,2,6,16)     =      1.783682    -0.000000    -0.090210     1.693472
	   64 D(1,3,7,11)     =     -0.230156     0.000000     0.010837    -0.219319
	   65 D(1,3,7,17)     =   -179.643425     0.000001     0.071842  -179.571583
	   66 D(1,5,9,11)     =     -0.244325     0.000000     0.038604    -0.205721
	   67 D(1,5,9,19)     =   -179.625753     0.000000     0.042509  -179.583244
	   68 D(2,1,3,7)      =   -179.824708    -0.000001    -0.089333  -179.914041
	   69 D(2,1,3,13)     =      1.804667    -0.000000    -0.108591     1.696075
	   70 D(2,1,5,9)      =   -179.938726     0.000000     0.064818  -179.873907
	   71 D(2,1,5,15)     =      1.798816    -0.000001    -0.084612     1.714204
	   72 D(2,4,8,12)     =     -0.245293     0.000000     0.041074    -0.204219
	   73 D(2,4,8,18)     =   -179.626620     0.000000     0.042372  -179.584248
	   74 D(2,6,10,12)    =     -0.227184     0.000000     0.004297    -0.222887
	   75 D(2,6,10,20)    =   -179.635252     0.000000     0.064167  -179.571085
	   76 D(3,1,2,4)      =   -135.643723     0.000000     0.114265  -135.529458
	   77 D(3,1,2,6)      =     44.247187     0.000001     0.264782    44.511969
	   78 D(3,1,5,9)      =      0.180458    -0.000001    -0.095190     0.085267
	   79 D(3,1,5,15)     =   -178.082000    -0.000001    -0.244621  -178.326621
	   80 D(3,7,11,9)     =      0.166772    -0.000000    -0.068664     0.098108
	   81 D(3,7,11,21)    =   -179.899707     0.000000     0.014786  -179.884922
	   82 D(4,2,1,5)      =     44.477669    -0.000001    -0.048720    44.428949
	   83 D(4,2,6,10)     =      0.055594     0.000000     0.071812     0.127407
	   84 D(4,2,6,16)     =   -178.323377     0.000000     0.057515  -178.265862
	   85 D(4,8,12,10)    =      0.072357     0.000000     0.036343     0.108700
	   86 D(4,8,12,22)    =   -179.859847    -0.000000    -0.045182  -179.905029
	   87 D(5,1,2,6)      =   -135.631421     0.000000     0.101797  -135.529624
	   88 D(5,1,3,7)      =      0.056176     0.000000     0.070610     0.126786
	   89 D(5,1,3,13)     =   -178.314450     0.000000     0.051352  -178.263098
	   90 D(5,9,11,7)     =      0.069059     0.000000     0.044069     0.113128
	   91 D(5,9,11,21)    =   -179.864436    -0.000000    -0.039407  -179.903844
	   92 D(6,2,4,8)      =      0.180092    -0.000001    -0.094409     0.085683
	   93 D(6,2,4,14)     =   -178.082351    -0.000001    -0.238365  -178.320717
	   94 D(6,10,12,8)    =      0.162471    -0.000000    -0.058909     0.103562
	   95 D(6,10,12,22)   =   -179.905315     0.000000     0.022606  -179.882710
	   96 D(7,11,9,19)    =    179.448281     0.000000     0.040487   179.488768
	   97 D(8,12,10,20)   =    179.568171    -0.000001    -0.118414   179.449757
	   98 D(9,11,7,17)    =    179.577513    -0.000001    -0.129171   179.448342
	   99 D(10,12,8,18)   =    179.451426     0.000000     0.035421   179.486847
	  100 D(11,7,3,13)    =    178.128362     0.000000     0.030623   178.158985
	  101 D(11,9,5,15)    =    178.007514     0.000001     0.187731   178.195245
	  102 D(12,8,4,14)    =    178.006316     0.000001     0.184781   178.191097
	  103 D(12,10,6,16)   =    178.141189    -0.000000     0.017947   178.159136
	  104 D(13,3,7,17)    =     -1.284907     0.000001     0.091627    -1.193279
	  105 D(14,4,8,18)    =     -1.375012     0.000001     0.186079    -1.188933
	  106 D(15,5,9,19)    =     -1.373914     0.000001     0.191637    -1.182278
	  107 D(16,6,10,20)   =     -1.266879     0.000000     0.077817    -1.189062
	  108 D(17,7,11,21)   =     -0.488967    -0.000000    -0.045721    -0.534688
	  109 D(18,8,12,22)   =     -0.480778    -0.000000    -0.046104    -0.526882
	  110 D(19,9,11,21)   =     -0.485214    -0.000000    -0.042990    -0.528204
	  111 D(20,10,12,22)  =     -0.499615    -0.000000    -0.036900    -0.536514
	 ---------------------------------------------------------------------------
	Successfully symmetrized geometry.

  ==> Convergence Check <==

  Measures of convergence in internal coordinates in au.
  Criteria marked as inactive (o), active & met (*), and active & unmet ( ).
  ---------------------------------------------------------------------------------------------
   Step     Total Energy     Delta E     MAX Force     RMS Force      MAX Disp      RMS Disp   
  ---------------------------------------------------------------------------------------------
    Convergence Criteria             o    2.50e-03 *    1.70e-03 *    1.00e-02 *    6.70e-03 *
  ---------------------------------------------------------------------------------------------
      4    -461.82727894   -1.15e-04 o    9.64e-04 *    1.21e-04 *    4.62e-03 *    1.28e-03 *  ~
  ---------------------------------------------------------------------------------------------


  **** Optimization is complete! (in 4 steps) ****

  ==> Optimization Summary <==

  Measures of convergence in internal coordinates in au.
  --------------------------------------------------------------------------------------------------------------- ~
   Step         Total Energy             Delta E       MAX Force       RMS Force        MAX Disp        RMS Disp  ~
  --------------------------------------------------------------------------------------------------------------- ~
      1    -461.818471517342   -461.818471517342      0.02615490      0.00722790      0.09536957      0.02981125  ~
      2    -461.826520058003     -0.008048540661      0.00560582      0.00158350      0.12447854      0.02272079  ~
      3    -461.827163945538     -0.000643887535      0.00329620      0.00078665      0.03248710      0.00656706  ~
      4    -461.827278935733     -0.000114990194      0.00096408      0.00012094      0.00462131      0.00127686  ~
  --------------------------------------------------------------------------------------------------------------- ~

	Writing optimization data to binary file.
	Final energy is   -461.8272789357328
	Final (previous) structure:
	Cartesian Geometry (in Angstrom)
	    C     0.7350943894   0.0489753583  -0.0259436904
	    C    -0.7350329723  -0.0500825028   0.0282195255
	    C     1.3550661346   1.0755983855  -0.7528650776
	    C    -1.3899550953  -0.3069424095   1.2412698124
	    C     1.5395729827  -0.8824450042   0.6459113471
	    C    -1.5045803129   0.1131875417  -1.1326434100
	    C     2.7444874113   1.1669245478  -0.8069266059
	    C    -2.7794231604  -0.4018483304   1.2909416149
	    C     2.9289927597  -0.7872504108   0.5951752099
	    C    -2.8942485295   0.0229606303  -1.0811303653
	    C     3.5365289008   0.2371460346  -0.1318727398
	    C    -3.5363923296  -0.2365393742   0.1304241642
	    H     0.7398519779   1.8195755845  -1.2549830333
	    H    -0.8052673242  -0.4040878210   2.1531450249
	    H     1.0700874606  -1.7010654536   1.1868048030
	    H    -1.0053229942   0.2854952835  -2.0836877899
	    H     3.2094088811   1.9724125797  -1.3702189550
	    H    -3.2726997497  -0.5953967307   2.2401885097
	    H     3.5389121240  -1.5210252450   1.1166051653
	    H    -3.4761396630   0.1460819747  -1.9911687154
	    H     4.6201296115   0.3101371300  -0.1732793360
	    H    -4.6202721983  -0.3083702981   0.1699290611
	Saving final (previous) structure.
			--------------------------
			 OPTKING Finished Execution 
			--------------------------

    Final optimized geometry and variables:
    Molecular point group: c1
    Full point group: C1

    Geometry (in Angstrom), charge = 0, multiplicity = 1:

    C            0.735094392323     0.048975358468    -0.025943690524
    C           -0.735032975173    -0.050082502964     0.028219525646
    C            1.355066139905     1.075598389761    -0.752865080535
    C           -1.389955100793    -0.306942410704     1.241269817311
    C            1.539572988733    -0.882445007665     0.645911349674
    C           -1.504580318863     0.113187542113    -1.132643414471
    C            2.744487422104     1.166924552388    -0.806926609084
    C           -2.779423171373    -0.401848331930     1.290941620019
    C            2.928992771170    -0.787250413848     0.595175212230
    C           -2.894248540924     0.022960630425    -1.081130369530
    C            3.536528914712     0.237146035560    -0.131872740339
    C           -3.536392343513    -0.236539375155     0.130424164730
    H            0.739851980834     1.819575591628    -1.254983038226
    H           -0.805267327353    -0.404087822605     2.153145033402
    H            1.070087464849    -1.701065460252     1.186804807639
    H           -1.005322998136     0.285495284577    -2.083687798109
    H            3.209408893681     1.972412587406    -1.370218960355
    H           -3.272699762567    -0.595396732996     2.240188518460
    H            3.538912137899    -1.521025250975     1.116605169723
    H           -3.476139676652     0.146081975260    -1.991168723186
    H            4.620129629686     0.310137131207    -0.173279336690
    H           -4.620272216464    -0.308370299295     0.169929061740

	Removing binary optimization data file.
	Cleaning optimization helper files.

    Psi4 stopped on: Monday, 31 May 2021 04:26PM
    Psi4 wall time for execution: 0:01:26.72

*** Psi4 exiting successfully. Buy a developer a beer!
