Generated by Psi4
        SP                        DF-MP2                      6-311G**
Number of atoms                            I               22
Charge                                     I                0
Multiplicity                               I                1
Number of electrons                        I               82
Number of alpha electrons                  I               41
Number of beta electrons                   I               41
Number of basis functions                  I              276
Number of independent functions            I              276
Atomic numbers                             I   N=          22
           6           6           6           6           6           6
           6           6           6           6           6           6
           1           1           1           1           1           1
           1           1           1           1
Nuclear charges                            R   N=          22
  6.00000000e+00  6.00000000e+00  6.00000000e+00  6.00000000e+00  6.00000000e+00
  6.00000000e+00  6.00000000e+00  6.00000000e+00  6.00000000e+00  6.00000000e+00
  6.00000000e+00  6.00000000e+00  1.00000000e+00  1.00000000e+00  1.00000000e+00
  1.00000000e+00  1.00000000e+00  1.00000000e+00  1.00000000e+00  1.00000000e+00
  1.00000000e+00  1.00000000e+00
Current cartesian coordinates              R   N=          66
  1.38912708e+00  9.25500144e-02 -4.90264698e-02 -1.38901102e+00 -9.46422143e-02
  5.33271749e-02  2.56070389e+00  2.03258638e+00 -1.42270881e+00 -2.62663447e+00
 -5.80037093e-01  2.34566000e+00  2.90937130e+00 -1.66757939e+00  1.22059555e+00
 -2.84324474e+00  2.13893455e-01 -2.14038585e+00  5.18632958e+00  2.20516781e+00
 -1.52487029e+00 -5.25234858e+00 -7.59383291e-01  2.43952611e+00  5.53499416e+00
 -1.48768767e+00  1.12471815e+00 -5.46933708e+00  4.33893032e-02 -2.04304030e+00
  6.68307108e+00  4.48141059e-01 -2.49203363e-01 -6.68281300e+00 -4.46994637e-01
  2.46465951e-01  1.39811762e+00  3.43849953e+00 -2.37157423e+00 -1.52173471e+00
 -7.63615315e-01  4.06885442e+00  2.02217224e+00 -3.21454784e+00  2.24273605e+00
 -1.89978513e+00  5.39507898e-01 -3.93759927e+00  6.06490383e+00  3.72731960e+00
 -2.58933857e+00 -6.18450624e+00 -1.12513676e+00  4.23334277e+00  6.68757472e+00
 -2.87432115e+00  2.11007796e+00 -6.56895196e+00  2.76054925e-01 -3.76276356e+00
  8.73077966e+00  5.86074239e-01 -3.27450490e-01 -8.73104911e+00 -5.82735411e-01
  3.21119387e-01
Integer atomic weights                     I   N=          22
          12          12          12          12          12          12
          12          12          12          12          12          12
           1           1           1           1           1           1
           1           1           1           1
Real atomic weights                        R   N=          22
  1.20000000e+01  1.20000000e+01  1.20000000e+01  1.20000000e+01  1.20000000e+01
  1.20000000e+01  1.20000000e+01  1.20000000e+01  1.20000000e+01  1.20000000e+01
  1.20000000e+01  1.20000000e+01  1.00782503e+00  1.00782503e+00  1.00782503e+00
  1.00782503e+00  1.00782503e+00  1.00782503e+00  1.00782503e+00  1.00782503e+00
  1.00782503e+00  1.00782503e+00
Number of primitive shells                 I              264
Number of contracted shells                I              136
Pure/Cartesian d shells                    I                0
Pure/Cartesian f shells                    I                0
Highest angular momentum                   I                2
Largest degree of contraction              I                6
Shell types                                I   N=         136
           0           0           1           0           1           0
           1          -2           0           0           1           0
           1           0           1          -2           0           0
           1           0           1           0           1          -2
           0           0           1           0           1           0
           1          -2           0           0           1           0
           1           0           1          -2           0           0
           1           0           1           0           1          -2
           0           0           1           0           1           0
           1          -2           0           0           1           0
           1           0           1          -2           0           0
           1           0           1           0           1          -2
           0           0           1           0           1           0
           1          -2           0           0           1           0
           1           0           1          -2           0           0
           1           0           1           0           1          -2
           0           0           0           1           0           0
           0           1           0           0           0           1
           0           0           0           1           0           0
           0           1           0           0           0           1
           0           0           0           1           0           0
           0           1           0           0           0           1
           0           0           0           1
Number of primitives per shell             I   N=         136
           6           3           3           1           1           1
           1           1           6           3           3           1
           1           1           1           1           6           3
           3           1           1           1           1           1
           6           3           3           1           1           1
           1           1           6           3           3           1
           1           1           1           1           6           3
           3           1           1           1           1           1
           6           3           3           1           1           1
           1           1           6           3           3           1
           1           1           1           1           6           3
           3           1           1           1           1           1
           6           3           3           1           1           1
           1           1           6           3           3           1
           1           1           1           1           6           3
           3           1           1           1           1           1
           3           1           1           1           3           1
           1           1           3           1           1           1
           3           1           1           1           3           1
           1           1           3           1           1           1
           3           1           1           1           3           1
           1           1           3           1           1           1
           3           1           1           1
Shell to atom map                          I   N=         136
           1           1           1           1           1           1
           1           1           2           2           2           2
           2           2           2           2           3           3
           3           3           3           3           3           3
           4           4           4           4           4           4
           4           4           5           5           5           5
           5           5           5           5           6           6
           6           6           6           6           6           6
           7           7           7           7           7           7
           7           7           8           8           8           8
           8           8           8           8           9           9
           9           9           9           9           9           9
          10          10          10          10          10          10
          10          10          11          11          11          11
          11          11          11          11          12          12
          12          12          12          12          12          12
          13          13          13          13          14          14
          14          14          15          15          15          15
          16          16          16          16          17          17
          17          17          18          18          18          18
          19          19          19          19          20          20
          20          20          21          21          21          21
          22          22          22          22
Primitive exponents                        R   N=         264
  4.56324000e+03  6.82024000e+02  1.54973000e+02  4.44553000e+01  1.30290000e+01
  1.82773000e+00  2.09642000e+01  4.80331000e+00  1.45933000e+00  2.09642000e+01
  4.80331000e+00  1.45933000e+00  4.83456000e-01  4.83456000e-01  1.45585000e-01
  1.45585000e-01  6.26000000e-01  4.56324000e+03  6.82024000e+02  1.54973000e+02
  4.44553000e+01  1.30290000e+01  1.82773000e+00  2.09642000e+01  4.80331000e+00
  1.45933000e+00  2.09642000e+01  4.80331000e+00  1.45933000e+00  4.83456000e-01
  4.83456000e-01  1.45585000e-01  1.45585000e-01  6.26000000e-01  4.56324000e+03
  6.82024000e+02  1.54973000e+02  4.44553000e+01  1.30290000e+01  1.82773000e+00
  2.09642000e+01  4.80331000e+00  1.45933000e+00  2.09642000e+01  4.80331000e+00
  1.45933000e+00  4.83456000e-01  4.83456000e-01  1.45585000e-01  1.45585000e-01
  6.26000000e-01  4.56324000e+03  6.82024000e+02  1.54973000e+02  4.44553000e+01
  1.30290000e+01  1.82773000e+00  2.09642000e+01  4.80331000e+00  1.45933000e+00
  2.09642000e+01  4.80331000e+00  1.45933000e+00  4.83456000e-01  4.83456000e-01
  1.45585000e-01  1.45585000e-01  6.26000000e-01  4.56324000e+03  6.82024000e+02
  1.54973000e+02  4.44553000e+01  1.30290000e+01  1.82773000e+00  2.09642000e+01
  4.80331000e+00  1.45933000e+00  2.09642000e+01  4.80331000e+00  1.45933000e+00
  4.83456000e-01  4.83456000e-01  1.45585000e-01  1.45585000e-01  6.26000000e-01
  4.56324000e+03  6.82024000e+02  1.54973000e+02  4.44553000e+01  1.30290000e+01
  1.82773000e+00  2.09642000e+01  4.80331000e+00  1.45933000e+00  2.09642000e+01
  4.80331000e+00  1.45933000e+00  4.83456000e-01  4.83456000e-01  1.45585000e-01
  1.45585000e-01  6.26000000e-01  4.56324000e+03  6.82024000e+02  1.54973000e+02
  4.44553000e+01  1.30290000e+01  1.82773000e+00  2.09642000e+01  4.80331000e+00
  1.45933000e+00  2.09642000e+01  4.80331000e+00  1.45933000e+00  4.83456000e-01
  4.83456000e-01  1.45585000e-01  1.45585000e-01  6.26000000e-01  4.56324000e+03
  6.82024000e+02  1.54973000e+02  4.44553000e+01  1.30290000e+01  1.82773000e+00
  2.09642000e+01  4.80331000e+00  1.45933000e+00  2.09642000e+01  4.80331000e+00
  1.45933000e+00  4.83456000e-01  4.83456000e-01  1.45585000e-01  1.45585000e-01
  6.26000000e-01  4.56324000e+03  6.82024000e+02  1.54973000e+02  4.44553000e+01
  1.30290000e+01  1.82773000e+00  2.09642000e+01  4.80331000e+00  1.45933000e+00
  2.09642000e+01  4.80331000e+00  1.45933000e+00  4.83456000e-01  4.83456000e-01
  1.45585000e-01  1.45585000e-01  6.26000000e-01  4.56324000e+03  6.82024000e+02
  1.54973000e+02  4.44553000e+01  1.30290000e+01  1.82773000e+00  2.09642000e+01
  4.80331000e+00  1.45933000e+00  2.09642000e+01  4.80331000e+00  1.45933000e+00
  4.83456000e-01  4.83456000e-01  1.45585000e-01  1.45585000e-01  6.26000000e-01
  4.56324000e+03  6.82024000e+02  1.54973000e+02  4.44553000e+01  1.30290000e+01
  1.82773000e+00  2.09642000e+01  4.80331000e+00  1.45933000e+00  2.09642000e+01
  4.80331000e+00  1.45933000e+00  4.83456000e-01  4.83456000e-01  1.45585000e-01
  1.45585000e-01  6.26000000e-01  4.56324000e+03  6.82024000e+02  1.54973000e+02
  4.44553000e+01  1.30290000e+01  1.82773000e+00  2.09642000e+01  4.80331000e+00
  1.45933000e+00  2.09642000e+01  4.80331000e+00  1.45933000e+00  4.83456000e-01
  4.83456000e-01  1.45585000e-01  1.45585000e-01  6.26000000e-01  3.38650000e+01
  5.09479000e+00  1.15879000e+00  3.25840000e-01  1.02741000e-01  7.50000000e-01
  3.38650000e+01  5.09479000e+00  1.15879000e+00  3.25840000e-01  1.02741000e-01
  7.50000000e-01  3.38650000e+01  5.09479000e+00  1.15879000e+00  3.25840000e-01
  1.02741000e-01  7.50000000e-01  3.38650000e+01  5.09479000e+00  1.15879000e+00
  3.25840000e-01  1.02741000e-01  7.50000000e-01  3.38650000e+01  5.09479000e+00
  1.15879000e+00  3.25840000e-01  1.02741000e-01  7.50000000e-01  3.38650000e+01
  5.09479000e+00  1.15879000e+00  3.25840000e-01  1.02741000e-01  7.50000000e-01
  3.38650000e+01  5.09479000e+00  1.15879000e+00  3.25840000e-01  1.02741000e-01
  7.50000000e-01  3.38650000e+01  5.09479000e+00  1.15879000e+00  3.25840000e-01
  1.02741000e-01  7.50000000e-01  3.38650000e+01  5.09479000e+00  1.15879000e+00
  3.25840000e-01  1.02741000e-01  7.50000000e-01  3.38650000e+01  5.09479000e+00
  1.15879000e+00  3.25840000e-01  1.02741000e-01  7.50000000e-01
Contraction coefficients                   R   N=         264
  1.96665025e-03  1.52306019e-02  7.61269097e-02  2.60801033e-01  6.16462078e-01
  2.21006028e-01  1.14660081e-01  9.19999648e-01 -3.03068213e-03  4.02486927e-02
  2.37593957e-01  8.15853851e-01  1.00000000e+00  1.00000000e+00  1.00000000e+00
  1.00000000e+00  1.00000000e+00  1.96665025e-03  1.52306019e-02  7.61269097e-02
  2.60801033e-01  6.16462078e-01  2.21006028e-01  1.14660081e-01  9.19999648e-01
 -3.03068213e-03  4.02486927e-02  2.37593957e-01  8.15853851e-01  1.00000000e+00
  1.00000000e+00  1.00000000e+00  1.00000000e+00  1.00000000e+00  1.96665025e-03
  1.52306019e-02  7.61269097e-02  2.60801033e-01  6.16462078e-01  2.21006028e-01
  1.14660081e-01  9.19999648e-01 -3.03068213e-03  4.02486927e-02  2.37593957e-01
  8.15853851e-01  1.00000000e+00  1.00000000e+00  1.00000000e+00  1.00000000e+00
  1.00000000e+00  1.96665025e-03  1.52306019e-02  7.61269097e-02  2.60801033e-01
  6.16462078e-01  2.21006028e-01  1.14660081e-01  9.19999648e-01 -3.03068213e-03
  4.02486927e-02  2.37593957e-01  8.15853851e-01  1.00000000e+00  1.00000000e+00
  1.00000000e+00  1.00000000e+00  1.00000000e+00  1.96665025e-03  1.52306019e-02
  7.61269097e-02  2.60801033e-01  6.16462078e-01  2.21006028e-01  1.14660081e-01
  9.19999648e-01 -3.03068213e-03  4.02486927e-02  2.37593957e-01  8.15853851e-01
  1.00000000e+00  1.00000000e+00  1.00000000e+00  1.00000000e+00  1.00000000e+00
  1.96665025e-03  1.52306019e-02  7.61269097e-02  2.60801033e-01  6.16462078e-01
  2.21006028e-01  1.14660081e-01  9.19999648e-01 -3.03068213e-03  4.02486927e-02
  2.37593957e-01  8.15853851e-01  1.00000000e+00  1.00000000e+00  1.00000000e+00
  1.00000000e+00  1.00000000e+00  1.96665025e-03  1.52306019e-02  7.61269097e-02
  2.60801033e-01  6.16462078e-01  2.21006028e-01  1.14660081e-01  9.19999648e-01
 -3.03068213e-03  4.02486927e-02  2.37593957e-01  8.15853851e-01  1.00000000e+00
  1.00000000e+00  1.00000000e+00  1.00000000e+00  1.00000000e+00  1.96665025e-03
  1.52306019e-02  7.61269097e-02  2.60801033e-01  6.16462078e-01  2.21006028e-01
  1.14660081e-01  9.19999648e-01 -3.03068213e-03  4.02486927e-02  2.37593957e-01
  8.15853851e-01  1.00000000e+00  1.00000000e+00  1.00000000e+00  1.00000000e+00
  1.00000000e+00  1.96665025e-03  1.52306019e-02  7.61269097e-02  2.60801033e-01
  6.16462078e-01  2.21006028e-01  1.14660081e-01  9.19999648e-01 -3.03068213e-03
  4.02486927e-02  2.37593957e-01  8.15853851e-01  1.00000000e+00  1.00000000e+00
  1.00000000e+00  1.00000000e+00  1.00000000e+00  1.96665025e-03  1.52306019e-02
  7.61269097e-02  2.60801033e-01  6.16462078e-01  2.21006028e-01  1.14660081e-01
  9.19999648e-01 -3.03068213e-03  4.02486927e-02  2.37593957e-01  8.15853851e-01
  1.00000000e+00  1.00000000e+00  1.00000000e+00  1.00000000e+00  1.00000000e+00
  1.96665025e-03  1.52306019e-02  7.61269097e-02  2.60801033e-01  6.16462078e-01
  2.21006028e-01  1.14660081e-01  9.19999648e-01 -3.03068213e-03  4.02486927e-02
  2.37593957e-01  8.15853851e-01  1.00000000e+00  1.00000000e+00  1.00000000e+00
  1.00000000e+00  1.00000000e+00  1.96665025e-03  1.52306019e-02  7.61269097e-02
  2.60801033e-01  6.16462078e-01  2.21006028e-01  1.14660081e-01  9.19999648e-01
 -3.03068213e-03  4.02486927e-02  2.37593957e-01  8.15853851e-01  1.00000000e+00
  1.00000000e+00  1.00000000e+00  1.00000000e+00  1.00000000e+00  2.54938145e-02
  1.90373109e-01  8.52161486e-01  1.00000000e+00  1.00000000e+00  1.00000000e+00
  2.54938145e-02  1.90373109e-01  8.52161486e-01  1.00000000e+00  1.00000000e+00
  1.00000000e+00  2.54938145e-02  1.90373109e-01  8.52161486e-01  1.00000000e+00
  1.00000000e+00  1.00000000e+00  2.54938145e-02  1.90373109e-01  8.52161486e-01
  1.00000000e+00  1.00000000e+00  1.00000000e+00  2.54938145e-02  1.90373109e-01
  8.52161486e-01  1.00000000e+00  1.00000000e+00  1.00000000e+00  2.54938145e-02
  1.90373109e-01  8.52161486e-01  1.00000000e+00  1.00000000e+00  1.00000000e+00
  2.54938145e-02  1.90373109e-01  8.52161486e-01  1.00000000e+00  1.00000000e+00
  1.00000000e+00  2.54938145e-02  1.90373109e-01  8.52161486e-01  1.00000000e+00
  1.00000000e+00  1.00000000e+00  2.54938145e-02  1.90373109e-01  8.52161486e-01
  1.00000000e+00  1.00000000e+00  1.00000000e+00  2.54938145e-02  1.90373109e-01
  8.52161486e-01  1.00000000e+00  1.00000000e+00  1.00000000e+00
Coordinates of each shell                  R   N=         408
  1.38912708e+00  9.25500144e-02 -4.90264698e-02  1.38912708e+00  9.25500144e-02
 -4.90264698e-02  1.38912708e+00  9.25500144e-02 -4.90264698e-02  1.38912708e+00
  9.25500144e-02 -4.90264698e-02  1.38912708e+00  9.25500144e-02 -4.90264698e-02
  1.38912708e+00  9.25500144e-02 -4.90264698e-02  1.38912708e+00  9.25500144e-02
 -4.90264698e-02  1.38912708e+00  9.25500144e-02 -4.90264698e-02 -1.38901102e+00
 -9.46422143e-02  5.33271749e-02 -1.38901102e+00 -9.46422143e-02  5.33271749e-02
 -1.38901102e+00 -9.46422143e-02  5.33271749e-02 -1.38901102e+00 -9.46422143e-02
  5.33271749e-02 -1.38901102e+00 -9.46422143e-02  5.33271749e-02 -1.38901102e+00
 -9.46422143e-02  5.33271749e-02 -1.38901102e+00 -9.46422143e-02  5.33271749e-02
 -1.38901102e+00 -9.46422143e-02  5.33271749e-02  2.56070389e+00  2.03258638e+00
 -1.42270881e+00  2.56070389e+00  2.03258638e+00 -1.42270881e+00  2.56070389e+00
  2.03258638e+00 -1.42270881e+00  2.56070389e+00  2.03258638e+00 -1.42270881e+00
  2.56070389e+00  2.03258638e+00 -1.42270881e+00  2.56070389e+00  2.03258638e+00
 -1.42270881e+00  2.56070389e+00  2.03258638e+00 -1.42270881e+00  2.56070389e+00
  2.03258638e+00 -1.42270881e+00 -2.62663447e+00 -5.80037093e-01  2.34566000e+00
 -2.62663447e+00 -5.80037093e-01  2.34566000e+00 -2.62663447e+00 -5.80037093e-01
  2.34566000e+00 -2.62663447e+00 -5.80037093e-01  2.34566000e+00 -2.62663447e+00
 -5.80037093e-01  2.34566000e+00 -2.62663447e+00 -5.80037093e-01  2.34566000e+00
 -2.62663447e+00 -5.80037093e-01  2.34566000e+00 -2.62663447e+00 -5.80037093e-01
  2.34566000e+00  2.90937130e+00 -1.66757939e+00  1.22059555e+00  2.90937130e+00
 -1.66757939e+00  1.22059555e+00  2.90937130e+00 -1.66757939e+00  1.22059555e+00
  2.90937130e+00 -1.66757939e+00  1.22059555e+00  2.90937130e+00 -1.66757939e+00
  1.22059555e+00  2.90937130e+00 -1.66757939e+00  1.22059555e+00  2.90937130e+00
 -1.66757939e+00  1.22059555e+00  2.90937130e+00 -1.66757939e+00  1.22059555e+00
 -2.84324474e+00  2.13893455e-01 -2.14038585e+00 -2.84324474e+00  2.13893455e-01
 -2.14038585e+00 -2.84324474e+00  2.13893455e-01 -2.14038585e+00 -2.84324474e+00
  2.13893455e-01 -2.14038585e+00 -2.84324474e+00  2.13893455e-01 -2.14038585e+00
 -2.84324474e+00  2.13893455e-01 -2.14038585e+00 -2.84324474e+00  2.13893455e-01
 -2.14038585e+00 -2.84324474e+00  2.13893455e-01 -2.14038585e+00  5.18632958e+00
  2.20516781e+00 -1.52487029e+00  5.18632958e+00  2.20516781e+00 -1.52487029e+00
  5.18632958e+00  2.20516781e+00 -1.52487029e+00  5.18632958e+00  2.20516781e+00
 -1.52487029e+00  5.18632958e+00  2.20516781e+00 -1.52487029e+00  5.18632958e+00
  2.20516781e+00 -1.52487029e+00  5.18632958e+00  2.20516781e+00 -1.52487029e+00
  5.18632958e+00  2.20516781e+00 -1.52487029e+00 -5.25234858e+00 -7.59383291e-01
  2.43952611e+00 -5.25234858e+00 -7.59383291e-01  2.43952611e+00 -5.25234858e+00
 -7.59383291e-01  2.43952611e+00 -5.25234858e+00 -7.59383291e-01  2.43952611e+00
 -5.25234858e+00 -7.59383291e-01  2.43952611e+00 -5.25234858e+00 -7.59383291e-01
  2.43952611e+00 -5.25234858e+00 -7.59383291e-01  2.43952611e+00 -5.25234858e+00
 -7.59383291e-01  2.43952611e+00  5.53499416e+00 -1.48768767e+00  1.12471815e+00
  5.53499416e+00 -1.48768767e+00  1.12471815e+00  5.53499416e+00 -1.48768767e+00
  1.12471815e+00  5.53499416e+00 -1.48768767e+00  1.12471815e+00  5.53499416e+00
 -1.48768767e+00  1.12471815e+00  5.53499416e+00 -1.48768767e+00  1.12471815e+00
  5.53499416e+00 -1.48768767e+00  1.12471815e+00  5.53499416e+00 -1.48768767e+00
  1.12471815e+00 -5.46933708e+00  4.33893032e-02 -2.04304030e+00 -5.46933708e+00
  4.33893032e-02 -2.04304030e+00 -5.46933708e+00  4.33893032e-02 -2.04304030e+00
 -5.46933708e+00  4.33893032e-02 -2.04304030e+00 -5.46933708e+00  4.33893032e-02
 -2.04304030e+00 -5.46933708e+00  4.33893032e-02 -2.04304030e+00 -5.46933708e+00
  4.33893032e-02 -2.04304030e+00 -5.46933708e+00  4.33893032e-02 -2.04304030e+00
  6.68307108e+00  4.48141059e-01 -2.49203363e-01  6.68307108e+00  4.48141059e-01
 -2.49203363e-01  6.68307108e+00  4.48141059e-01 -2.49203363e-01  6.68307108e+00
  4.48141059e-01 -2.49203363e-01  6.68307108e+00  4.48141059e-01 -2.49203363e-01
  6.68307108e+00  4.48141059e-01 -2.49203363e-01  6.68307108e+00  4.48141059e-01
 -2.49203363e-01  6.68307108e+00  4.48141059e-01 -2.49203363e-01 -6.68281300e+00
 -4.46994637e-01  2.46465951e-01 -6.68281300e+00 -4.46994637e-01  2.46465951e-01
 -6.68281300e+00 -4.46994637e-01  2.46465951e-01 -6.68281300e+00 -4.46994637e-01
  2.46465951e-01 -6.68281300e+00 -4.46994637e-01  2.46465951e-01 -6.68281300e+00
 -4.46994637e-01  2.46465951e-01 -6.68281300e+00 -4.46994637e-01  2.46465951e-01
 -6.68281300e+00 -4.46994637e-01  2.46465951e-01  1.39811762e+00  3.43849953e+00
 -2.37157423e+00  1.39811762e+00  3.43849953e+00 -2.37157423e+00  1.39811762e+00
  3.43849953e+00 -2.37157423e+00  1.39811762e+00  3.43849953e+00 -2.37157423e+00
 -1.52173471e+00 -7.63615315e-01  4.06885442e+00 -1.52173471e+00 -7.63615315e-01
  4.06885442e+00 -1.52173471e+00 -7.63615315e-01  4.06885442e+00 -1.52173471e+00
 -7.63615315e-01  4.06885442e+00  2.02217224e+00 -3.21454784e+00  2.24273605e+00
  2.02217224e+00 -3.21454784e+00  2.24273605e+00  2.02217224e+00 -3.21454784e+00
  2.24273605e+00  2.02217224e+00 -3.21454784e+00  2.24273605e+00 -1.89978513e+00
  5.39507898e-01 -3.93759927e+00 -1.89978513e+00  5.39507898e-01 -3.93759927e+00
 -1.89978513e+00  5.39507898e-01 -3.93759927e+00 -1.89978513e+00  5.39507898e-01
 -3.93759927e+00  6.06490383e+00  3.72731960e+00 -2.58933857e+00  6.06490383e+00
  3.72731960e+00 -2.58933857e+00  6.06490383e+00  3.72731960e+00 -2.58933857e+00
  6.06490383e+00  3.72731960e+00 -2.58933857e+00 -6.18450624e+00 -1.12513676e+00
  4.23334277e+00 -6.18450624e+00 -1.12513676e+00  4.23334277e+00 -6.18450624e+00
 -1.12513676e+00  4.23334277e+00 -6.18450624e+00 -1.12513676e+00  4.23334277e+00
  6.68757472e+00 -2.87432115e+00  2.11007796e+00  6.68757472e+00 -2.87432115e+00
  2.11007796e+00  6.68757472e+00 -2.87432115e+00  2.11007796e+00  6.68757472e+00
 -2.87432115e+00  2.11007796e+00 -6.56895196e+00  2.76054925e-01 -3.76276356e+00
 -6.56895196e+00  2.76054925e-01 -3.76276356e+00 -6.56895196e+00  2.76054925e-01
 -3.76276356e+00 -6.56895196e+00  2.76054925e-01 -3.76276356e+00  8.73077966e+00
  5.86074239e-01 -3.27450490e-01  8.73077966e+00  5.86074239e-01 -3.27450490e-01
  8.73077966e+00  5.86074239e-01 -3.27450490e-01  8.73077966e+00  5.86074239e-01
 -3.27450490e-01 -8.73104911e+00 -5.82735411e-01  3.21119387e-01 -8.73104911e+00
 -5.82735411e-01  3.21119387e-01 -8.73104911e+00 -5.82735411e-01  3.21119387e-01
 -8.73104911e+00 -5.82735411e-01  3.21119387e-01
Total Energy                               R     -4.619903929490560e+02
Alpha Orbital Energies                     R   N=         276
 -1.12452082e+01 -1.12444412e+01 -1.12369239e+01 -1.12369135e+01 -1.12366386e+01
 -1.12366252e+01 -1.12347607e+01 -1.12347579e+01 -1.12345906e+01 -1.12345832e+01
 -1.12342638e+01 -1.12342623e+01 -1.16944966e+00 -1.14014265e+00 -1.05375068e+00
 -1.01892306e+00 -1.01075209e+00 -9.81552550e-01 -8.51536751e-01 -8.40992667e-01
 -8.10775712e-01 -7.88730539e-01 -7.17452160e-01 -6.80754667e-01 -6.53152791e-01
 -6.38662425e-01 -6.15426016e-01 -6.08090397e-01 -5.90196144e-01 -5.84217932e-01
 -5.82669562e-01 -5.20667807e-01 -5.13631491e-01 -5.03021744e-01 -4.89301796e-01
 -4.83662291e-01 -4.83584511e-01 -3.64847719e-01 -3.37883520e-01 -3.36077203e-01
 -3.01723298e-01  1.01428759e-01  1.29048605e-01  1.29320720e-01  1.55362693e-01
  1.62102822e-01  1.66760174e-01  1.78225073e-01  1.91359131e-01  1.92486025e-01
  2.14595449e-01  2.22439730e-01  2.32351834e-01  2.52312509e-01  2.57912860e-01
  3.38787707e-01  3.52303127e-01  3.98608216e-01  4.02530548e-01  4.24445812e-01
  4.43902887e-01  4.44346489e-01  4.48498286e-01  4.52484954e-01  4.73987399e-01
  4.76940154e-01  4.88927335e-01  5.16615080e-01  5.55889443e-01  5.71250215e-01
  5.79095052e-01  5.84414993e-01  5.86599184e-01  5.93338620e-01  6.00136676e-01
  6.14340764e-01  6.15768005e-01  6.16191974e-01  6.25081985e-01  6.27623809e-01
  6.42082605e-01  6.42263379e-01  6.47320882e-01  6.56277316e-01  6.84433748e-01
  6.91310094e-01  7.19837544e-01  7.32441039e-01  7.60764106e-01  7.73110471e-01
  7.73558892e-01  7.91552071e-01  8.00327659e-01  8.00849740e-01  8.02182565e-01
  8.05062202e-01  8.13367782e-01  8.24248402e-01  8.29498983e-01  8.34170132e-01
  8.41129543e-01  8.44519064e-01  8.46043245e-01  8.63252110e-01  8.83494269e-01
  9.34195325e-01  9.45279577e-01  9.47981409e-01  9.54569399e-01  9.64287845e-01
  1.00004376e+00  1.00266490e+00  1.02338000e+00  1.05726056e+00  1.07413205e+00
  1.07649577e+00  1.08083781e+00  1.09413349e+00  1.11317873e+00  1.12446312e+00
  1.15263134e+00  1.19264793e+00  1.19723657e+00  1.21030568e+00  1.22499073e+00
  1.24082081e+00  1.27049938e+00  1.27417968e+00  1.30206234e+00  1.30323837e+00
  1.33220737e+00  1.34450173e+00  1.38962188e+00  1.39227929e+00  1.39919483e+00
  1.40872696e+00  1.46058401e+00  1.47698334e+00  1.52306537e+00  1.56507085e+00
  1.66850189e+00  1.66908610e+00  1.69346063e+00  1.69655758e+00  1.72024969e+00
  1.73659834e+00  1.74660055e+00  1.75058078e+00  1.78826121e+00  1.80943297e+00
  1.81380179e+00  1.81904564e+00  1.82135041e+00  1.82812547e+00  1.84949739e+00
  1.87745509e+00  1.88978027e+00  1.89259210e+00  1.91453020e+00  1.93776582e+00
  1.95755692e+00  1.95973815e+00  1.98369432e+00  2.00204549e+00  2.01191997e+00
  2.03612695e+00  2.05317992e+00  2.05565418e+00  2.06190372e+00  2.08448260e+00
  2.10182539e+00  2.14176461e+00  2.17981272e+00  2.18893014e+00  2.19795519e+00
  2.20721984e+00  2.21081904e+00  2.21899230e+00  2.23409716e+00  2.23831322e+00
  2.24251088e+00  2.26141151e+00  2.27477858e+00  2.28345253e+00  2.29523884e+00
  2.32365653e+00  2.32601020e+00  2.37742929e+00  2.37905811e+00  2.38022478e+00
  2.42529784e+00  2.51134709e+00  2.57119751e+00  2.57902120e+00  2.57979364e+00
  2.65157611e+00  2.65176224e+00  2.66148476e+00  2.66337260e+00  2.67902041e+00
  2.70949625e+00  2.73696609e+00  2.74150347e+00  2.75823335e+00  2.82663909e+00
  2.90847480e+00  2.90981104e+00  2.91492961e+00  2.93231820e+00  2.93481716e+00
  2.93854969e+00  2.93947361e+00  2.95035929e+00  2.95663979e+00  2.97105606e+00
  2.97210981e+00  2.97550271e+00  2.99199262e+00  2.99529367e+00  3.03634705e+00
  3.04008437e+00  3.06386892e+00  3.11620949e+00  3.12254426e+00  3.12745695e+00
  3.14115310e+00  3.15709034e+00  3.19762022e+00  3.23447998e+00  3.24962841e+00
  3.26794655e+00  3.27504606e+00  3.27999570e+00  3.29700006e+00  3.36582183e+00
  3.41319885e+00  3.45392540e+00  3.48283885e+00  3.57918412e+00  3.59570711e+00
  3.64905944e+00  3.76235190e+00  3.77515078e+00  3.78260343e+00  3.79140817e+00
  3.87882422e+00  3.89014507e+00  3.89548968e+00  3.91053645e+00  3.97603987e+00
  4.01177873e+00  4.04918972e+00  4.14303151e+00  4.36092821e+00  4.38097507e+00
  4.42618355e+00  4.44423281e+00  4.52226363e+00  4.53671101e+00  4.54649441e+00
  4.56256041e+00  4.87850594e+00  5.25602010e+00  5.28425071e+00  2.46365811e+01
  2.48052024e+01  2.50764129e+01  2.50921585e+01  2.50976449e+01  2.51042120e+01
  2.52113835e+01  2.52470139e+01  2.52564358e+01  2.52595381e+01  2.53423901e+01
  2.53562739e+01
Alpha MO coefficients                      R   N=       76176
  3.95193811e-01  3.27249788e-01 -2.77456330e-04 -1.83096972e-05  1.07672801e-05
  3.23220720e-03  1.43905877e-05 -1.87577735e-07 -8.30281163e-07 -2.35737544e-04
  2.35826989e-04  1.90193450e-05 -8.97595278e-06 -1.72225861e-04  1.48266885e-06
 -2.26217353e-04  6.87908150e-05  2.38753053e-07  3.98906005e-01  3.30324740e-01
  2.77974145e-04  1.81357848e-05 -1.05236235e-05  3.25790492e-03 -1.91212754e-05
 -5.71888762e-07  1.38479029e-06 -2.32309492e-04 -2.23615175e-04 -1.60269182e-05
  5.25346706e-06  1.44293748e-04  3.43122829e-06 -5.57534418e-05  2.48935804e-04
  3.11032655e-05  2.19921421e-02  1.81730878e-02 -6.70550336e-05 -1.12957033e-04
  8.99451255e-05  3.57944847e-04 -3.07965635e-05 -3.91348265e-05 -1.24483472e-05
 -2.31793688e-04 -3.05786780e-04  3.93528652e-05  4.56511062e-05  1.31523870e-05
 -3.32421963e-05  1.15054619e-05 -3.28879699e-05  5.13693508e-05  2.21486614e-02
  1.83024165e-02  7.12568032e-05  3.74659390e-05 -1.39195699e-04  3.60165307e-04
  3.37226088e-05 -2.60369547e-05 -2.83875844e-05 -2.20023414e-04  2.97907035e-04
  7.86263020e-05  2.41235690e-05  8.16922587e-06 -6.32237965e-05  7.62170851e-06
 -3.15986690e-05  3.78061817e-06  2.19215604e-02  1.81146774e-02 -8.81753203e-05