 Entering Gaussian System, Link 0=g09
 Input=methanol-opt.com
 Output=methanol-opt.log
 Initial command:
 /opt/g09gh/gaussian/g09/l1.exe /scratch/bdw2292/Gau-methanol/Gau-59214.inp -scrdir=/scratch/bdw2292/Gau-methanol/
 Entering Link 1 = /opt/g09gh/gaussian/g09/l1.exe PID=     59215.
  
 Copyright (c) 1988,1990,1992,1993,1995,1998,2003,2009, Gaussian, Inc.
                  All Rights Reserved.
  
 This is part of the Gaussian(R) 09 program.  It is based on
 the Gaussian(R) 03 system (copyright 2003, Gaussian, Inc.),
 the Gaussian(R) 98 system (copyright 1998, Gaussian, Inc.),
 the Gaussian(R) 94 system (copyright 1995, Gaussian, Inc.),
 the Gaussian 92(TM) system (copyright 1992, Gaussian, Inc.),
 the Gaussian 90(TM) system (copyright 1990, Gaussian, Inc.),
 the Gaussian 88(TM) system (copyright 1988, Gaussian, Inc.),
 the Gaussian 86(TM) system (copyright 1986, Carnegie Mellon
 University), and the Gaussian 82(TM) system (copyright 1983,
 Carnegie Mellon University). Gaussian is a federally registered
 trademark of Gaussian, Inc.
  
 This software contains proprietary and confidential information,
 including trade secrets, belonging to Gaussian, Inc.
  
 This software is provided under written license and may be
 used, copied, transmitted, or stored only in accord with that
 written license.
  
 The following legend is applicable only to US Government
 contracts under FAR:
  
                    RESTRICTED RIGHTS LEGEND
  
 Use, reproduction and disclosure by the US Government is
 subject to restrictions as set forth in subparagraphs (a)
 and (c) of the Commercial Computer Software - Restricted
 Rights clause in FAR 52.227-19.
  
 Gaussian, Inc.
 340 Quinnipiac St., Bldg. 40, Wallingford CT 06492
  
  
 ---------------------------------------------------------------
 Warning -- This program may not be used in any manner that
 competes with the business of Gaussian, Inc. or will provide
 assistance to any competitor of Gaussian, Inc.  The licensee
 of this program is prohibited from giving any competitor of
 Gaussian, Inc. access to this program.  By using this program,
 the user acknowledges that Gaussian, Inc. is engaged in the
 business of creating and licensing software in the field of
 computational chemistry and represents and warrants to the
 licensee that it is not a competitor of Gaussian, Inc. and that
 it will not use this program in any manner prohibited above.
 ---------------------------------------------------------------
  

 Cite this work as:
 Gaussian 09, Revision A.02,
 M. J. Frisch, G. W. Trucks, H. B. Schlegel, G. E. Scuseria, 
 M. A. Robb, J. R. Cheeseman, G. Scalmani, V. Barone, B. Mennucci, 
 G. A. Petersson, H. Nakatsuji, M. Caricato, X. Li, H. P. Hratchian, 
 A. F. Izmaylov, J. Bloino, G. Zheng, J. L. Sonnenberg, M. Hada, 
 M. Ehara, K. Toyota, R. Fukuda, J. Hasegawa, M. Ishida, T. Nakajima, 
 Y. Honda, O. Kitao, H. Nakai, T. Vreven, J. A. Montgomery, Jr., 
 J. E. Peralta, F. Ogliaro, M. Bearpark, J. J. Heyd, E. Brothers, 
 K. N. Kudin, V. N. Staroverov, R. Kobayashi, J. Normand, 
 K. Raghavachari, A. Rendell, J. C. Burant, S. S. Iyengar, J. Tomasi, 
 M. Cossi, N. Rega, J. M. Millam, M. Klene, J. E. Knox, J. B. Cross, 
 V. Bakken, C. Adamo, J. Jaramillo, R. Gomperts, R. E. Stratmann, 
 O. Yazyev, A. J. Austin, R. Cammi, C. Pomelli, J. W. Ochterski, 
 R. L. Martin, K. Morokuma, V. G. Zakrzewski, G. A. Voth, 
 P. Salvador, J. J. Dannenberg, S. Dapprich, A. D. Daniels, 
 O. Farkas, J. B. Foresman, J. V. Ortiz, J. Cioslowski, 
 and D. J. Fox, Gaussian, Inc., Wallingford CT, 2009.
 
 ******************************************
 Gaussian 09:  EM64L-G09RevA.02 11-Jun-2009
                20-Dec-2019 
 ******************************************
 %RWF=/scratch/bdw2292/Gau-methanol/,100GB
 %Nosave
 %Chk=methanol-opt.chk
 %Mem=700MB
 %Nproc=1
 Will use up to    1 processors via shared memory.
 ---------------------------------------------------------
 #P opt=(maxcycle=400) MP2/6-31G* Guess=INDO MaxDisk=100GB
 ---------------------------------------------------------
 1/6=400,18=20,19=15,38=1/1,3;
 2/9=110,12=2,17=6,18=5,40=1/2;
 3/5=1,6=6,7=1,11=9,16=1,25=1,30=1,71=1/1,2,3;
 4/5=4,11=3/1;
 5/5=2,38=5/2;
 8/6=4,10=2/1;
 9/15=2,16=-3/6;
 10/5=1/2;
 6/7=2,8=2,9=2,10=2/1;
 7/12=2/1,2,3,16;
 1/6=400,18=20,19=15/3(2);
 2/9=110/2;
 99//99;
 2/9=110/2;
 3/5=1,6=6,7=1,11=9,16=1,25=1,30=1,71=1/1,2,3;
 4/5=5,11=3,16=3/1;
 5/5=2,38=5/2;
 8/6=4,10=2/1;
 9/15=2,16=-3/6;
 10/5=1/2;
 7/12=2/1,2,3,16;
 1/6=400,18=20,19=15/3(-8);
 2/9=110/2;
 6/7=2,8=2,9=2,10=2/1;
 99//99;
 Leave Link    1 at Fri Dec 20 15:00:35 2019, MaxMem=   91750400 cpu:       0.2
 (Enter /opt/g09gh/gaussian/g09/l101.exe)
 -----------------------------------------------------------
 methanol Gaussian SP Calculation on bme-nova.bme.utexas.edu
 -----------------------------------------------------------
 Symbolic Z-matrix:
 Charge =  0 Multiplicity = 1
 O                     0.7079    0.        0. 
 C                    -0.7079    0.        0. 
 H                    -1.0732   -0.769     0.6852 
 H                    -1.0731   -0.1947   -1.0113 
 H                    -1.0632    0.9786    0.3312 
 H                     0.9936   -0.8804   -0.298 
 
 NAtoms=      6 NQM=      6 NQMF=      0 NMic=      0 NMicF=      0 NTot=      6.
                    Isotopes and Nuclear Properties:
 (Nuclear quadrupole moments (NQMom) in fm**2, nuclear magnetic moments (NMagM)
  in nuclear magnetons)

  Atom         1           2           3           4           5           6
 IAtWgt=          16          12           1           1           1           1
 AtmWgt=  15.9949146  12.0000000   1.0078250   1.0078250   1.0078250   1.0078250
 NucSpn=           0           0           1           1           1           1
 AtZEff=   0.0000000   0.0000000   0.0000000   0.0000000   0.0000000   0.0000000
 NQMom=    0.0000000   0.0000000   0.0000000   0.0000000   0.0000000   0.0000000
 NMagM=    0.0000000   0.0000000   2.7928460   2.7928460   2.7928460   2.7928460
 Leave Link  101 at Fri Dec 20 15:00:35 2019, MaxMem=   91750400 cpu:       0.3
 (Enter /opt/g09gh/gaussian/g09/l103.exe)

 GradGradGradGradGradGradGradGradGradGradGradGradGradGradGradGradGradGrad
 Berny optimization.
 Initialization pass.
                           ----------------------------
                           !    Initial Parameters    !
                           ! (Angstroms and Degrees)  !
 --------------------------                            --------------------------
 ! Name  Definition              Value          Derivative Info.                !
 --------------------------------------------------------------------------------
 ! R1    R(1,2)                  1.4158         estimate D2E/DX2                !
 ! R2    R(1,6)                  0.9724         estimate D2E/DX2                !
 ! R3    R(2,3)                  1.0928         estimate D2E/DX2                !
 ! R4    R(2,4)                  1.0927         estimate D2E/DX2                !
 ! R5    R(2,5)                  1.0925         estimate D2E/DX2                !
 ! A1    A(2,1,6)              107.0864         estimate D2E/DX2                !
 ! A2    A(1,2,3)              109.5279         estimate D2E/DX2                !
 ! A3    A(1,2,4)              109.5249         estimate D2E/DX2                !
 ! A4    A(1,2,5)              108.9785         estimate D2E/DX2                !
 ! A5    A(3,2,4)              110.0708         estimate D2E/DX2                !
 ! A6    A(3,2,5)              109.3609         estimate D2E/DX2                !
 ! A7    A(4,2,5)              109.3586         estimate D2E/DX2                !
 ! D1    D(6,1,2,3)             60.402          estimate D2E/DX2                !
 ! D2    D(6,1,2,4)            -60.4024         estimate D2E/DX2                !
 ! D3    D(6,1,2,5)           -179.998          estimate D2E/DX2                !
 --------------------------------------------------------------------------------
 Trust Radius=3.00D-01 FncErr=1.00D-07 GrdErr=1.00D-07
 Number of steps in this run= 100 maximum allowed number of steps= 100.
 GradGradGradGradGradGradGradGradGradGradGradGradGradGradGradGradGradGrad

 Leave Link  103 at Fri Dec 20 15:00:35 2019, MaxMem=   91750400 cpu:       0.0
 (Enter /opt/g09gh/gaussian/g09/l202.exe)
                          Input orientation:                          
 ---------------------------------------------------------------------
 Center     Atomic      Atomic             Coordinates (Angstroms)
 Number     Number       Type             X           Y           Z
 ---------------------------------------------------------------------
      1          8           0        0.707900    0.000000    0.000000
      2          6           0       -0.707900    0.000000    0.000000
      3          1           0       -1.073200   -0.769000    0.685200
      4          1           0       -1.073100   -0.194700   -1.011300
      5          1           0       -1.063200    0.978600    0.331200
      6          1           0        0.993600   -0.880400   -0.298000
 ---------------------------------------------------------------------
                    Distance matrix (angstroms):
                    1          2          3          4          5
     1  O    0.000000
     2  C    1.415800   0.000000
     3  H    2.057469   1.092842   0.000000
     4  H    2.057328   1.092706   1.791070   0.000000
     5  H    2.050402   1.092515   1.783121   1.782985   0.000000
     6  H    0.972385   1.938817   2.291452   2.291338   2.842921
                    6
     6  H    0.000000
 Stoichiometry    CH4O
 Framework group  C1[X(CH4O)]
 Deg. of freedom    12
 Full point group                 C1      NOp   1
 Largest Abelian subgroup         C1      NOp   1
 Largest concise Abelian subgroup C1      NOp   1
                         Standard orientation:                         
 ---------------------------------------------------------------------
 Center     Atomic      Atomic             Coordinates (Angstroms)
 Number     Number       Type             X           Y           Z
 ---------------------------------------------------------------------
      1          8           0       -0.742724    0.130262   -0.000035
      2          6           0        0.665092   -0.019882    0.000016
      3          1           0        0.974395   -0.564667   -0.895442
      4          1           0        0.974278   -0.564207    0.895628
      5          1           0        1.127950    0.969740   -0.000156
      6          1           0       -1.125382   -0.763665    0.000154
 ---------------------------------------------------------------------
 Rotational constants (GHZ):    126.1765567     25.0901325     24.1636592
 Leave Link  202 at Fri Dec 20 15:00:35 2019, MaxMem=   91750400 cpu:       0.0
 (Enter /opt/g09gh/gaussian/g09/l301.exe)
 Standard basis: 6-31G(d) (6D, 7F)
 Ernie: Thresh=  0.10000D-02 Tol=  0.10000D-05 Strict=F.
 There are    38 symmetry adapted basis functions of A   symmetry.
 Integral buffers will be    131072 words long.
 Raffenetti 1 integral format.
 Two-electron integral symmetry is turned on.
    38 basis functions,    72 primitive gaussians,    38 cartesian basis functions
     9 alpha electrons        9 beta electrons
       nuclear repulsion energy        40.3662534914 Hartrees.
 IExCor=    0 DFT=F Ex=HF Corr=None ExCW=0 ScaHFX=  1.000000
 ScaDFX=  1.000000  1.000000  1.000000  1.000000 ScalE2=  1.000000  1.000000
 IRadAn=      0 IRanWt=     -1 IRanGd=            0 ICorTp=0
 NAtoms=    6 NActive=    6 NUniq=    6 SFac= 7.50D-01 NAtFMM=   80 NAOKFM=F Big=F
 Leave Link  301 at Fri Dec 20 15:00:36 2019, MaxMem=   91750400 cpu:       0.2
 (Enter /opt/g09gh/gaussian/g09/l302.exe)
 NPDir=0 NMtPBC=     1 NCelOv=     1 NCel=       1 NClECP=     1 NCelD=      1
         NCelK=      1 NCelE2=     1 NClLst=     1 CellRange=     0.0.
 One-electron integrals computed using PRISM.
 NBasis=    38 RedAO= T  NBF=    38
 NBsUse=    38 1.00D-06 NBFU=    38
 Leave Link  302 at Fri Dec 20 15:00:36 2019, MaxMem=   91750400 cpu:       0.3
 (Enter /opt/g09gh/gaussian/g09/l303.exe)
 DipDrv:  MaxL=1.
 Leave Link  303 at Fri Dec 20 15:00:36 2019, MaxMem=   91750400 cpu:       0.2
 (Enter /opt/g09gh/gaussian/g09/l401.exe)
 Projected INDO guess.
 Initial guess orbital symmetries:
       Occupied  (A) (A) (A) (A) (A) (A) (A) (A) (A)
       Virtual   (A) (A) (A) (A) (A) (A) (A) (A) (A) (A) (A) (A)
                 (A) (A) (A) (A) (A) (A) (A) (A) (A) (A) (A) (A)
                 (A) (A) (A) (A) (A)
 The electronic state of the initial guess is 1-A.
 Leave Link  401 at Fri Dec 20 15:00:36 2019, MaxMem=   91750400 cpu:       0.2
 (Enter /opt/g09gh/gaussian/g09/l502.exe)
 Closed shell SCF:
 Requested convergence on RMS density matrix=1.00D-08 within 128 cycles.
 Requested convergence on MAX density matrix=1.00D-06.
 Requested convergence on             energy=1.00D-06.
 No special actions if energy rises.
 Using DIIS extrapolation, IDIIS=  1040.
 Integral symmetry usage will be decided dynamically.
 Keep R1 ints in memory in canonical form, NReq=1117925.
 IEnd=       23000 IEndB=       23000 NGot=    91750400 MDV=    91470584
 LenX=    91470584 LenY=    91468699
 Symmetry not used in FoFDir.
 MinBra= 0 MaxBra= 2 Meth= 1.
 IRaf=       0 NMat=   1 IRICut=       1 DoRegI=T DoRafI=F ISym2E= 0 JSym2E=0.

 Cycle   1  Pass 1  IDiag  1:
 E= -114.578238742319    
 DIIS: error= 3.66D-01 at cycle   1 NSaved=   1.
 NSaved= 1 IEnMin= 1 EnMin= -114.578238742319     IErMin= 1 ErrMin= 3.66D-01
 ErrMax= 3.66D-01 EMaxC= 1.00D-01 BMatC= 1.92D+00 BMatP= 1.92D+00
 IDIUse=3 WtCom= 0.00D+00 WtEn= 1.00D+00
 Coeff-Com:  0.100D+01
 Coeff-En:   0.100D+01
 Coeff:      0.100D+01
 Gap=     0.950 Goal=   None    Shift=    0.000
 GapD=    0.950 DampG=2.000 DampE=0.250 DampFc=0.5000 IDamp=-1.
 Damping current iteration by 5.00D-01
 RMSDP=1.47D-02 MaxDP=1.79D-01              OVMax= 1.18D-01

 Cycle   2  Pass 1  IDiag  1:
 E= -114.794646094144     Delta-E=       -0.216407351825 Rises=F Damp=T
 DIIS: error= 1.90D-01 at cycle   2 NSaved=   2.
 NSaved= 2 IEnMin= 2 EnMin= -114.794646094144     IErMin= 2 ErrMin= 1.90D-01
 ErrMax= 1.90D-01 EMaxC= 1.00D-01 BMatC= 5.14D-01 BMatP= 1.92D+00
 IDIUse=3 WtCom= 0.00D+00 WtEn= 1.00D+00
 Coeff-Com: -0.102D+01 0.202D+01
 Coeff-En:   0.000D+00 0.100D+01
 Coeff:      0.000D+00 0.100D+01
 Gap=     0.679 Goal=   None    Shift=    0.000
 RMSDP=7.22D-03 MaxDP=7.70D-02 DE=-2.16D-01 OVMax= 2.85D-02

 Cycle   3  Pass 1  IDiag  1:
 E= -115.028448287800     Delta-E=       -0.233802193656 Rises=F Damp=F
 DIIS: error= 6.92D-03 at cycle   3 NSaved=   3.
 NSaved= 3 IEnMin= 3 EnMin= -115.028448287800     IErMin= 3 ErrMin= 6.92D-03
 ErrMax= 6.92D-03 EMaxC= 1.00D-01 BMatC= 3.99D-03 BMatP= 5.14D-01
 IDIUse=3 WtCom= 9.31D-01 WtEn= 6.92D-02
 Coeff-Com:  0.314D+00-0.665D+00 0.135D+01
 Coeff-En:   0.000D+00 0.000D+00 0.100D+01
 Coeff:      0.292D+00-0.619D+00 0.133D+01
 Gap=     0.670 Goal=   None    Shift=    0.000
 RMSDP=1.52D-03 MaxDP=1.72D-02 DE=-2.34D-01 OVMax= 2.43D-02

 Cycle   4  Pass 1  IDiag  1:
 E= -115.033300045130     Delta-E=       -0.004851757330 Rises=F Damp=F
 DIIS: error= 1.93D-03 at cycle   4 NSaved=   4.
 NSaved= 4 IEnMin= 4 EnMin= -115.033300045130     IErMin= 4 ErrMin= 1.93D-03
 ErrMax= 1.93D-03 EMaxC= 1.00D-01 BMatC= 1.85D-04 BMatP= 3.99D-03
 IDIUse=3 WtCom= 9.81D-01 WtEn= 1.93D-02
 Coeff-Com: -0.498D-01 0.111D+00-0.383D+00 0.132D+01
 Coeff-En:   0.000D+00 0.000D+00 0.000D+00 0.100D+01
 Coeff:     -0.488D-01 0.109D+00-0.376D+00 0.132D+01
 Gap=     0.666 Goal=   None    Shift=    0.000
 RMSDP=6.14D-04 MaxDP=7.48D-03 DE=-4.85D-03 OVMax= 1.01D-02

 Cycle   5  Pass 1  IDiag  1:
 E= -115.033736049533     Delta-E=       -0.000436004403 Rises=F Damp=F
 DIIS: error= 7.06D-04 at cycle   5 NSaved=   5.
 NSaved= 5 IEnMin= 5 EnMin= -115.033736049533     IErMin= 5 ErrMin= 7.06D-04
 ErrMax= 7.06D-04 EMaxC= 1.00D-01 BMatC= 1.11D-05 BMatP= 1.85D-04
 IDIUse=3 WtCom= 9.93D-01 WtEn= 7.06D-03
 Coeff-Com: -0.206D-01 0.420D-01-0.494D-01-0.136D+00 0.116D+01
 Coeff-En:   0.000D+00 0.000D+00 0.000D+00 0.000D+00 0.100D+01
 Coeff:     -0.204D-01 0.417D-01-0.491D-01-0.135D+00 0.116D+01
 Gap=     0.664 Goal=   None    Shift=    0.000
 RMSDP=1.71D-04 MaxDP=2.25D-03 DE=-4.36D-04 OVMax= 2.46D-03

 Cycle   6  Pass 1  IDiag  1:
 E= -115.033759279293     Delta-E=       -0.000023229761 Rises=F Damp=F
 DIIS: error= 1.25D-04 at cycle   6 NSaved=   6.
 NSaved= 6 IEnMin= 6 EnMin= -115.033759279293     IErMin= 6 ErrMin= 1.25D-04
 ErrMax= 1.25D-04 EMaxC= 1.00D-01 BMatC= 6.65D-07 BMatP= 1.11D-05
 IDIUse=3 WtCom= 9.99D-01 WtEn= 1.25D-03
 Coeff-Com: -0.655D-03 0.702D-03 0.166D-01-0.931D-01 0.121D+00 0.955D+00
 Coeff-En:   0.000D+00 0.000D+00 0.000D+00 0.000D+00 0.000D+00 0.100D+01
 Coeff:     -0.655D-03 0.701D-03 0.165D-01-0.929D-01 0.121D+00 0.955D+00
 Gap=     0.664 Goal=   None    Shift=    0.000
 RMSDP=3.75D-05 MaxDP=2.65D-04 DE=-2.32D-05 OVMax= 5.06D-04

 Cycle   7  Pass 1  IDiag  1:
 E= -115.033760410221     Delta-E=       -0.000001130928 Rises=F Damp=F
 DIIS: error= 3.16D-05 at cycle   7 NSaved=   7.
 NSaved= 7 IEnMin= 7 EnMin= -115.033760410221     IErMin= 7 ErrMin= 3.16D-05
 ErrMax= 3.16D-05 EMaxC= 1.00D-01 BMatC= 4.05D-08 BMatP= 6.65D-07
 IDIUse=1 WtCom= 1.00D+00 WtEn= 0.00D+00
 Coeff-Com:  0.103D-02-0.211D-02 0.187D-02 0.126D-01-0.776D-01-0.521D-01
 Coeff-Com:  0.112D+01
 Coeff:      0.103D-02-0.211D-02 0.187D-02 0.126D-01-0.776D-01-0.521D-01
 Coeff:      0.112D+01
 Gap=     0.664 Goal=   None    Shift=    0.000
 RMSDP=1.20D-05 MaxDP=8.25D-05 DE=-1.13D-06 OVMax= 1.60D-04

 Cycle   8  Pass 1  IDiag  1:
 E= -115.033760505760     Delta-E=       -0.000000095539 Rises=F Damp=F
 DIIS: error= 8.36D-06 at cycle   8 NSaved=   8.
 NSaved= 8 IEnMin= 8 EnMin= -115.033760505760     IErMin= 8 ErrMin= 8.36D-06
 ErrMax= 8.36D-06 EMaxC= 1.00D-01 BMatC= 2.80D-09 BMatP= 4.05D-08
 IDIUse=1 WtCom= 1.00D+00 WtEn= 0.00D+00
 Coeff-Com: -0.635D-04 0.182D-03-0.141D-02 0.487D-02 0.265D-02-0.723D-01
 Coeff-Com: -0.135D+00 0.120D+01
 Coeff:     -0.635D-04 0.182D-03-0.141D-02 0.487D-02 0.265D-02-0.723D-01
 Coeff:     -0.135D+00 0.120D+01
 Gap=     0.664 Goal=   None    Shift=    0.000
 RMSDP=3.41D-06 MaxDP=3.07D-05 DE=-9.55D-08 OVMax= 4.89D-05

 Cycle   9  Pass 1  IDiag  1:
 E= -115.033760512831     Delta-E=       -0.000000007071 Rises=F Damp=F
 DIIS: error= 1.36D-06 at cycle   9 NSaved=   9.
 NSaved= 9 IEnMin= 9 EnMin= -115.033760512831     IErMin= 9 ErrMin= 1.36D-06
 ErrMax= 1.36D-06 EMaxC= 1.00D-01 BMatC= 8.47D-11 BMatP= 2.80D-09
 IDIUse=1 WtCom= 1.00D+00 WtEn= 0.00D+00
 Coeff-Com: -0.121D-04 0.149D-04 0.227D-03-0.127D-02 0.140D-02 0.180D-01
 Coeff-Com:  0.407D-03-0.310D+00 0.129D+01
 Coeff:     -0.121D-04 0.149D-04 0.227D-03-0.127D-02 0.140D-02 0.180D-01
 Coeff:      0.407D-03-0.310D+00 0.129D+01
 Gap=     0.664 Goal=   None    Shift=    0.000
 RMSDP=5.85D-07 MaxDP=4.77D-06 DE=-7.07D-09 OVMax= 8.36D-06

 Cycle  10  Pass 1  IDiag  1:
 E= -115.033760513066     Delta-E=       -0.000000000235 Rises=F Damp=F
 DIIS: error= 2.52D-07 at cycle  10 NSaved=  10.
 NSaved=10 IEnMin=10 EnMin= -115.033760513066     IErMin=10 ErrMin= 2.52D-07
 ErrMax= 2.52D-07 EMaxC= 1.00D-01 BMatC= 2.80D-12 BMatP= 8.47D-11
 IDIUse=1 WtCom= 1.00D+00 WtEn= 0.00D+00
 Coeff-Com:  0.533D-05-0.110D-04 0.125D-04 0.808D-04-0.534D-03 0.340D-04
 Coeff-Com:  0.465D-02 0.967D-02-0.233D+00 0.122D+01
 Coeff:      0.533D-05-0.110D-04 0.125D-04 0.808D-04-0.534D-03 0.340D-04
 Coeff:      0.465D-02 0.967D-02-0.233D+00 0.122D+01
 Gap=     0.664 Goal=   None    Shift=    0.000
 RMSDP=1.14D-07 MaxDP=7.01D-07 DE=-2.35D-10 OVMax= 1.13D-06

 Cycle  11  Pass 1  IDiag  1:
 E= -115.033760513073     Delta-E=       -0.000000000006 Rises=F Damp=F
 DIIS: error= 3.47D-08 at cycle  11 NSaved=  11.
 NSaved=11 IEnMin=11 EnMin= -115.033760513073     IErMin=11 ErrMin= 3.47D-08
 ErrMax= 3.47D-08 EMaxC= 1.00D-01 BMatC= 5.20D-14 BMatP= 2.80D-12
 IDIUse=1 WtCom= 1.00D+00 WtEn= 0.00D+00
 Coeff-Com: -0.204D-06 0.704D-06-0.750D-05 0.293D-04-0.727D-05-0.458D-03
 Coeff-Com: -0.565D-03 0.793D-02-0.134D-01-0.110D+00 0.112D+01
 Coeff:     -0.204D-06 0.704D-06-0.750D-05 0.293D-04-0.727D-05-0.458D-03
 Coeff:     -0.565D-03 0.793D-02-0.134D-01-0.110D+00 0.112D+01
 Gap=     0.664 Goal=   None    Shift=    0.000
 RMSDP=1.54D-08 MaxDP=9.40D-08 DE=-6.48D-12 OVMax= 1.32D-07

 Cycle  12  Pass 1  IDiag  1:
 E= -115.033760513073     Delta-E=        0.000000000000 Rises=F Damp=F
 DIIS: error= 6.90D-09 at cycle  12 NSaved=  12.
 NSaved=12 IEnMin=12 EnMin= -115.033760513073     IErMin=12 ErrMin= 6.90D-09
 ErrMax= 6.90D-09 EMaxC= 1.00D-01 BMatC= 1.99D-15 BMatP= 5.20D-14
 IDIUse=1 WtCom= 1.00D+00 WtEn= 0.00D+00
 Coeff-Com: -0.823D-07 0.102D-06 0.143D-05-0.828D-05 0.130D-04 0.107D-03
 Coeff-Com:  0.287D-04-0.205D-02 0.833D-02-0.126D-02-0.291D+00 0.129D+01
 Coeff:     -0.823D-07 0.102D-06 0.143D-05-0.828D-05 0.130D-04 0.107D-03
 Coeff:      0.287D-04-0.205D-02 0.833D-02-0.126D-02-0.291D+00 0.129D+01
 Gap=     0.664 Goal=   None    Shift=    0.000
 RMSDP=3.14D-09 MaxDP=1.89D-08 DE=-1.71D-13 OVMax= 3.21D-08

 SCF Done:  E(RHF) =  -115.033760513     A.U. after   12 cycles
             Convg  =    0.3137D-08             -V/T =  2.0024
 KE= 1.147564949544D+02 PE=-3.516951450973D+02 EE= 8.153863613840D+01
 Leave Link  502 at Fri Dec 20 15:00:37 2019, MaxMem=   91750400 cpu:       0.2
 (Enter /opt/g09gh/gaussian/g09/l801.exe)
 ExpMin= 1.61D-01 ExpMax= 5.48D+03 ExpMxC= 8.25D+02 IAcc=1 IRadAn=         1 AccDes= 0.00D+00
 HarFok:  IExCor=  205 AccDes= 0.00D+00 IRadAn=         1 IDoV=-2
 ScaDFX=  1.000000  1.000000  1.000000  1.000000
 Largest valence mixing into a core orbital is  2.07D-04
 Largest core mixing into a valence orbital is  3.02D-05
 Range of M.O.s used for correlation:     3    38
 NBasis=    38 NAE=     9 NBE=     9 NFC=     2 NFV=     0
 NROrb=     36 NOA=     7 NOB=     7 NVA=    29 NVB=    29
 Leave Link  801 at Fri Dec 20 15:00:37 2019, MaxMem=   91750400 cpu:       0.1
 (Enter /opt/g09gh/gaussian/g09/l906.exe)
 Frozen-core derivative calculation, NFC=   2 NFV=   0.
 FulOut=F Deriv=T AODrv=T NAtomX=     6
   MMem=        3035  MDisk=           7 MDiskD=           7
  W3Min=       12996 MinDsk=       75631 NBas6D=          38
 NBas2D=         795    NTT=         741    LW2=     2040000
    MDV=    91724348 MDiskM=       32793 NBas2p=         795
 Fully direct method using O(ONN) memory.
 IMap=   1   2   3   4   5   6   7   8   9
 JobTyp=1 Pass  1:  I=   3 to   9 NPSUse=  1 ParTrn=F ParDer=F DoDerP=T.
 Spin components of T(2) and E(2):
     alpha-alpha T2 =       0.1083887714D-01 E2=     -0.3802093024D-01
     alpha-beta  T2 =       0.6865409623D-01 E2=     -0.2353907989D+00
     beta-beta   T2 =       0.1083887714D-01 E2=     -0.3802093024D-01
 The integrals were generated   1 times.
 ANorm=    0.1044189566D+01
 E2 =    -0.3114326594D+00 EUMP2 =    -0.11534519317249D+03
 Leave Link  906 at Fri Dec 20 15:00:37 2019, MaxMem=   91750400 cpu:       0.3
 (Enter /opt/g09gh/gaussian/g09/l1002.exe)
 Minotr:  Closed shell wavefunction.
          Computing MP2/KS-MP2 derivatives.
          Using Z-Vector for PSCF gradient.
          Skipping F1 and S1 gradient terms here.
          IDoAtm=111111
          Frozen-core window.
          Direct CPHF calculation.
          Differentiating once with respect to electric field.
                with respect to dipole field.
          Differentiating once with respect to nuclear coordinates.
          Requested convergence is 1.0D-10 RMS, and 1.0D-09 maximum.
          NewPWx=F KeepS1=T KeepF1=T KeepIn=T MapXYZ=F SortEE=F KeepMc=T.
          MDV=      91750336 using IRadAn=       0.
          Keep R1 ints in memory in canonical form, NReq=1095534.
 Symmetry not used in FoFDir.
 MinBra= 0 MaxBra= 2 Meth= 1.
 IRaf=       0 NMat=   1 IRICut=       1 DoRegI=T DoRafI=F ISym2E= 0 JSym2E=0.
          Solving linear equations separately, MaxMat=       0.
          There are     1 degrees of freedom in the 1st order CPHF.  IDoFFX=0.
 LinEq1:  Iter=  0 NonCon=     1 RMS=6.09D-03 Max=3.19D-02
 AX will form     1 AO Fock derivatives at one time.
 LinEq1:  Iter=  1 NonCon=     1 RMS=1.85D-03 Max=1.06D-02
 LinEq1:  Iter=  2 NonCon=     1 RMS=3.81D-04 Max=2.64D-03
 LinEq1:  Iter=  3 NonCon=     1 RMS=1.69D-04 Max=1.09D-03
 LinEq1:  Iter=  4 NonCon=     1 RMS=2.90D-05 Max=1.45D-04
 LinEq1:  Iter=  5 NonCon=     1 RMS=5.05D-06 Max=1.93D-05
 LinEq1:  Iter=  6 NonCon=     1 RMS=8.04D-07 Max=4.67D-06
 LinEq1:  Iter=  7 NonCon=     1 RMS=1.13D-07 Max=6.63D-07
 LinEq1:  Iter=  8 NonCon=     1 RMS=1.05D-08 Max=4.58D-08
 LinEq1:  Iter=  9 NonCon=     1 RMS=1.51D-09 Max=6.80D-09
 LinEq1:  Iter= 10 NonCon=     1 RMS=2.13D-10 Max=1.04D-09
 LinEq1:  Iter= 11 NonCon=     0 RMS=3.63D-11 Max=1.91D-10
 Linear equations converged to 1.000D-10 1.000D-09 after    11 iterations.
 End of Minotr Frequency-dependent properties file   721 does not exist.
 End of Minotr Frequency-dependent properties file   722 does not exist.
 Leave Link 1002 at Fri Dec 20 15:00:37 2019, MaxMem=   91750400 cpu:       0.2
 (Enter /opt/g09gh/gaussian/g09/l601.exe)
 Copying SCF densities to generalized density rwf, IOpCl= 0 IROHF=0.

 **********************************************************************

            Population analysis using the SCF density.

 **********************************************************************

 Orbital symmetries:
       Occupied  (A) (A) (A) (A) (A) (A) (A) (A) (A)
       Virtual   (A) (A) (A) (A) (A) (A) (A) (A) (A) (A) (A) (A)
                 (A) (A) (A) (A) (A) (A) (A) (A) (A) (A) (A) (A)
                 (A) (A) (A) (A) (A)
 The electronic state is 1-A.
 Alpha  occ. eigenvalues --  -20.55703 -11.27096  -1.34942  -0.92054  -0.68203
 Alpha  occ. eigenvalues --   -0.62033  -0.59100  -0.49666  -0.44272
 Alpha virt. eigenvalues --    0.22085   0.27859   0.32237   0.32567   0.37881
 Alpha virt. eigenvalues --    0.76858   0.77362   0.79093   1.04439   1.12844
 Alpha virt. eigenvalues --    1.13835   1.17500   1.20403   1.25032   1.27352
 Alpha virt. eigenvalues --    1.41091   1.71818   1.76795   1.86807   2.03996
 Alpha virt. eigenvalues --    2.39469   2.42556   2.50291   2.69211   2.71621
 Alpha virt. eigenvalues --    2.77866   3.15769   4.12045   4.63832
          Condensed to atoms (all electrons):
              1          2          3          4          5          6
     1  O    8.370818   0.211381  -0.040149  -0.040152  -0.032655   0.260069
     2  C    0.211381   4.797174   0.393171   0.393179   0.398643  -0.027343
     3  H   -0.040149   0.393171   0.581286  -0.040850  -0.032236  -0.004426
     4  H   -0.040152   0.393179  -0.040850   0.581253  -0.032244  -0.004427
     5  H   -0.032655   0.398643  -0.032236  -0.032244   0.518086   0.005131
     6  H    0.260069  -0.027343  -0.004426  -0.004427   0.005131   0.337199
 Mulliken atomic charges:
              1
     1  O   -0.729313
     2  C   -0.166205
     3  H    0.143204
     4  H    0.143241
     5  H    0.175275
     6  H    0.433797
 Sum of Mulliken atomic charges =   0.00000
 Mulliken charges with hydrogens summed into heavy atoms:
              1
     1  O   -0.295515
     2  C    0.295515
 Sum of Mulliken charges with hydrogens summed into heavy atoms =   0.00000
 Electronic spatial extent (au):  <R**2>=             83.5664
 Charge=              0.0000 electrons
 Dipole moment (field-independent basis, Debye):
    X=              0.9950    Y=             -1.6800    Z=              0.0005  Tot=              1.9525
 Quadrupole moment (field-independent basis, Debye-Ang):
   XX=            -12.7626   YY=            -11.9938   ZZ=            -13.6380
   XY=              2.4277   XZ=             -0.0004   YZ=             -0.0003
 Traceless Quadrupole moment (field-independent basis, Debye-Ang):
   XX=              0.0355   YY=              0.8043   ZZ=             -0.8399
   XY=              2.4277   XZ=             -0.0004   YZ=             -0.0003
 Octapole moment (field-independent basis, Debye-Ang**2):
  XXX=             -4.1446  YYY=             -0.7932  ZZZ=              0.0008  XYY=             -1.8707
  XXY=             -2.2775  XXZ=              0.0007  XZZ=             -0.5446  YZZ=             -0.6256
  YYZ=              0.0000  XYZ=              0.0003
 Hexadecapole moment (field-independent basis, Debye-Ang**3):
 XXXX=            -59.1672 YYYY=            -19.2112 ZZZZ=            -18.9394 XXXY=              4.0929
 XXXZ=             -0.0004 YYYX=              3.0132 YYYZ=             -0.0005 ZZZX=              0.0004
 ZZZY=             -0.0003 XXYY=            -11.8396 XXZZ=            -13.7286 YYZZ=             -6.4770
 XXYZ=             -0.0004 YYXZ=             -0.0005 ZZXY=             -0.0411
 N-N= 4.036625349141D+01 E-N=-3.516951451127D+02  KE= 1.147564949544D+02
 No NMR shielding tensors so no spin-rotation constants.
 Leave Link  601 at Fri Dec 20 15:00:38 2019, MaxMem=   91750400 cpu:       0.1
 (Enter /opt/g09gh/gaussian/g09/l701.exe)
 Compute integral first derivatives.
 ... and contract with generalized density number  2.
 Leave Link  701 at Fri Dec 20 15:00:38 2019, MaxMem=   91750400 cpu:       0.1
 (Enter /opt/g09gh/gaussian/g09/l702.exe)
 L702 exits ... SP integral derivatives will be done elsewhere.
 Leave Link  702 at Fri Dec 20 15:00:38 2019, MaxMem=   91750400 cpu:       0.0
 (Enter /opt/g09gh/gaussian/g09/l703.exe)
 Compute integral first derivatives, UseDBF=F ICtDFT=           0.
 Integral derivatives from FoFDir, PRISM(SPDF).
 Calling FoFJK, ICntrl=      2127 FMM=F ISym2X=0 I1Cent= 0 IOpClX= 0 NMat=1 NMatS=1 NMatT=0.
 FoFCou: FMM=F IPFlag=           0 FMFlag=      100000 FMFlg1=         800
         NFxFlg=           0 DoJE=F BraDBF=F KetDBF=F FulRan=T
         Omega=  0.000000  0.000000  1.000000  0.000000  0.000000 ICntrl=    2127 IOpCl=  0
         NMat0=    1 NMatS0=    1 NMatT0=    0 NMatD0=    1 NMtDS0=    0 NMtDT0=    0
         I1Cent=           0 NGrid=           0.
 Symmetry not used in FoFCou.
 Leave Link  703 at Fri Dec 20 15:00:38 2019, MaxMem=   91750400 cpu:       0.3
 (Enter /opt/g09gh/gaussian/g09/l716.exe)
 Dipole        = 3.45212568D-01-6.39805817D-01 1.90527153D-04
 ***** Axes restored to original set *****
 -------------------------------------------------------------------
 Center     Atomic                   Forces (Hartrees/Bohr)
 Number     Number              X              Y              Z
 -------------------------------------------------------------------
      1        8           0.010788639    0.004354041    0.001478450
      2        6           0.000687482   -0.006251237   -0.002050706
      3        1          -0.007182547   -0.000072277    0.000588685
      4        1          -0.007217227    0.000279339   -0.000593590
      5        1           0.003754974   -0.001152510   -0.000384927
      6        1          -0.000831323    0.002842643    0.000962089
 -------------------------------------------------------------------
 Cartesian Forces:  Max     0.010788639 RMS     0.004156837
 Leave Link  716 at Fri Dec 20 15:00:39 2019, MaxMem=   91750400 cpu:       0.2
 (Enter /opt/g09gh/gaussian/g09/l103.exe)

 GradGradGradGradGradGradGradGradGradGradGradGradGradGradGradGradGradGrad
 Berny optimization.
 Internal  Forces:  Max     0.009957317 RMS     0.005543784
 Search for a local minimum.
 Step number   1 out of a maximum of  100
 All quantities printed in internal units (Hartrees-Bohrs-Radians)
 RMS Force = .55438D-02 SwitMx=.10000D-02 MixMth= 1
 Mixed Optimization -- RFO/linear search
 Second derivative matrix not updated -- first step.
 The second derivative matrix:
                          R1        R2        R3        R4        R5
           R1           0.43099
           R2           0.00000   0.52893
           R3           0.00000   0.00000   0.34486
           R4           0.00000   0.00000   0.00000   0.34502
           R5           0.00000   0.00000   0.00000   0.00000   0.34524
           A1           0.00000   0.00000   0.00000   0.00000   0.00000
           A2           0.00000   0.00000   0.00000   0.00000   0.00000
           A3           0.00000   0.00000   0.00000   0.00000   0.00000
           A4           0.00000   0.00000   0.00000   0.00000   0.00000
           A5           0.00000   0.00000   0.00000   0.00000   0.00000
           A6           0.00000   0.00000   0.00000   0.00000   0.00000
           A7           0.00000   0.00000   0.00000   0.00000   0.00000
           D1           0.00000   0.00000   0.00000   0.00000   0.00000
           D2           0.00000   0.00000   0.00000   0.00000   0.00000
           D3           0.00000   0.00000   0.00000   0.00000   0.00000
                          A1        A2        A3        A4        A5
           A1           0.16000
           A2           0.00000   0.16000
           A3           0.00000   0.00000   0.16000
           A4           0.00000   0.00000   0.00000   0.16000
           A5           0.00000   0.00000   0.00000   0.00000   0.16000
           A6           0.00000   0.00000   0.00000   0.00000   0.00000
           A7           0.00000   0.00000   0.00000   0.00000   0.00000
           D1           0.00000   0.00000   0.00000   0.00000   0.00000
           D2           0.00000   0.00000   0.00000   0.00000   0.00000
           D3           0.00000   0.00000   0.00000   0.00000   0.00000
                          A6        A7        D1        D2        D3
           A6           0.16000
           A7           0.00000   0.16000
           D1           0.00000   0.00000   0.01483
           D2           0.00000   0.00000   0.00000   0.01483
           D3           0.00000   0.00000   0.00000   0.00000   0.01483
     Eigenvalues ---    0.01483   0.10393   0.10484   0.16000   0.16000
     Eigenvalues ---    0.16000   0.16000   0.34486   0.34502   0.34524
     Eigenvalues ---    0.43099   0.528931000.000001000.000001000.00000
 RFO step:  Lambda=-2.47954829D-03 EMin= 1.48277660D-02
 Linear search not attempted -- first point.
 Iteration  1 RMS(Cart)=  0.04859463 RMS(Int)=  0.00171255
 Iteration  2 RMS(Cart)=  0.00119559 RMS(Int)=  0.00118273
 Iteration  3 RMS(Cart)=  0.00000106 RMS(Int)=  0.00118273
 Iteration  4 RMS(Cart)=  0.00000000 RMS(Int)=  0.00118273
 Variable       Old X    -DE/DX   Delta X   Delta X   Delta X     New X
                                 (Linear)    (Quad)   (Total)
    R1        2.67547   0.00996   0.00000   0.02297   0.02297   2.69845
    R2        1.83754  -0.00311   0.00000  -0.00586  -0.00586   1.83168
    R3        2.06517   0.00282   0.00000   0.00812   0.00812   2.07329
    R4        2.06492   0.00291   0.00000   0.00838   0.00838   2.07329
    R5        2.06455  -0.00237   0.00000  -0.00682  -0.00682   2.05774
    A1        1.86901   0.00016   0.00000   0.00099   0.00099   1.87000
    A2        1.91162   0.00974   0.00000   0.06297   0.06170   1.97332
    A3        1.91157   0.00975   0.00000   0.06306   0.06178   1.97335
    A4        1.90203  -0.00911   0.00000  -0.06210  -0.06157   1.84046
    A5        1.92110  -0.00523   0.00000  -0.02025  -0.02277   1.89832
    A6        1.90871  -0.00262   0.00000  -0.02224  -0.02173   1.88698
    A7        1.90867  -0.00261   0.00000  -0.02217  -0.02166   1.88701
    D1        1.05421   0.00286   0.00000   0.02691   0.02920   1.08341
    D2       -1.05422  -0.00286   0.00000  -0.02686  -0.02915  -1.08337
    D3       -3.14156   0.00000   0.00000  -0.00004  -0.00004   3.14159
         Item               Value     Threshold  Converged?
 Maximum Force            0.009957     0.000450     NO 
 RMS     Force            0.005544     0.000300     NO 
 Maximum Displacement     0.093429     0.001800     NO 
 RMS     Displacement     0.048340     0.001200     NO 
 Predicted change in Energy=-1.276553D-03
 GradGradGradGradGradGradGradGradGradGradGradGradGradGradGradGradGradGrad

 Leave Link  103 at Fri Dec 20 15:00:39 2019, MaxMem=   91750400 cpu:       0.0
 (Enter /opt/g09gh/gaussian/g09/l202.exe)
                          Input orientation:                          
 ---------------------------------------------------------------------
 Center     Atomic      Atomic             Coordinates (Angstroms)
 Number     Number       Type             X           Y           Z
 ---------------------------------------------------------------------
      1          8           0        0.722917    0.011278    0.003842
      2          6           0       -0.704598   -0.022299   -0.007549
      3          1           0       -1.122542   -0.766016    0.682323
      4          1           0       -1.122541   -0.194124   -1.007308
      5          1           0       -1.020666    0.964718    0.326547
      6          1           0        1.031529   -0.859058   -0.290755
 ---------------------------------------------------------------------
                    Distance matrix (angstroms):
                    1          2          3          4          5
     1  O    0.000000
     2  C    1.427956   0.000000
     3  H    2.114295   1.097140   0.000000
     4  H    2.114315   1.097140   1.783791   0.000000
     5  H    2.013273   1.088908   1.769857   1.769876   0.000000
     6  H    0.969285   1.947950   2.365494   2.365503   2.814023
                    6
     6  H    0.000000
 Stoichiometry    CH4O
 Framework group  C1[X(CH4O)]
 Deg. of freedom    12
 Full point group                 C1      NOp   1
 Largest Abelian subgroup         C1      NOp   1
 Largest concise Abelian subgroup C1      NOp   1
                         Standard orientation:                         
 ---------------------------------------------------------------------
 Center     Atomic      Atomic             Coordinates (Angstroms)
 Number     Number       Type             X           Y           Z
 ---------------------------------------------------------------------
      1          8           0        0.753736    0.120748   -0.000004
      2          6           0       -0.667231   -0.020356   -0.000002
      3          1           0       -1.048214   -0.533228    0.891922
      4          1           0       -1.048238   -0.533312   -0.891869
      5          1           0       -1.059619    0.995396   -0.000026
      6          1           0        1.129565   -0.772709    0.000021
 ---------------------------------------------------------------------
 Rotational constants (GHZ):    127.6437303     24.5649045     23.6981251
 Leave Link  202 at Fri Dec 20 15:00:39 2019, MaxMem=   91750400 cpu:       0.0
 (Enter /opt/g09gh/gaussian/g09/l301.exe)
 Standard basis: 6-31G(d) (6D, 7F)
 Ernie: Thresh=  0.10000D-02 Tol=  0.10000D-05 Strict=F.
 There are    38 symmetry adapted basis functions of A   symmetry.
 Integral buffers will be    131072 words long.
 Raffenetti 1 integral format.
 Two-electron integral symmetry is turned on.
    38 basis functions,    72 primitive gaussians,    38 cartesian basis functions
     9 alpha electrons        9 beta electrons
       nuclear repulsion energy        40.1266601383 Hartrees.
 IExCor=    0 DFT=F Ex=HF Corr=None ExCW=0 ScaHFX=  1.000000
 ScaDFX=  1.000000  1.000000  1.000000  1.000000 ScalE2=  1.000000  1.000000
 IRadAn=      0 IRanWt=     -1 IRanGd=            0 ICorTp=0
 NAtoms=    6 NActive=    6 NUniq=    6 SFac= 7.50D-01 NAtFMM=   80 NAOKFM=F Big=F
 Leave Link  301 at Fri Dec 20 15:00:39 2019, MaxMem=   91750400 cpu:       0.2
 (Enter /opt/g09gh/gaussian/g09/l302.exe)
 NPDir=0 NMtPBC=     1 NCelOv=     1 NCel=       1 NClECP=     1 NCelD=      1
         NCelK=      1 NCelE2=     1 NClLst=     1 CellRange=     0.0.
 One-electron integrals computed using PRISM.
 NBasis=    38 RedAO= T  NBF=    38
 NBsUse=    38 1.00D-06 NBFU=    38
 Leave Link  302 at Fri Dec 20 15:00:39 2019, MaxMem=   91750400 cpu:       0.3
 (Enter /opt/g09gh/gaussian/g09/l303.exe)
 DipDrv:  MaxL=1.
 Leave Link  303 at Fri Dec 20 15:00:39 2019, MaxMem=   91750400 cpu:       0.0
 (Enter /opt/g09gh/gaussian/g09/l401.exe)
 Initial guess read from the read-write file.
 B after Tr=     0.000000    0.000000    0.000000
         Rot=    1.000000    0.000000    0.000000    0.000000 Ang=   0.00 deg.
 Guess basis will be translated and rotated to current coordinates.
 Initial guess orbital symmetries:
       Occupied  (A) (A) (A) (A) (A) (A) (A) (A) (A)
       Virtual   (A) (A) (A) (A) (A) (A) (A) (A) (A) (A) (A) (A)
                 (A) (A) (A) (A) (A) (A) (A) (A) (A) (A) (A) (A)
                 (A) (A) (A) (A) (A)
 The electronic state of the initial guess is 1-A.
 Leave Link  401 at Fri Dec 20 15:00:40 2019, MaxMem=   91750400 cpu:       0.2
 (Enter /opt/g09gh/gaussian/g09/l502.exe)
 Closed shell SCF:
 Requested convergence on RMS density matrix=1.00D-08 within 128 cycles.
 Requested convergence on MAX density matrix=1.00D-06.
 Requested convergence on             energy=1.00D-06.
 No special actions if energy rises.
 Using DIIS extrapolation, IDIIS=  1040.
 Integral symmetry usage will be decided dynamically.
 Keep R1 ints in memory in canonical form, NReq=1117925.
 IEnd=       23000 IEndB=       23000 NGot=    91750400 MDV=    91470584
 LenX=    91470584 LenY=    91468699
 Symmetry not used in FoFDir.
 MinBra= 0 MaxBra= 2 Meth= 1.
 IRaf=       0 NMat=   1 IRICut=       1 DoRegI=T DoRafI=F ISym2E= 0 JSym2E=0.

 Cycle   1  Pass 1  IDiag  1:
 E= -112.743448607752    
 DIIS: error= 1.10D-01 at cycle   1 NSaved=   1.
 NSaved= 1 IEnMin= 1 EnMin= -112.743448607752     IErMin= 1 ErrMin= 1.10D-01
 ErrMax= 1.10D-01 EMaxC= 1.00D-01 BMatC= 5.64D-01 BMatP= 5.64D-01
 IDIUse=3 WtCom= 0.00D+00 WtEn= 1.00D+00
 Coeff-Com:  0.100D+01
 Coeff-En:   0.100D+01
 Coeff:      0.100D+01
 Gap=     0.430 Goal=   None    Shift=    0.000
 GapD=    0.430 DampG=2.000 DampE=0.250 DampFc=0.5000 IDamp=-1.
 Damping current iteration by 5.00D-01
 RMSDP=5.66D-02 MaxDP=7.39D-01              OVMax= 8.91D-01

 Cycle   2  Pass 1  IDiag  1:
 E= -113.643254383025     Delta-E=       -0.899805775272 Rises=F Damp=T
 DIIS: error= 7.13D-02 at cycle   2 NSaved=   2.
 NSaved= 2 IEnMin= 2 EnMin= -113.643254383025     IErMin= 2 ErrMin= 7.13D-02
 ErrMax= 7.13D-02 EMaxC= 1.00D-01 BMatC= 1.85D-01 BMatP= 5.64D-01
 IDIUse=3 WtCom= 2.87D-01 WtEn= 7.13D-01
 Coeff-Com: -0.815D+00 0.182D+01
 Coeff-En:   0.000D+00 0.100D+01
 Coeff:     -0.234D+00 0.123D+01
 Gap=     0.582 Goal=   None    Shift=    0.000
 RMSDP=2.92D-02 MaxDP=2.97D-01 DE=-9.00D-01 OVMax= 1.34D-01

 Cycle   3  Pass 1  IDiag  1:
 E= -115.017155913216     Delta-E=       -1.373901530191 Rises=F Damp=F
 DIIS: error= 1.92D-02 at cycle   3 NSaved=   3.
 NSaved= 3 IEnMin= 3 EnMin= -115.017155913216     IErMin= 3 ErrMin= 1.92D-02
 ErrMax= 1.92D-02 EMaxC= 1.00D-01 BMatC= 9.05D-03 BMatP= 1.85D-01
 IDIUse=3 WtCom= 8.08D-01 WtEn= 1.92D-01
 Coeff-Com:  0.470D-01-0.209D+00 0.116D+01
 Coeff-En:   0.000D+00 0.000D+00 0.100D+01
 Coeff:      0.380D-01-0.169D+00 0.113D+01
 Gap=     0.693 Goal=   None    Shift=    0.000
 RMSDP=3.69D-03 MaxDP=2.63D-02 DE=-1.37D+00 OVMax= 4.47D-02

 Cycle   4  Pass 1  IDiag  1:
 E= -115.032697297813     Delta-E=       -0.015541384597 Rises=F Damp=F
 DIIS: error= 3.95D-03 at cycle   4 NSaved=   4.
 NSaved= 4 IEnMin= 4 EnMin= -115.032697297813     IErMin= 4 ErrMin= 3.95D-03
 ErrMax= 3.95D-03 EMaxC= 1.00D-01 BMatC= 4.85D-04 BMatP= 9.05D-03
 IDIUse=3 WtCom= 9.60D-01 WtEn= 3.95D-02
 Coeff-Com:  0.346D-02-0.102D-01-0.107D+00 0.111D+01
 Coeff-En:   0.000D+00 0.000D+00 0.000D+00 0.100D+01
 Coeff:      0.333D-02-0.984D-02-0.102D+00 0.111D+01
 Gap=     0.672 Goal=   None    Shift=    0.000
 RMSDP=1.12D-03 MaxDP=7.97D-03 DE=-1.55D-02 OVMax= 1.36D-02

 Cycle   5  Pass 1  IDiag  1:
 E= -115.033677617411     Delta-E=       -0.000980319598 Rises=F Damp=F
 DIIS: error= 1.64D-03 at cycle   5 NSaved=   5.
 NSaved= 5 IEnMin= 5 EnMin= -115.033677617411     IErMin= 5 ErrMin= 1.64D-03
 ErrMax= 1.64D-03 EMaxC= 1.00D-01 BMatC= 9.66D-05 BMatP= 4.85D-04
 IDIUse=3 WtCom= 9.84D-01 WtEn= 1.64D-02
 Coeff-Com: -0.665D-02 0.142D-01-0.893D-01 0.278D+00 0.803D+00
 Coeff-En:   0.000D+00 0.000D+00 0.000D+00 0.000D+00 0.100D+01
 Coeff:     -0.654D-02 0.140D-01-0.879D-01 0.274D+00 0.807D+00
 Gap=     0.669 Goal=   None    Shift=    0.000
 RMSDP=2.74D-04 MaxDP=2.57D-03 DE=-9.80D-04 OVMax= 4.23D-03

 Cycle   6  Pass 1  IDiag  1:
 E= -115.033795604438     Delta-E=       -0.000117987027 Rises=F Damp=F
 DIIS: error= 4.49D-04 at cycle   6 NSaved=   6.
 NSaved= 6 IEnMin= 6 EnMin= -115.033795604438     IErMin= 6 ErrMin= 4.49D-04
 ErrMax= 4.49D-04 EMaxC= 1.00D-01 BMatC= 7.37D-06 BMatP= 9.66D-05
 IDIUse=3 WtCom= 9.96D-01 WtEn= 4.49D-03
 Coeff-Com: -0.264D-03 0.116D-02 0.235D-01-0.173D+00-0.978D-01 0.125D+01
 Coeff-En:   0.000D+00 0.000D+00 0.000D+00 0.000D+00 0.000D+00 0.100D+01
 Coeff:     -0.263D-03 0.115D-02 0.234D-01-0.172D+00-0.974D-01 0.125D+01
 Gap=     0.670 Goal=   None    Shift=    0.000
 RMSDP=1.69D-04 MaxDP=1.38D-03 DE=-1.18D-04 OVMax= 2.28D-03

 Cycle   7  Pass 1  IDiag  1:
 E= -115.033814513410     Delta-E=       -0.000018908972 Rises=F Damp=F
 DIIS: error= 7.31D-05 at cycle   7 NSaved=   7.
 NSaved= 7 IEnMin= 7 EnMin= -115.033814513410     IErMin= 7 ErrMin= 7.31D-05
 ErrMax= 7.31D-05 EMaxC= 1.00D-01 BMatC= 2.69D-07 BMatP= 7.37D-06
 IDIUse=1 WtCom= 1.00D+00 WtEn= 0.00D+00
 Coeff-Com:  0.722D-03-0.150D-02-0.227D-02 0.334D-01-0.220D-01-0.311D+00
 Coeff-Com:  0.130D+01
 Coeff:      0.722D-03-0.150D-02-0.227D-02 0.334D-01-0.220D-01-0.311D+00
 Coeff:      0.130D+01
 Gap=     0.670 Goal=   None    Shift=    0.000
 RMSDP=3.44D-05 MaxDP=2.71D-04 DE=-1.89D-05 OVMax= 5.08D-04

 Cycle   8  Pass 1  IDiag  1:
 E= -115.033815263664     Delta-E=       -0.000000750253 Rises=F Damp=F
 DIIS: error= 1.41D-05 at cycle   8 NSaved=   8.
 NSaved= 8 IEnMin= 8 EnMin= -115.033815263664     IErMin= 8 ErrMin= 1.41D-05
 ErrMax= 1.41D-05 EMaxC= 1.00D-01 BMatC= 6.59D-09 BMatP= 2.69D-07
 IDIUse=1 WtCom= 1.00D+00 WtEn= 0.00D+00
 Coeff-Com: -0.498D-04 0.979D-04-0.201D-04-0.154D-02 0.706D-02 0.263D-01
 Coeff-Com: -0.267D+00 0.123D+01
 Coeff:     -0.498D-04 0.979D-04-0.201D-04-0.154D-02 0.706D-02 0.263D-01
 Coeff:     -0.267D+00 0.123D+01
 Gap=     0.670 Goal=   None    Shift=    0.000
 RMSDP=5.09D-06 MaxDP=4.94D-05 DE=-7.50D-07 OVMax= 6.78D-05

 Cycle   9  Pass 1  IDiag  1:
 E= -115.033815280898     Delta-E=       -0.000000017234 Rises=F Damp=F
 DIIS: error= 2.85D-06 at cycle   9 NSaved=   9.
 NSaved= 9 IEnMin= 9 EnMin= -115.033815280898     IErMin= 9 ErrMin= 2.85D-06
 ErrMax= 2.85D-06 EMaxC= 1.00D-01 BMatC= 3.07D-10 BMatP= 6.59D-09
 IDIUse=1 WtCom= 1.00D+00 WtEn= 0.00D+00
 Coeff-Com:  0.134D-04-0.269D-04 0.986D-04-0.394D-03-0.187D-02 0.936D-03
 Coeff-Com:  0.478D-01-0.397D+00 0.135D+01
 Coeff:      0.134D-04-0.269D-04 0.986D-04-0.394D-03-0.187D-02 0.936D-03
 Coeff:      0.478D-01-0.397D+00 0.135D+01
 Gap=     0.670 Goal=   None    Shift=    0.000
 RMSDP=1.16D-06 MaxDP=9.86D-06 DE=-1.72D-08 OVMax= 1.32D-05

 Cycle  10  Pass 1  IDiag  1:
 E= -115.033815281705     Delta-E=       -0.000000000807 Rises=F Damp=F
 DIIS: error= 4.21D-07 at cycle  10 NSaved=  10.
 NSaved=10 IEnMin=10 EnMin= -115.033815281705     IErMin=10 ErrMin= 4.21D-07
 ErrMax= 4.21D-07 EMaxC= 1.00D-01 BMatC= 8.45D-12 BMatP= 3.07D-10
 IDIUse=1 WtCom= 1.00D+00 WtEn= 0.00D+00
 Coeff-Com:  0.412D-05-0.862D-05-0.370D-05 0.135D-03-0.199D-03-0.128D-02
 Coeff-Com:  0.604D-02-0.680D-02-0.132D+00 0.113D+01
 Coeff:      0.412D-05-0.862D-05-0.370D-05 0.135D-03-0.199D-03-0.128D-02
 Coeff:      0.604D-02-0.680D-02-0.132D+00 0.113D+01
 Gap=     0.670 Goal=   None    Shift=    0.000
 RMSDP=1.82D-07 MaxDP=1.42D-06 DE=-8.07D-10 OVMax= 2.17D-06

 Cycle  11  Pass 1  IDiag  1:
 E= -115.033815281725     Delta-E=       -0.000000000020 Rises=F Damp=F
 DIIS: error= 7.53D-08 at cycle  11 NSaved=  11.
 NSaved=11 IEnMin=11 EnMin= -115.033815281725     IErMin=11 ErrMin= 7.53D-08
 ErrMax= 7.53D-08 EMaxC= 1.00D-01 BMatC= 2.78D-13 BMatP= 8.45D-12
 IDIUse=1 WtCom= 1.00D+00 WtEn= 0.00D+00
 Coeff-Com: -0.702D-06 0.133D-05-0.222D-05 0.462D-05 0.614D-04 0.530D-04
 Coeff-Com: -0.169D-02 0.116D-01-0.263D-01-0.174D+00 0.119D+01
 Coeff:     -0.702D-06 0.133D-05-0.222D-05 0.462D-05 0.614D-04 0.530D-04
 Coeff:     -0.169D-02 0.116D-01-0.263D-01-0.174D+00 0.119D+01
 Gap=     0.670 Goal=   None    Shift=    0.000
 RMSDP=3.42D-08 MaxDP=2.76D-07 DE=-2.00D-11 OVMax= 4.18D-07

 Cycle  12  Pass 1  IDiag  1:
 E= -115.033815281726     Delta-E=       -0.000000000001 Rises=F Damp=F
 DIIS: error= 1.05D-08 at cycle  12 NSaved=  12.
 NSaved=12 IEnMin=12 EnMin= -115.033815281726     IErMin=12 ErrMin= 1.05D-08
 ErrMax= 1.05D-08 EMaxC= 1.00D-01 BMatC= 6.37D-15 BMatP= 2.78D-13
 IDIUse=1 WtCom= 1.00D+00 WtEn= 0.00D+00
 Coeff-Com: -0.215D-07 0.707D-07 0.200D-06-0.229D-05-0.917D-05 0.604D-05
 Coeff-Com:  0.258D-03-0.233D-02 0.871D-02 0.707D-02-0.213D+00 0.120D+01
 Coeff:     -0.215D-07 0.707D-07 0.200D-06-0.229D-05-0.917D-05 0.604D-05
 Coeff:      0.258D-03-0.233D-02 0.871D-02 0.707D-02-0.213D+00 0.120D+01
 Gap=     0.670 Goal=   None    Shift=    0.000
 RMSDP=3.60D-09 MaxDP=2.59D-08 DE=-6.54D-13 OVMax= 5.21D-08

 SCF Done:  E(RHF) =  -115.033815282     A.U. after   12 cycles
             Convg  =    0.3596D-08             -V/T =  2.0027
 KE= 1.147215325796D+02 PE=-3.511774788674D+02 EE= 8.129547086787D+01
 Leave Link  502 at Fri Dec 20 15:00:40 2019, MaxMem=   91750400 cpu:       0.1
 (Enter /opt/g09gh/gaussian/g09/l801.exe)
 ExpMin= 1.61D-01 ExpMax= 5.48D+03 ExpMxC= 8.25D+02 IAcc=1 IRadAn=         1 AccDes= 0.00D+00
 HarFok:  IExCor=  205 AccDes= 0.00D+00 IRadAn=         1 IDoV=-2
 ScaDFX=  1.000000  1.000000  1.000000  1.000000
 Largest valence mixing into a core orbital is  2.08D-04
 Largest core mixing into a valence orbital is  3.04D-05
 Range of M.O.s used for correlation:     3    38
 NBasis=    38 NAE=     9 NBE=     9 NFC=     2 NFV=     0
 NROrb=     36 NOA=     7 NOB=     7 NVA=    29 NVB=    29
 Leave Link  801 at Fri Dec 20 15:00:40 2019, MaxMem=   91750400 cpu:       0.2
 (Enter /opt/g09gh/gaussian/g09/l906.exe)
 Frozen-core derivative calculation, NFC=   2 NFV=   0.
 FulOut=F Deriv=T AODrv=T NAtomX=     6
   MMem=        3035  MDisk=           7 MDiskD=           7
  W3Min=       12996 MinDsk=       75631 NBas6D=          38
 NBas2D=         795    NTT=         741    LW2=     2040000
    MDV=    91724333 MDiskM=       32793 NBas2p=         795
 Fully direct method using O(ONN) memory.
 IMap=   1   2   3   4   5   6   7   8   9
 JobTyp=1 Pass  1:  I=   3 to   9 NPSUse=  1 ParTrn=F ParDer=F DoDerP=T.
 Spin components of T(2) and E(2):
     alpha-alpha T2 =       0.1092086477D-01 E2=     -0.3811112467D-01
     alpha-beta  T2 =       0.6916591155D-01 E2=     -0.2360091278D+00
     beta-beta   T2 =       0.1092086477D-01 E2=     -0.3811112467D-01
 The integrals were generated   1 times.
 ANorm=    0.1044513112D+01
 E2 =    -0.3122313771D+00 EUMP2 =    -0.11534604665885D+03
 Leave Link  906 at Fri Dec 20 15:00:40 2019, MaxMem=   91750400 cpu:       0.3
 (Enter /opt/g09gh/gaussian/g09/l1002.exe)
 Minotr:  Closed shell wavefunction.
          Computing MP2/KS-MP2 derivatives.
          Using Z-Vector for PSCF gradient.
          Skipping F1 and S1 gradient terms here.
          IDoAtm=111111
          Frozen-core window.
          Direct CPHF calculation.
          Differentiating once with respect to electric field.
                with respect to dipole field.
          Differentiating once with respect to nuclear coordinates.
          Requested convergence is 1.0D-10 RMS, and 1.0D-09 maximum.
          NewPWx=F KeepS1=T KeepF1=T KeepIn=T MapXYZ=F SortEE=F KeepMc=T.
          MDV=      91750336 using IRadAn=       0.
          Keep R1 ints in memory in canonical form, NReq=1095534.
 Symmetry not used in FoFDir.
 MinBra= 0 MaxBra= 2 Meth= 1.
 IRaf=       0 NMat=   1 IRICut=       1 DoRegI=T DoRafI=F ISym2E= 0 JSym2E=0.
          Solving linear equations separately, MaxMat=       0.
          There are     1 degrees of freedom in the 1st order CPHF.  IDoFFX=0.
 LinEq1:  Iter=  0 NonCon=     1 RMS=6.25D-03 Max=3.41D-02
 AX will form     1 AO Fock derivatives at one time.
 LinEq1:  Iter=  1 NonCon=     1 RMS=1.90D-03 Max=1.11D-02
 LinEq1:  Iter=  2 NonCon=     1 RMS=3.97D-04 Max=2.84D-03
 LinEq1:  Iter=  3 NonCon=     1 RMS=1.77D-04 Max=1.14D-03
 LinEq1:  Iter=  4 NonCon=     1 RMS=2.98D-05 Max=1.46D-04
 LinEq1:  Iter=  5 NonCon=     1 RMS=5.20D-06 Max=2.03D-05
 LinEq1:  Iter=  6 NonCon=     1 RMS=8.24D-07 Max=4.85D-06
 LinEq1:  Iter=  7 NonCon=     1 RMS=1.20D-07 Max=7.48D-07
 LinEq1:  Iter=  8 NonCon=     1 RMS=1.27D-08 Max=5.34D-08
 LinEq1:  Iter=  9 NonCon=     1 RMS=2.12D-09 Max=9.86D-09
 LinEq1:  Iter= 10 NonCon=     1 RMS=2.97D-10 Max=1.13D-09
 LinEq1:  Iter= 11 NonCon=     0 RMS=4.78D-11 Max=2.75D-10
 Linear equations converged to 1.000D-10 1.000D-09 after    11 iterations.
 End of Minotr Frequency-dependent properties file   721 does not exist.
 End of Minotr Frequency-dependent properties file   722 does not exist.
 Leave Link 1002 at Fri Dec 20 15:00:41 2019, MaxMem=   91750400 cpu:       0.1
 (Enter /opt/g09gh/gaussian/g09/l701.exe)
 Compute integral first derivatives.
 ... and contract with generalized density number  2.
 Leave Link  701 at Fri Dec 20 15:00:41 2019, MaxMem=   91750400 cpu:       0.3
 (Enter /opt/g09gh/gaussian/g09/l702.exe)
 L702 exits ... SP integral derivatives will be done elsewhere.
 Leave Link  702 at Fri Dec 20 15:00:41 2019, MaxMem=   91750400 cpu:       0.2
 (Enter /opt/g09gh/gaussian/g09/l703.exe)
 Compute integral first derivatives, UseDBF=F ICtDFT=           0.
 Integral derivatives from FoFDir, PRISM(SPDF).
 Calling FoFJK, ICntrl=      2127 FMM=F ISym2X=0 I1Cent= 0 IOpClX= 0 NMat=1 NMatS=1 NMatT=0.
 FoFCou: FMM=F IPFlag=           0 FMFlag=      100000 FMFlg1=         800
         NFxFlg=           0 DoJE=F BraDBF=F KetDBF=F FulRan=T
         Omega=  0.000000  0.000000  1.000000  0.000000  0.000000 ICntrl=    2127 IOpCl=  0
         NMat0=    1 NMatS0=    1 NMatT0=    0 NMatD0=    1 NMtDS0=    0 NMtDT0=    0
         I1Cent=           0 NGrid=           0.
 Symmetry not used in FoFCou.
 Leave Link  703 at Fri Dec 20 15:00:41 2019, MaxMem=   91750400 cpu:       0.2
 (Enter /opt/g09gh/gaussian/g09/l716.exe)
 Dipole        =-3.50334577D-01-6.32699795D-01 1.90493046D-05
 ***** Axes restored to original set *****
 -------------------------------------------------------------------
 Center     Atomic                   Forces (Hartrees/Bohr)
 Number     Number              X              Y              Z
 -------------------------------------------------------------------
      1        8          -0.003613461   -0.001652289   -0.000561469
      2        6           0.000500987    0.003525652    0.001198279
      3        1           0.001678926   -0.000867652   -0.000117655
      4        1           0.001681032   -0.000758693   -0.000433606
      5        1          -0.001131547    0.000685911    0.000230156
      6        1           0.000884062   -0.000932929   -0.000315706
 -------------------------------------------------------------------
 Cartesian Forces:  Max     0.003613461 RMS     0.001508308
 Leave Link  716 at Fri Dec 20 15:00:42 2019, MaxMem=   91750400 cpu:       0.0
 (Enter /opt/g09gh/gaussian/g09/l103.exe)

 GradGradGradGradGradGradGradGradGradGradGradGradGradGradGradGradGradGrad
 Berny optimization.
 Using GEDIIS/GDIIS optimizer.
 Internal  Forces:  Max     0.002796343 RMS     0.001611049
 Search for a local minimum.
 Step number   2 out of a maximum of  100
 All quantities printed in internal units (Hartrees-Bohrs-Radians)
 RMS Force = .16110D-02 SwitMx=.10000D-02 MixMth= 1
 Mixed Optimization -- RFO/linear search
 Update second derivatives using D2CorX and points    1    2
 DE= -8.53D-04 DEPred=-1.28D-03 R= 6.69D-01
 SS=  1.41D+00  RLast= 1.24D-01 DXNew= 5.0454D-01 3.7136D-01
 Trust test= 6.69D-01 RLast= 1.24D-01 DXMaxT set to 3.71D-01
 The second derivative matrix:
                          R1        R2        R3        R4        R5
           R1           0.44108
           R2          -0.00451   0.53079
           R3           0.00021  -0.00038   0.34431
           R4           0.00020  -0.00038  -0.00057   0.34442
           R5          -0.00384   0.00156  -0.00038  -0.00039   0.34653
           A1          -0.00386   0.00129  -0.00092  -0.00095   0.00101
           A2           0.00856  -0.00398  -0.00014  -0.00016  -0.00343
           A3           0.00857  -0.00399  -0.00014  -0.00016  -0.00343
           A4          -0.00660   0.00332   0.00059   0.00062   0.00290
           A5          -0.01002   0.00380  -0.00153  -0.00158   0.00309
           A6           0.00031   0.00028   0.00082   0.00085   0.00032
           A7           0.00030   0.00028   0.00081   0.00084   0.00033
           D1           0.01525  -0.00522   0.00343   0.00354  -0.00411
           D2          -0.01523   0.00522  -0.00343  -0.00353   0.00410
           D3          -0.00002   0.00001  -0.00001  -0.00001   0.00001
                          A1        A2        A3        A4        A5
           A1           0.16019
           A2          -0.00375   0.16709
           A3          -0.00376   0.00710   0.16710
           A4           0.00362  -0.00520  -0.00520   0.16338
           A5           0.00182  -0.00926  -0.00927   0.00828   0.16679
           A6           0.00111   0.00072   0.00072  -0.00125   0.00163
           A7           0.00111   0.00071   0.00071  -0.00124   0.00163
           D1          -0.00110   0.01471   0.01473  -0.01403  -0.00772
           D2           0.00110  -0.01469  -0.01471   0.01401   0.00771
           D3           0.00000  -0.00002  -0.00002   0.00002   0.00001
                          A6        A7        D1        D2        D3
           A6           0.15883
           A7          -0.00116   0.15884
           D1          -0.00407  -0.00406   0.02044
           D2           0.00406   0.00405  -0.00561   0.02042
           D3           0.00001   0.00001  -0.00001   0.00001   0.01483
 Use linear search instead of GDIIS.
     Eigenvalues ---    0.01483   0.10581   0.10630   0.15891   0.16000
     Eigenvalues ---    0.16000   0.19419   0.34370   0.34494   0.34678
     Eigenvalues ---    0.44290   0.531371000.000001000.000001000.00000
 RFO step:  Lambda=-1.10439508D-05 EMin= 1.48277660D-02
 Quartic linear search produced a step of -0.23276.
 Iteration  1 RMS(Cart)=  0.01032768 RMS(Int)=  0.00020907
 Iteration  2 RMS(Cart)=  0.00007245 RMS(Int)=  0.00019843
 Iteration  3 RMS(Cart)=  0.00000000 RMS(Int)=  0.00019843
 Variable       Old X    -DE/DX   Delta X   Delta X   Delta X     New X
                                 (Linear)    (Quad)   (Total)
    R1        2.69845  -0.00280  -0.00535   0.00044  -0.00491   2.69354
    R2        1.83168   0.00122   0.00136   0.00038   0.00174   1.83342
    R3        2.07329  -0.00013  -0.00189   0.00163  -0.00026   2.07303
    R4        2.07329  -0.00013  -0.00195   0.00169  -0.00026   2.07303
    R5        2.05774   0.00102   0.00159   0.00066   0.00225   2.05999
    A1        1.87000   0.00096  -0.00023   0.00483   0.00460   1.87459
    A2        1.97332  -0.00261  -0.01436   0.00039  -0.01377   1.95955
    A3        1.97335  -0.00261  -0.01438   0.00038  -0.01380   1.95955
    A4        1.84046   0.00273   0.01433   0.00122   0.01545   1.85592
    A5        1.89832   0.00104   0.00530  -0.00484   0.00088   1.89920
    A6        1.88698   0.00090   0.00506   0.00164   0.00661   1.89359
    A7        1.88701   0.00090   0.00504   0.00164   0.00658   1.89359
    D1        1.08341  -0.00140  -0.00680  -0.00296  -0.01016   1.07326
    D2       -1.08337   0.00139   0.00679   0.00296   0.01014  -1.07323
    D3        3.14159   0.00000   0.00001   0.00000   0.00001  -3.14159
         Item               Value     Threshold  Converged?
 Maximum Force            0.002796     0.000450     NO 
 RMS     Force            0.001611     0.000300     NO 
 Maximum Displacement     0.018457     0.001800     NO 
 RMS     Displacement     0.010358     0.001200     NO 
 Predicted change in Energy=-8.561556D-05
 GradGradGradGradGradGradGradGradGradGradGradGradGradGradGradGradGradGrad

 Leave Link  103 at Fri Dec 20 15:00:42 2019, MaxMem=   91750400 cpu:       0.0
 (Enter /opt/g09gh/gaussian/g09/l202.exe)
                          Input orientation:                          
 ---------------------------------------------------------------------
 Center     Atomic      Atomic             Coordinates (Angstroms)
 Number     Number       Type             X           Y           Z
 ---------------------------------------------------------------------
      1          8           0        0.719608    0.007826    0.002669
      2          6           0       -0.705533   -0.015828   -0.005351
      3          1           0       -1.112789   -0.767587    0.681971
      4          1           0       -1.112773   -0.195582   -1.007975
      5          1           0       -1.030431    0.969799    0.328261
      6          1           0        1.026018   -0.864128   -0.292475
 ---------------------------------------------------------------------
                    Distance matrix (angstroms):
                    1          2          3          4          5
     1  O    0.000000
     2  C    1.425359   0.000000
     3  H    2.102474   1.097001   0.000000
     4  H    2.102474   1.097001   1.784127   0.000000
     5  H    2.023373   1.090099   1.774938   1.774942   0.000000
     6  H    0.970206   1.949441   2.352310   2.352302   2.824462
                    6
     6  H    0.000000
 Stoichiometry    CH4O
 Framework group  C1[X(CH4O)]
 Deg. of freedom    12
 Full point group                 C1      NOp   1
 Largest Abelian subgroup         C1      NOp   1
 Largest concise Abelian subgroup C1      NOp   1
                         Standard orientation:                         
 ---------------------------------------------------------------------
 Center     Atomic      Atomic             Coordinates (Angstroms)
 Number     Number       Type             X           Y           Z
 ---------------------------------------------------------------------
      1          8           0        0.751281    0.122804   -0.000001
      2          6           0       -0.666950   -0.019565    0.000000
      3          1           0       -1.032282   -0.543160    0.892072
      4          1           0       -1.032278   -0.543192   -0.892055
      5          1           0       -1.076518    0.990668   -0.000015
      6          1           0        1.132532   -0.769356    0.000005
 ---------------------------------------------------------------------
 Rotational constants (GHZ):    127.2196749     24.6653163     23.7781379
 Leave Link  202 at Fri Dec 20 15:00:42 2019, MaxMem=   91750400 cpu:       0.0
 (Enter /opt/g09gh/gaussian/g09/l301.exe)
 Standard basis: 6-31G(d) (6D, 7F)
 Ernie: Thresh=  0.10000D-02 Tol=  0.10000D-05 Strict=F.
 There are    38 symmetry adapted basis functions of A   symmetry.
 Integral buffers will be    131072 words long.
 Raffenetti 1 integral format.
 Two-electron integral symmetry is turned on.
    38 basis functions,    72 primitive gaussians,    38 cartesian basis functions
     9 alpha electrons        9 beta electrons
       nuclear repulsion energy        40.1633028112 Hartrees.
 IExCor=    0 DFT=F Ex=HF Corr=None ExCW=0 ScaHFX=  1.000000
 ScaDFX=  1.000000  1.000000  1.000000  1.000000 ScalE2=  1.000000  1.000000
 IRadAn=      0 IRanWt=     -1 IRanGd=            0 ICorTp=0
 NAtoms=    6 NActive=    6 NUniq=    6 SFac= 7.50D-01 NAtFMM=   80 NAOKFM=F Big=F
 Leave Link  301 at Fri Dec 20 15:00:42 2019, MaxMem=   91750400 cpu:       0.2
 (Enter /opt/g09gh/gaussian/g09/l302.exe)
 NPDir=0 NMtPBC=     1 NCelOv=     1 NCel=       1 NClECP=     1 NCelD=      1
         NCelK=      1 NCelE2=     1 NClLst=     1 CellRange=     0.0.
 One-electron integrals computed using PRISM.
 NBasis=    38 RedAO= T  NBF=    38
 NBsUse=    38 1.00D-06 NBFU=    38
 Leave Link  302 at Fri Dec 20 15:00:42 2019, MaxMem=   91750400 cpu:       0.3
 (Enter /opt/g09gh/gaussian/g09/l303.exe)
 DipDrv:  MaxL=1.
 Leave Link  303 at Fri Dec 20 15:00:42 2019, MaxMem=   91750400 cpu:       0.2
 (Enter /opt/g09gh/gaussian/g09/l401.exe)
 Initial guess read from the read-write file.
 B after Tr=     0.000000    0.000000    0.000000
         Rot=    1.000000    0.000000    0.000000    0.000000 Ang=   0.00 deg.
 Guess basis will be translated and rotated to current coordinates.
 Initial guess orbital symmetries:
       Occupied  (A) (A) (A) (A) (A) (A) (A) (A) (A)
       Virtual   (A) (A) (A) (A) (A) (A) (A) (A) (A) (A) (A) (A)
                 (A) (A) (A) (A) (A) (A) (A) (A) (A) (A) (A) (A)
                 (A) (A) (A) (A) (A)
 The electronic state of the initial guess is 1-A.
 Leave Link  401 at Fri Dec 20 15:00:43 2019, MaxMem=   91750400 cpu:       0.2
 (Enter /opt/g09gh/gaussian/g09/l502.exe)
 Closed shell SCF:
 Requested convergence on RMS density matrix=1.00D-08 within 128 cycles.
 Requested convergence on MAX density matrix=1.00D-06.
 Requested convergence on             energy=1.00D-06.
 No special actions if energy rises.
 Using DIIS extrapolation, IDIIS=  1040.
 Integral symmetry usage will be decided dynamically.
 Keep R1 ints in memory in canonical form, NReq=1117925.
 IEnd=       23000 IEndB=       23000 NGot=    91750400 MDV=    91470584
 LenX=    91470584 LenY=    91468699
 Symmetry not used in FoFDir.
 MinBra= 0 MaxBra= 2 Meth= 1.
 IRaf=       0 NMat=   1 IRICut=       1 DoRegI=T DoRafI=F ISym2E= 0 JSym2E=0.

 Cycle   1  Pass 1  IDiag  1:
 E= -115.034028197371    
 DIIS: error= 8.61D-04 at cycle   1 NSaved=   1.
 NSaved= 1 IEnMin= 1 EnMin= -115.034028197371     IErMin= 1 ErrMin= 8.61D-04
 ErrMax= 8.61D-04 EMaxC= 1.00D-01 BMatC= 3.88D-05 BMatP= 3.88D-05
 IDIUse=3 WtCom= 9.91D-01 WtEn= 8.61D-03
 Coeff-Com:  0.100D+01
 Coeff-En:   0.100D+01
 Coeff:      0.100D+01
 Gap=     0.668 Goal=   None    Shift=    0.000
 RMSDP=1.44D-04 MaxDP=1.09D-03              OVMax= 2.09D-03

 Cycle   2  Pass 1  IDiag  1:
 E= -115.034084388901     Delta-E=       -0.000056191531 Rises=F Damp=F
 DIIS: error= 2.61D-04 at cycle   2 NSaved=   2.
 NSaved= 2 IEnMin= 2 EnMin= -115.034084388901     IErMin= 2 ErrMin= 2.61D-04
 ErrMax= 2.61D-04 EMaxC= 1.00D-01 BMatC= 2.82D-06 BMatP= 3.88D-05
 IDIUse=3 WtCom= 9.97D-01 WtEn= 2.61D-03
 Coeff-Com: -0.247D+00 0.125D+01
 Coeff-En:   0.000D+00 0.100D+01
 Coeff:     -0.247D+00 0.125D+01
 Gap=     0.668 Goal=   None    Shift=    0.000
 RMSDP=5.78D-05 MaxDP=4.28D-04 DE=-5.62D-05 OVMax= 1.01D-03

 Cycle   3  Pass 1  IDiag  1:
 E= -115.034090200392     Delta-E=       -0.000005811490 Rises=F Damp=F
 DIIS: error= 6.40D-05 at cycle   3 NSaved=   3.
 NSaved= 3 IEnMin= 3 EnMin= -115.034090200392     IErMin= 3 ErrMin= 6.40D-05
 ErrMax= 6.40D-05 EMaxC= 1.00D-01 BMatC= 1.40D-07 BMatP= 2.82D-06
 IDIUse=1 WtCom= 1.00D+00 WtEn= 0.00D+00
 Coeff-Com: -0.153D-01-0.883D-01 0.110D+01
 Coeff:     -0.153D-01-0.883D-01 0.110D+01
 Gap=     0.668 Goal=   None    Shift=    0.000
 RMSDP=1.78D-05 MaxDP=1.45D-04 DE=-5.81D-06 OVMax= 3.06D-04

 Cycle   4  Pass 1  IDiag  1:
 E= -115.034090518584     Delta-E=       -0.000000318192 Rises=F Damp=F
 DIIS: error= 2.23D-05 at cycle   4 NSaved=   4.
 NSaved= 4 IEnMin= 4 EnMin= -115.034090518584     IErMin= 4 ErrMin= 2.23D-05
 ErrMax= 2.23D-05 EMaxC= 1.00D-01 BMatC= 2.03D-08 BMatP= 1.40D-07
 IDIUse=1 WtCom= 1.00D+00 WtEn= 0.00D+00
 Coeff-Com:  0.139D-01-0.102D+00 0.220D+00 0.869D+00
 Coeff:      0.139D-01-0.102D+00 0.220D+00 0.869D+00
 Gap=     0.668 Goal=   None    Shift=    0.000
 RMSDP=5.80D-06 MaxDP=4.12D-05 DE=-3.18D-07 OVMax= 1.05D-04

 Cycle   5  Pass 1  IDiag  1:
 E= -115.034090550821     Delta-E=       -0.000000032237 Rises=F Damp=F
 DIIS: error= 6.47D-06 at cycle   5 NSaved=   5.
 NSaved= 5 IEnMin= 5 EnMin= -115.034090550821     IErMin= 5 ErrMin= 6.47D-06
 ErrMax= 6.47D-06 EMaxC= 1.00D-01 BMatC= 2.20D-09 BMatP= 2.03D-08
 IDIUse=1 WtCom= 1.00D+00 WtEn= 0.00D+00
 Coeff-Com:  0.362D-02-0.306D-03-0.130D+00 0.818D-01 0.104D+01
 Coeff:      0.362D-02-0.306D-03-0.130D+00 0.818D-01 0.104D+01
 Gap=     0.668 Goal=   None    Shift=    0.000
 RMSDP=2.65D-06 MaxDP=2.03D-05 DE=-3.22D-08 OVMax= 4.49D-05

 Cycle   6  Pass 1  IDiag  1:
 E= -115.034090555124     Delta-E=       -0.000000004303 Rises=F Damp=F
 DIIS: error= 1.80D-06 at cycle   6 NSaved=   6.
 NSaved= 6 IEnMin= 6 EnMin= -115.034090555124     IErMin= 6 ErrMin= 1.80D-06
 ErrMax= 1.80D-06 EMaxC= 1.00D-01 BMatC= 6.81D-11 BMatP= 2.20D-09
 IDIUse=1 WtCom= 1.00D+00 WtEn= 0.00D+00
 Coeff-Com: -0.113D-02 0.497D-02 0.686D-02-0.509D-01-0.156D+00 0.120D+01
 Coeff:     -0.113D-02 0.497D-02 0.686D-02-0.509D-01-0.156D+00 0.120D+01
 Gap=     0.668 Goal=   None    Shift=    0.000
 RMSDP=5.75D-07 MaxDP=4.31D-06 DE=-4.30D-09 OVMax= 9.55D-06

 Cycle   7  Pass 1  IDiag  1:
 E= -115.034090555317     Delta-E=       -0.000000000193 Rises=F Damp=F
 DIIS: error= 3.31D-07 at cycle   7 NSaved=   7.
 NSaved= 7 IEnMin= 7 EnMin= -115.034090555317     IErMin= 7 ErrMin= 3.31D-07
 ErrMax= 3.31D-07 EMaxC= 1.00D-01 BMatC= 4.57D-12 BMatP= 6.81D-11
 IDIUse=1 WtCom= 1.00D+00 WtEn= 0.00D+00
 Coeff-Com: -0.898D-04-0.412D-03 0.662D-02 0.845D-03-0.480D-01-0.102D+00
 Coeff-Com:  0.114D+01
 Coeff:     -0.898D-04-0.412D-03 0.662D-02 0.845D-03-0.480D-01-0.102D+00
 Coeff:      0.114D+01
 Gap=     0.668 Goal=   None    Shift=    0.000
 RMSDP=1.23D-07 MaxDP=8.98D-07 DE=-1.93D-10 OVMax= 1.49D-06

 Cycle   8  Pass 1  IDiag  1:
 E= -115.034090555328     Delta-E=       -0.000000000011 Rises=F Damp=F
 DIIS: error= 9.19D-08 at cycle   8 NSaved=   8.
 NSaved= 8 IEnMin= 8 EnMin= -115.034090555328     IErMin= 8 ErrMin= 9.19D-08
 ErrMax= 9.19D-08 EMaxC= 1.00D-01 BMatC= 3.59D-13 BMatP= 4.57D-12
 IDIUse=1 WtCom= 1.00D+00 WtEn= 0.00D+00
 Coeff-Com:  0.659D-04-0.372D-03 0.212D-03 0.392D-02 0.455D-02-0.925D-01
 Coeff-Com:  0.126D+00 0.958D+00
 Coeff:      0.659D-04-0.372D-03 0.212D-03 0.392D-02 0.455D-02-0.925D-01
 Coeff:      0.126D+00 0.958D+00
 Gap=     0.668 Goal=   None    Shift=    0.000
 RMSDP=2.53D-08 MaxDP=1.77D-07 DE=-1.09D-11 OVMax= 3.26D-07

 Cycle   9  Pass 1  IDiag  1:
 E= -115.034090555329     Delta-E=       -0.000000000001 Rises=F Damp=F
 DIIS: error= 1.93D-08 at cycle   9 NSaved=   9.
 NSaved= 9 IEnMin= 9 EnMin= -115.034090555329     IErMin= 9 ErrMin= 1.93D-08
 ErrMax= 1.93D-08 EMaxC= 1.00D-01 BMatC= 1.88D-14 BMatP= 3.59D-13
 IDIUse=1 WtCom= 1.00D+00 WtEn= 0.00D+00
 Coeff-Com:  0.253D-05 0.580D-04-0.555D-03-0.203D-03 0.342D-02 0.162D-01
 Coeff-Com: -0.980D-01-0.848D-01 0.116D+01
 Coeff:      0.253D-05 0.580D-04-0.555D-03-0.203D-03 0.342D-02 0.162D-01
 Coeff:     -0.980D-01-0.848D-01 0.116D+01
 Gap=     0.668 Goal=   None    Shift=    0.000
 RMSDP=8.20D-09 MaxDP=5.71D-08 DE=-7.96D-13 OVMax= 1.21D-07

 SCF Done:  E(RHF) =  -115.034090555     A.U. after    9 cycles
             Convg  =    0.8198D-08             -V/T =  2.0027
 KE= 1.147243106521D+02 PE=-3.512567242259D+02 EE= 8.133502020729D+01
 Leave Link  502 at Fri Dec 20 15:00:43 2019, MaxMem=   91750400 cpu:       0.3
 (Enter /opt/g09gh/gaussian/g09/l801.exe)
 ExpMin= 1.61D-01 ExpMax= 5.48D+03 ExpMxC= 8.25D+02 IAcc=1 IRadAn=         1 AccDes= 0.00D+00
 HarFok:  IExCor=  205 AccDes= 0.00D+00 IRadAn=         1 IDoV=-2
 ScaDFX=  1.000000  1.000000  1.000000  1.000000
 Largest valence mixing into a core orbital is  2.08D-04
 Largest core mixing into a valence orbital is  3.04D-05
 Range of M.O.s used for correlation:     3    38
 NBasis=    38 NAE=     9 NBE=     9 NFC=     2 NFV=     0
 NROrb=     36 NOA=     7 NOB=     7 NVA=    29 NVB=    29
 Leave Link  801 at Fri Dec 20 15:00:43 2019, MaxMem=   91750400 cpu:       0.1
 (Enter /opt/g09gh/gaussian/g09/l906.exe)
 Frozen-core derivative calculation, NFC=   2 NFV=   0.
 FulOut=F Deriv=T AODrv=T NAtomX=     6
   MMem=        3035  MDisk=           7 MDiskD=           7
  W3Min=       12996 MinDsk=       75631 NBas6D=          38
 NBas2D=         795    NTT=         741    LW2=     2040000
    MDV=    91724348 MDiskM=       32793 NBas2p=         795
 Fully direct method using O(ONN) memory.
 IMap=   1   2   3   4   5   6   7   8   9
 JobTyp=1 Pass  1:  I=   3 to   9 NPSUse=  1 ParTrn=F ParDer=F DoDerP=T.
 Spin components of T(2) and E(2):
     alpha-alpha T2 =       0.1090256217D-01 E2=     -0.3808651808D-01
     alpha-beta  T2 =       0.6906429001D-01 E2=     -0.2358711687D+00
     beta-beta   T2 =       0.1090256217D-01 E2=     -0.3808651808D-01
 The integrals were generated   1 times.
 ANorm=    0.1044446942D+01
 E2 =    -0.3120442049D+00 EUMP2 =    -0.11534613476021D+03
 Leave Link  906 at Fri Dec 20 15:00:43 2019, MaxMem=   91750400 cpu:       0.3
 (Enter /opt/g09gh/gaussian/g09/l1002.exe)
 Minotr:  Closed shell wavefunction.
          Computing MP2/KS-MP2 derivatives.
          Using Z-Vector for PSCF gradient.
          Skipping F1 and S1 gradient terms here.
          IDoAtm=111111
          Frozen-core window.
          Direct CPHF calculation.
          Differentiating once with respect to electric field.
                with respect to dipole field.
          Differentiating once with respect to nuclear coordinates.
          Requested convergence is 1.0D-10 RMS, and 1.0D-09 maximum.
          NewPWx=F KeepS1=T KeepF1=T KeepIn=T MapXYZ=F SortEE=F KeepMc=T.
          MDV=      91750336 using IRadAn=       0.
          Keep R1 ints in memory in canonical form, NReq=1095534.
 Symmetry not used in FoFDir.
 MinBra= 0 MaxBra= 2 Meth= 1.
 IRaf=       0 NMat=   1 IRICut=       1 DoRegI=T DoRafI=F ISym2E= 0 JSym2E=0.
          Solving linear equations separately, MaxMat=       0.
          There are     1 degrees of freedom in the 1st order CPHF.  IDoFFX=0.
 LinEq1:  Iter=  0 NonCon=     1 RMS=6.22D-03 Max=3.37D-02
 AX will form     1 AO Fock derivatives at one time.
 LinEq1:  Iter=  1 NonCon=     1 RMS=1.89D-03 Max=1.10D-02
 LinEq1:  Iter=  2 NonCon=     1 RMS=3.93D-04 Max=2.79D-03
 LinEq1:  Iter=  3 NonCon=     1 RMS=1.75D-04 Max=1.14D-03
 LinEq1:  Iter=  4 NonCon=     1 RMS=2.96D-05 Max=1.46D-04
 LinEq1:  Iter=  5 NonCon=     1 RMS=5.16D-06 Max=2.00D-05
 LinEq1:  Iter=  6 NonCon=     1 RMS=8.20D-07 Max=4.84D-06
 LinEq1:  Iter=  7 NonCon=     1 RMS=1.18D-07 Max=7.25D-07
 LinEq1:  Iter=  8 NonCon=     1 RMS=1.21D-08 Max=5.05D-08
 LinEq1:  Iter=  9 NonCon=     1 RMS=1.98D-09 Max=9.16D-09
 LinEq1:  Iter= 10 NonCon=     1 RMS=2.78D-10 Max=1.01D-09
 LinEq1:  Iter= 11 NonCon=     0 RMS=4.40D-11 Max=2.28D-10
 Linear equations converged to 1.000D-10 1.000D-09 after    11 iterations.
 End of Minotr Frequency-dependent properties file   721 does not exist.
 End of Minotr Frequency-dependent properties file   722 does not exist.
 Leave Link 1002 at Fri Dec 20 15:00:44 2019, MaxMem=   91750400 cpu:       0.2
 (Enter /opt/g09gh/gaussian/g09/l701.exe)
 Compute integral first derivatives.
 ... and contract with generalized density number  2.
 Leave Link  701 at Fri Dec 20 15:00:44 2019, MaxMem=   91750400 cpu:       0.3
 (Enter /opt/g09gh/gaussian/g09/l702.exe)
 L702 exits ... SP integral derivatives will be done elsewhere.
 Leave Link  702 at Fri Dec 20 15:00:44 2019, MaxMem=   91750400 cpu:       0.0
 (Enter /opt/g09gh/gaussian/g09/l703.exe)
 Compute integral first derivatives, UseDBF=F ICtDFT=           0.
 Integral derivatives from FoFDir, PRISM(SPDF).
 Calling FoFJK, ICntrl=      2127 FMM=F ISym2X=0 I1Cent= 0 IOpClX= 0 NMat=1 NMatS=1 NMatT=0.
 FoFCou: FMM=F IPFlag=           0 FMFlag=      100000 FMFlg1=         800
         NFxFlg=           0 DoJE=F BraDBF=F KetDBF=F FulRan=T
         Omega=  0.000000  0.000000  1.000000  0.000000  0.000000 ICntrl=    2127 IOpCl=  0
         NMat0=    1 NMatS0=    1 NMatT0=    0 NMatD0=    1 NMtDS0=    0 NMtDT0=    0
         I1Cent=           0 NGrid=           0.
 Symmetry not used in FoFCou.
 Leave Link  703 at Fri Dec 20 15:00:45 2019, MaxMem=   91750400 cpu:       0.2
 (Enter /opt/g09gh/gaussian/g09/l716.exe)
 Dipole        =-3.47029548D-01-6.34105467D-01 3.53637631D-06
 ***** Axes restored to original set *****
 -------------------------------------------------------------------
 Center     Atomic                   Forces (Hartrees/Bohr)
 Number     Number              X              Y              Z
 -------------------------------------------------------------------
      1        8          -0.000518821    0.000141811    0.000047902
      2        6           0.000480010   -0.000019078   -0.000005699
      3        1          -0.000008804   -0.000048371   -0.000008454
      4        1          -0.000009060   -0.000043067   -0.000022764
      5        1           0.000204284   -0.000066804   -0.000023071
      6        1          -0.000147609    0.000035510    0.000012086
 -------------------------------------------------------------------
 Cartesian Forces:  Max     0.000518821 RMS     0.000182156
 Leave Link  716 at Fri Dec 20 15:00:45 2019, MaxMem=   91750400 cpu:       0.2
 (Enter /opt/g09gh/gaussian/g09/l103.exe)

 GradGradGradGradGradGradGradGradGradGradGradGradGradGradGradGradGradGrad
 Berny optimization.
 Using GEDIIS/GDIIS optimizer.
 Internal  Forces:  Max     0.000663046 RMS     0.000201391
 Search for a local minimum.
 Step number   3 out of a maximum of  100
 All quantities printed in internal units (Hartrees-Bohrs-Radians)
 RMS Force = .20139D-03 SwitMx=.10000D-02 MixMth= 2
 Mixed Optimization -- En-DIIS/RFO-DIIS
 Update second derivatives using D2CorX and points    1    2    3
 DE= -8.81D-05 DEPred=-8.56D-05 R= 1.03D+00
 SS=  1.41D+00  RLast= 3.11D-02 DXNew= 6.2454D-01 9.3250D-02
 Trust test= 1.03D+00 RLast= 3.11D-02 DXMaxT set to 3.71D-01
 The second derivative matrix:
                          R1        R2        R3        R4        R5
           R1           0.42314
           R2          -0.00058   0.53200
           R3           0.00062  -0.00044   0.34426
           R4           0.00063  -0.00044  -0.00063   0.34437
           R5          -0.00107   0.00301  -0.00042  -0.00042   0.34815
           A1          -0.00200   0.00375  -0.00097  -0.00098   0.00357
           A2          -0.00383  -0.00393   0.00009   0.00007  -0.00416
           A3          -0.00385  -0.00393   0.00009   0.00007  -0.00416
           A4           0.00467   0.00479   0.00039   0.00043   0.00509
           A5          -0.01125   0.00612  -0.00140  -0.00143   0.00532
           A6           0.00784  -0.00130   0.00062   0.00064  -0.00077
           A7           0.00780  -0.00129   0.00062   0.00064  -0.00076
           D1           0.01556  -0.00856   0.00335   0.00344  -0.00741
           D2          -0.01554   0.00855  -0.00335  -0.00344   0.00740
           D3          -0.00002   0.00001  -0.00001  -0.00001   0.00001
                          A1        A2        A3        A4        A5
           A1           0.16393
           A2          -0.00616   0.16191
           A3          -0.00617   0.00191   0.16191
           A4           0.00791  -0.00245  -0.00245   0.16379
           A5           0.00484  -0.01270  -0.01272   0.01293   0.16861
           A6           0.00041   0.00582   0.00583  -0.00585   0.00225
           A7           0.00041   0.00579   0.00580  -0.00581   0.00225
           D1          -0.00568   0.01910   0.01913  -0.02044  -0.01090
           D2           0.00568  -0.01908  -0.01911   0.02042   0.01088
           D3           0.00000  -0.00002  -0.00002   0.00002   0.00001
                          A6        A7        D1        D2        D3
           A6           0.15566
           A7          -0.00432   0.15570
           D1          -0.00432  -0.00431   0.02560
           D2           0.00432   0.00431  -0.01076   0.02557
           D3           0.00000   0.00000  -0.00001   0.00001   0.01483
 Use linear search instead of GDIIS.
     Eigenvalues ---    0.01483   0.10582   0.10653   0.15852   0.15950
     Eigenvalues ---    0.16000   0.19910   0.34362   0.34494   0.34909
     Eigenvalues ---    0.42321   0.532521000.000001000.000001000.00000
 RFO step:  Lambda=-1.89945067D-06 EMin= 1.48277659D-02
 Quartic linear search produced a step of -0.01215.
 Iteration  1 RMS(Cart)=  0.00108870 RMS(Int)=  0.00000100
[...]
 HarFok:  IExCor=  205 AccDes= 0.00D+00 IRadAn=         1 IDoV=-2
 ScaDFX=  1.000000  1.000000  1.000000  1.000000
 Largest valence mixing into a core orbital is  2.08D-04
 Largest core mixing into a valence orbital is  3.04D-05
 Range of M.O.s used for correlation:     3    38
 NBasis=    38 NAE=     9 NBE=     9 NFC=     2 NFV=     0
 NROrb=     36 NOA=     7 NOB=     7 NVA=    29 NVB=    29
 Leave Link  801 at Fri Dec 20 15:00:47 2019, MaxMem=   91750400 cpu:       0.3
 (Enter /opt/g09gh/gaussian/g09/l906.exe)
 Frozen-core derivative calculation, NFC=   2 NFV=   0.
 FulOut=F Deriv=T AODrv=T NAtomX=     6
   MMem=        3035  MDisk=           7 MDiskD=           7
  W3Min=       12996 MinDsk=       75631 NBas6D=          38
 NBas2D=         795    NTT=         741    LW2=     2040000
    MDV=    91724333 MDiskM=       32793 NBas2p=         795
 Fully direct method using O(ONN) memory.
 IMap=   1   2   3   4   5   6   7   8   9
 JobTyp=1 Pass  1:  I=   3 to   9 NPSUse=  1 ParTrn=F ParDer=F DoDerP=T.
 Spin components of T(2) and E(2):
     alpha-alpha T2 =       0.1090024293D-01 E2=     -0.3808615987D-01
     alpha-beta  T2 =       0.6904367839D-01 E2=     -0.2358502182D+00
     beta-beta   T2 =       0.1090024293D-01 E2=     -0.3808615987D-01
 The integrals were generated   1 times.
 ANorm=    0.1044434854D+01
 E2 =    -0.3120225380D+00 EUMP2 =    -0.11534613545122D+03
 Leave Link  906 at Fri Dec 20 15:00:47 2019, MaxMem=   91750400 cpu:       0.3
 (Enter /opt/g09gh/gaussian/g09/l1002.exe)
 Minotr:  Closed shell wavefunction.
          Computing MP2/KS-MP2 derivatives.
          Using Z-Vector for PSCF gradient.
          Skipping F1 and S1 gradient terms here.
          IDoAtm=111111
          Frozen-core window.
          Direct CPHF calculation.
          Differentiating once with respect to electric field.
                with respect to dipole field.
          Differentiating once with respect to nuclear coordinates.
          Requested convergence is 1.0D-10 RMS, and 1.0D-09 maximum.
          NewPWx=F KeepS1=T KeepF1=T KeepIn=T MapXYZ=F SortEE=F KeepMc=T.
          MDV=      91750336 using IRadAn=       0.
          Keep R1 ints in memory in canonical form, NReq=1095534.
 Symmetry not used in FoFDir.
 MinBra= 0 MaxBra= 2 Meth= 1.
 IRaf=       0 NMat=   1 IRICut=       1 DoRegI=T DoRafI=F ISym2E= 0 JSym2E=0.
          Solving linear equations separately, MaxMat=       0.
          There are     1 degrees of freedom in the 1st order CPHF.  IDoFFX=0.
 LinEq1:  Iter=  0 NonCon=     1 RMS=6.21D-03 Max=3.37D-02
 AX will form     1 AO Fock derivatives at one time.
 LinEq1:  Iter=  1 NonCon=     1 RMS=1.89D-03 Max=1.10D-02
 LinEq1:  Iter=  2 NonCon=     1 RMS=3.93D-04 Max=2.79D-03
 LinEq1:  Iter=  3 NonCon=     1 RMS=1.75D-04 Max=1.13D-03
 LinEq1:  Iter=  4 NonCon=     1 RMS=2.96D-05 Max=1.46D-04
 LinEq1:  Iter=  5 NonCon=     1 RMS=5.15D-06 Max=2.01D-05
 LinEq1:  Iter=  6 NonCon=     1 RMS=8.18D-07 Max=4.83D-06
 LinEq1:  Iter=  7 NonCon=     1 RMS=1.18D-07 Max=7.27D-07
 LinEq1:  Iter=  8 NonCon=     1 RMS=1.21D-08 Max=5.07D-08
 LinEq1:  Iter=  9 NonCon=     1 RMS=1.97D-09 Max=9.18D-09
 LinEq1:  Iter= 10 NonCon=     1 RMS=2.78D-10 Max=1.01D-09
 LinEq1:  Iter= 11 NonCon=     0 RMS=4.37D-11 Max=2.26D-10
 Linear equations converged to 1.000D-10 1.000D-09 after    11 iterations.
 End of Minotr Frequency-dependent properties file   721 does not exist.
 End of Minotr Frequency-dependent properties file   722 does not exist.
 Leave Link 1002 at Fri Dec 20 15:00:48 2019, MaxMem=   91750400 cpu:       0.1
 (Enter /opt/g09gh/gaussian/g09/l701.exe)
 Compute integral first derivatives.
 ... and contract with generalized density number  2.
 Leave Link  701 at Fri Dec 20 15:00:48 2019, MaxMem=   91750400 cpu:       0.1
 (Enter /opt/g09gh/gaussian/g09/l702.exe)
 L702 exits ... SP integral derivatives will be done elsewhere.
 Leave Link  702 at Fri Dec 20 15:00:48 2019, MaxMem=   91750400 cpu:       0.2
 (Enter /opt/g09gh/gaussian/g09/l703.exe)
 Compute integral first derivatives, UseDBF=F ICtDFT=           0.
 Integral derivatives from FoFDir, PRISM(SPDF).
 Calling FoFJK, ICntrl=      2127 FMM=F ISym2X=0 I1Cent= 0 IOpClX= 0 NMat=1 NMatS=1 NMatT=0.
 FoFCou: FMM=F IPFlag=           0 FMFlag=      100000 FMFlg1=         800
         NFxFlg=           0 DoJE=F BraDBF=F KetDBF=F FulRan=T
         Omega=  0.000000  0.000000  1.000000  0.000000  0.000000 ICntrl=    2127 IOpCl=  0
         NMat0=    1 NMatS0=    1 NMatT0=    0 NMatD0=    1 NMtDS0=    0 NMtDT0=    0
         I1Cent=           0 NGrid=           0.
 Symmetry not used in FoFCou.
 Leave Link  703 at Fri Dec 20 15:00:48 2019, MaxMem=   91750400 cpu:       0.1
 (Enter /opt/g09gh/gaussian/g09/l716.exe)
 Dipole        =-3.46666246D-01-6.34038629D-01-3.49494979D-07
 ***** Axes restored to original set *****
 -------------------------------------------------------------------
 Center     Atomic                   Forces (Hartrees/Bohr)
 Number     Number              X              Y              Z
 -------------------------------------------------------------------
      1        8          -0.000008914   -0.000090535   -0.000030663
      2        6           0.000105320    0.000096945    0.000032939
      3        1          -0.000056247   -0.000001660   -0.000007090
      4        1          -0.000056374   -0.000005579    0.000004508
      5        1          -0.000071098   -0.000015917   -0.000005412
      6        1           0.000087312    0.000016745    0.000005718
 -------------------------------------------------------------------
 Cartesian Forces:  Max     0.000105320 RMS     0.000052974
 Leave Link  716 at Fri Dec 20 15:00:49 2019, MaxMem=   91750400 cpu:       0.0
 (Enter /opt/g09gh/gaussian/g09/l103.exe)

 GradGradGradGradGradGradGradGradGradGradGradGradGradGradGradGradGradGrad
 Berny optimization.
 Using GEDIIS/GDIIS optimizer.
 Internal  Forces:  Max     0.000162138 RMS     0.000061532
 Search for a local minimum.
 Step number   4 out of a maximum of  100
 All quantities printed in internal units (Hartrees-Bohrs-Radians)
 RMS Force = .61532D-04 SwitMx=.10000D-02 MixMth= 2
 Mixed Optimization -- En-DIIS/RFO-DIIS
 Swaping is turned off.
 Update second derivatives using D2CorX and points    1    2    3    4
 DE= -6.91D-07 DEPred=-9.63D-07 R= 7.17D-01
 Trust test= 7.17D-01 RLast= 2.72D-03 DXMaxT set to 3.71D-01
 The second derivative matrix:
                          R1        R2        R3        R4        R5
           R1           0.41255
           R2          -0.00044   0.53218
           R3           0.00762   0.00033   0.34367
           R4           0.00768   0.00034  -0.00122   0.34377
           R5          -0.00511   0.00287   0.00087   0.00088   0.34720
           A1           0.03817   0.00819   0.00045   0.00045   0.00908
           A2           0.01063  -0.00230   0.00048   0.00048  -0.00173
           A3           0.01060  -0.00231   0.00048   0.00048  -0.00174
           A4           0.02130   0.00655   0.00140   0.00143   0.00662
           A5          -0.03102   0.00436   0.00073   0.00077   0.00257
           A6          -0.00598  -0.00296  -0.00115  -0.00117  -0.00265
           A7          -0.00619  -0.00296  -0.00114  -0.00116  -0.00267
           D1           0.01122  -0.00941   0.00143   0.00145  -0.00859
           D2          -0.01115   0.00941  -0.00143  -0.00144   0.00859
           D3          -0.00010   0.00000   0.00000   0.00000  -0.00001
                          A1        A2        A3        A4        A5
           A1           0.19805
           A2           0.00182   0.16328
           A3           0.00181   0.00328   0.16328
           A4           0.02928   0.00298   0.00298   0.17687
           A5          -0.00328  -0.01416  -0.01419   0.00599   0.16608
           A6          -0.01460   0.00252   0.00254  -0.01493   0.00859
           A7          -0.01461   0.00250   0.00252  -0.01493   0.00857
           D1          -0.00971   0.01817   0.01820  -0.02180  -0.00817
           D2           0.00974  -0.01814  -0.01818   0.02180   0.00815
           D3          -0.00004  -0.00003  -0.00003  -0.00001   0.00002
                          A6        A7        D1        D2        D3
           A6           0.16058
           A7           0.00061   0.16064
           D1          -0.00433  -0.00433   0.02574
           D2           0.00431   0.00431  -0.01090   0.02572
           D3           0.00002   0.00002  -0.00001   0.00001   0.01483
     Eigenvalues ---    0.01483   0.10555   0.10590   0.15856   0.16000
     Eigenvalues ---    0.18518   0.22203   0.34090   0.34494   0.34901
     Eigenvalues ---    0.42759   0.532921000.000001000.000001000.00000
 En-DIIS/RFO-DIIS IScMMF=        0 using points:     4    3
 RFO step:  Lambda=-1.12071348D-07.
 DIIS coeffs:      0.77935      0.22065
 Iteration  1 RMS(Cart)=  0.00037876 RMS(Int)=  0.00000008
 Iteration  2 RMS(Cart)=  0.00000007 RMS(Int)=  0.00000002
 Variable       Old X    -DE/DX   Delta X   Delta X   Delta X     New X
                                  (DIIS)     (GDIIS)  (Total)
    R1        2.69195   0.00008   0.00035  -0.00029   0.00006   2.69201
    R2        1.83330   0.00001   0.00003  -0.00002   0.00001   1.83330
    R3        2.07312   0.00002  -0.00002   0.00007   0.00005   2.07317
    R4        2.07312   0.00002  -0.00002   0.00007   0.00005   2.07317
    R5        2.05966   0.00001   0.00007  -0.00008  -0.00001   2.05965
    A1        1.87322   0.00016   0.00030   0.00040   0.00070   1.87393
    A2        1.95959   0.00005  -0.00001   0.00025   0.00024   1.95983
    A3        1.95959   0.00005  -0.00001   0.00025   0.00024   1.95983
    A4        1.85453   0.00009   0.00031   0.00004   0.00035   1.85487
    A5        1.89920  -0.00007   0.00000  -0.00036  -0.00036   1.89884
    A6        1.89426  -0.00006  -0.00015  -0.00009  -0.00024   1.89402
    A7        1.89427  -0.00006  -0.00015  -0.00009  -0.00024   1.89402
    D1        1.07328  -0.00001  -0.00001  -0.00005  -0.00006   1.07322
    D2       -1.07327   0.00001   0.00001   0.00005   0.00006  -1.07321
    D3       -3.14159   0.00000   0.00000   0.00000   0.00000  -3.14159
         Item               Value     Threshold  Converged?
 Maximum Force            0.000162     0.000450     YES
 RMS     Force            0.000062     0.000300     YES
 Maximum Displacement     0.001097     0.001800     YES
 RMS     Displacement     0.000379     0.001200     YES
 Predicted change in Energy=-1.134779D-07
 Optimization completed.
    -- Stationary point found.
                           ----------------------------
                           !   Optimized Parameters   !
                           ! (Angstroms and Degrees)  !
 --------------------------                            --------------------------
 ! Name  Definition              Value          Derivative Info.                !
 --------------------------------------------------------------------------------
 ! R1    R(1,2)                  1.4245         -DE/DX =    0.0001              !
 ! R2    R(1,6)                  0.9701         -DE/DX =    0.0                 !
 ! R3    R(2,3)                  1.097          -DE/DX =    0.0                 !
 ! R4    R(2,4)                  1.097          -DE/DX =    0.0                 !
 ! R5    R(2,5)                  1.0899         -DE/DX =    0.0                 !
 ! A1    A(2,1,6)              107.3276         -DE/DX =    0.0002              !
 ! A2    A(1,2,3)              112.2762         -DE/DX =    0.0                 !
 ! A3    A(1,2,4)              112.2761         -DE/DX =    0.0                 !
 ! A4    A(1,2,5)              106.2565         -DE/DX =    0.0001              !
 ! A5    A(3,2,4)              108.8163         -DE/DX =   -0.0001              !
 ! A6    A(3,2,5)              108.5334         -DE/DX =   -0.0001              !
 ! A7    A(4,2,5)              108.5334         -DE/DX =   -0.0001              !
 ! D1    D(6,1,2,3)             61.4946         -DE/DX =    0.0                 !
 ! D2    D(6,1,2,4)            -61.4937         -DE/DX =    0.0                 !
 ! D3    D(6,1,2,5)           -179.9996         -DE/DX =    0.0                 !
 --------------------------------------------------------------------------------
 GradGradGradGradGradGradGradGradGradGradGradGradGradGradGradGradGradGrad

 Largest change from initial coordinates is atom    4       2.256 Angstoms.
 Leave Link  103 at Fri Dec 20 15:00:49 2019, MaxMem=   91750400 cpu:       0.0
 (Enter /opt/g09gh/gaussian/g09/l202.exe)
                          Input orientation:                          
 ---------------------------------------------------------------------
 Center     Atomic      Atomic             Coordinates (Angstroms)
 Number     Number       Type             X           Y           Z
 ---------------------------------------------------------------------
      1          8           0        0.718940    0.008413    0.002867
      2          6           0       -0.705347   -0.015997   -0.005408
      3          1           0       -1.112379   -0.767979    0.681878
      4          1           0       -1.112364   -0.195946   -1.008138
      5          1           0       -1.029341    0.969723    0.328234
      6          1           0        1.024591   -0.863713   -0.292333
 ---------------------------------------------------------------------
                    Distance matrix (angstroms):
                    1          2          3          4          5
     1  O    0.000000
     2  C    1.424520   0.000000
     3  H    2.101801   1.097048   0.000000
     4  H    2.101801   1.097047   1.784202   0.000000
     5  H    2.021500   1.089923   1.775266   1.775266   0.000000
     6  H    0.970139   1.947725   2.350509   2.350503   2.822273
                    6
     6  H    0.000000
 Stoichiometry    CH4O
 Framework group  C1[X(CH4O)]
 Deg. of freedom    12
 Full point group                 C1      NOp   1
 Largest Abelian subgroup         C1      NOp   1
 Largest concise Abelian subgroup C1      NOp   1
                         Standard orientation:                         
 ---------------------------------------------------------------------
 Center     Atomic      Atomic             Coordinates (Angstroms)
 Number     Number       Type             X           Y           Z
 ---------------------------------------------------------------------
      1          8           0        0.750867    0.122706    0.000000
      2          6           0       -0.666540   -0.019469    0.000000
      3          1           0       -1.031969   -0.543037    0.892105
      4          1           0       -1.031967   -0.543052   -0.892097
      5          1           0       -1.074559    0.991201   -0.000008
      6          1           0        1.130797   -0.769944    0.000000
 ---------------------------------------------------------------------
 Rotational constants (GHZ):    127.1724553     24.6964635     23.8057340
 Leave Link  202 at Fri Dec 20 15:00:49 2019, MaxMem=   91750400 cpu:       0.0
 (Enter /opt/g09gh/gaussian/g09/l601.exe)
 Copying SCF densities to generalized density rwf, IOpCl= 0 IROHF=0.

 **********************************************************************

            Population analysis using the SCF density.

 **********************************************************************

 Orbital symmetries:
       Occupied  (A) (A) (A) (A) (A) (A) (A) (A) (A)
       Virtual   (A) (A) (A) (A) (A) (A) (A) (A) (A) (A) (A) (A)
                 (A) (A) (A) (A) (A) (A) (A) (A) (A) (A) (A) (A)
                 (A) (A) (A) (A) (A)
 The electronic state is 1-A.
 Alpha  occ. eigenvalues --  -20.55984 -11.27230  -1.34779  -0.92184  -0.68354
 Alpha  occ. eigenvalues --   -0.61548  -0.58620  -0.49963  -0.44530
 Alpha virt. eigenvalues --    0.22266   0.27646   0.31924   0.32692   0.37938
 Alpha virt. eigenvalues --    0.76218   0.77698   0.78695   1.04798   1.12217
 Alpha virt. eigenvalues --    1.14507   1.17244   1.20529   1.25515   1.26675
 Alpha virt. eigenvalues --    1.40522   1.72357   1.77629   1.85832   2.03807
 Alpha virt. eigenvalues --    2.36704   2.44400   2.45557   2.67807   2.73273
 Alpha virt. eigenvalues --    2.78304   3.15182   4.11459   4.63694
          Condensed to atoms (all electrons):
              1          2          3          4          5          6
     1  O    8.361051   0.216627  -0.035985  -0.035985  -0.036162   0.258567
     2  C    0.216627   4.799933   0.389416   0.389416   0.400605  -0.027067
     3  H   -0.035985   0.389416   0.582825  -0.043118  -0.032584  -0.003995
     4  H   -0.035985   0.389416  -0.043118   0.582825  -0.032584  -0.003996
     5  H   -0.036162   0.400605  -0.032584  -0.032584   0.519279   0.005331
     6  H    0.258567  -0.027067  -0.003995  -0.003996   0.005331   0.337114
 Mulliken atomic charges:
              1
     1  O   -0.728113
     2  C   -0.168930
     3  H    0.143441
     4  H    0.143441
     5  H    0.176114
     6  H    0.434046
 Sum of Mulliken atomic charges =   0.00000
 Mulliken charges with hydrogens summed into heavy atoms:
              1
     1  O   -0.294067
     2  C    0.294067
 Sum of Mulliken charges with hydrogens summed into heavy atoms =   0.00000
 Electronic spatial extent (au):  <R**2>=             84.3140
 Charge=              0.0000 electrons
 Dipole moment (field-independent basis, Debye):
    X=             -1.0057    Y=             -1.6719    Z=              0.0000  Tot=              1.9510
 Quadrupole moment (field-independent basis, Debye-Ang):
   XX=            -12.7159   YY=            -11.9891   ZZ=            -13.6796
   XY=             -2.3411   XZ=              0.0000   YZ=              0.0000
 Traceless Quadrupole moment (field-independent basis, Debye-Ang):
   XX=              0.0790   YY=              0.8057   ZZ=             -0.8847
   XY=             -2.3411   XZ=              0.0000   YZ=              0.0000
 Octapole moment (field-independent basis, Debye-Ang**2):
  XXX=              4.1468  YYY=             -0.7801  ZZZ=              0.0000  XYY=              1.9494
  XXY=             -2.4497  XXZ=              0.0000  XZZ=              0.5062  YZZ=             -0.6031
  YYZ=              0.0000  XYZ=              0.0000
 Hexadecapole moment (field-independent basis, Debye-Ang**3):
 XXXX=            -60.0831 YYYY=            -19.0836 ZZZZ=            -19.0032 XXXY=             -3.8608
 XXXZ=              0.0000 YYYX=             -3.0285 YYYZ=              0.0000 ZZZX=              0.0000
 ZZZY=              0.0000 XXYY=            -12.0187 XXZZ=            -13.7726 YYZZ=             -6.5143
 XXYZ=              0.0000 YYXZ=              0.0000 ZZXY=              0.0663
 N-N= 4.017936124744D+01 E-N=-3.512898681406D+02  KE= 1.147267496947D+02
 No NMR shielding tensors so no spin-rotation constants.
 Leave Link  601 at Fri Dec 20 15:00:49 2019, MaxMem=   91750400 cpu:       0.3
 (Enter /opt/g09gh/gaussian/g09/l9999.exe)
 1\1\GINC-BME-NOVA\FOpt\RMP2-FC\6-31G(d)\C1H4O1\BDW2292\20-Dec-2019\0\\
 #P opt=(maxcycle=400) MP2/6-31G* Guess=INDO MaxDisk=100GB\\methanol Ga
 ussian SP Calculation on bme-nova.bme.utexas.edu\\0,1\O,0.7189397206,0
 .0084131044,0.0028666252\C,-0.7053471146,-0.0159974277,-0.005407641\H,
 -1.1123788285,-0.7679791182,0.681878401\H,-1.112364176,-0.1959464074,-
 1.0081380523\H,-1.029340526,0.9697228258,0.3282341303\H,1.0245909245,-
 0.8637129768,-0.2923334632\\Version=EM64L-G09RevA.02\State=1-A\HF=-115
 .0341129\MP2=-115.3461355\RMSD=2.814e-09\RMSF=5.297e-05\Dipole=-0.3973
 601,-0.5716984,-0.1935159\PG=C01 [X(C1H4O1)]\\@


 THE SECRET OF SUCCESS IN LIFE IS TO EAT WHAT YOU LIKE, AND LET THE FOOD
 FIGHT IT OUT INSIDE YOU. -- FROM A FORTUNE COOKIE
 Job cpu time:  0 days  0 hours  0 minutes 13.8 seconds.
 File lengths (MBytes):  RWF=      5 Int=      0 D2E=      0 Chk=      1 Scr=      1
 Normal termination of Gaussian 09 at Fri Dec 20 15:00:49 2019.
