 Entering Gaussian System, Link 0=g09
 Input=methanol-opt-6-1-2-3-091.com
 Output=methanol-opt-6-1-2-3-091.log
 Initial command:
 /opt/g09gh/gaussian/g09/l1.exe /scratch/bdw2292/Gau-methanol/Gau-96115.inp -scrdir=/scratch/bdw2292/Gau-methanol/
 Entering Link 1 = /opt/g09gh/gaussian/g09/l1.exe PID=     96116.
  
 Copyright (c) 1988,1990,1992,1993,1995,1998,2003,2009, Gaussian, Inc.
                  All Rights Reserved.
  
 This is part of the Gaussian(R) 09 program.  It is based on
 the Gaussian(R) 03 system (copyright 2003, Gaussian, Inc.),
 the Gaussian(R) 98 system (copyright 1998, Gaussian, Inc.),
 the Gaussian(R) 94 system (copyright 1995, Gaussian, Inc.),
 the Gaussian 92(TM) system (copyright 1992, Gaussian, Inc.),
 the Gaussian 90(TM) system (copyright 1990, Gaussian, Inc.),
 the Gaussian 88(TM) system (copyright 1988, Gaussian, Inc.),
 the Gaussian 86(TM) system (copyright 1986, Carnegie Mellon
 University), and the Gaussian 82(TM) system (copyright 1983,
 Carnegie Mellon University). Gaussian is a federally registered
 trademark of Gaussian, Inc.
  
 This software contains proprietary and confidential information,
 including trade secrets, belonging to Gaussian, Inc.
  
 This software is provided under written license and may be
 used, copied, transmitted, or stored only in accord with that
 written license.
  
 The following legend is applicable only to US Government
 contracts under FAR:
  
                    RESTRICTED RIGHTS LEGEND
  
 Use, reproduction and disclosure by the US Government is
 subject to restrictions as set forth in subparagraphs (a)
 and (c) of the Commercial Computer Software - Restricted
 Rights clause in FAR 52.227-19.
  
 Gaussian, Inc.
 340 Quinnipiac St., Bldg. 40, Wallingford CT 06492
  
  
 ---------------------------------------------------------------
 Warning -- This program may not be used in any manner that
 competes with the business of Gaussian, Inc. or will provide
 assistance to any competitor of Gaussian, Inc.  The licensee
 of this program is prohibited from giving any competitor of
 Gaussian, Inc. access to this program.  By using this program,
 the user acknowledges that Gaussian, Inc. is engaged in the
 business of creating and licensing software in the field of
 computational chemistry and represents and warrants to the
 licensee that it is not a competitor of Gaussian, Inc. and that
 it will not use this program in any manner prohibited above.
 ---------------------------------------------------------------
  

 Cite this work as:
 Gaussian 09, Revision A.02,
 M. J. Frisch, G. W. Trucks, H. B. Schlegel, G. E. Scuseria, 
 M. A. Robb, J. R. Cheeseman, G. Scalmani, V. Barone, B. Mennucci, 
 G. A. Petersson, H. Nakatsuji, M. Caricato, X. Li, H. P. Hratchian, 
 A. F. Izmaylov, J. Bloino, G. Zheng, J. L. Sonnenberg, M. Hada, 
 M. Ehara, K. Toyota, R. Fukuda, J. Hasegawa, M. Ishida, T. Nakajima, 
 Y. Honda, O. Kitao, H. Nakai, T. Vreven, J. A. Montgomery, Jr., 
 J. E. Peralta, F. Ogliaro, M. Bearpark, J. J. Heyd, E. Brothers, 
 K. N. Kudin, V. N. Staroverov, R. Kobayashi, J. Normand, 
 K. Raghavachari, A. Rendell, J. C. Burant, S. S. Iyengar, J. Tomasi, 
 M. Cossi, N. Rega, J. M. Millam, M. Klene, J. E. Knox, J. B. Cross, 
 V. Bakken, C. Adamo, J. Jaramillo, R. Gomperts, R. E. Stratmann, 
 O. Yazyev, A. J. Austin, R. Cammi, C. Pomelli, J. W. Ochterski, 
 R. L. Martin, K. Morokuma, V. G. Zakrzewski, G. A. Voth, 
 P. Salvador, J. J. Dannenberg, S. Dapprich, A. D. Daniels, 
 O. Farkas, J. B. Foresman, J. V. Ortiz, J. Cioslowski, 
 and D. J. Fox, Gaussian, Inc., Wallingford CT, 2009.
 
 ******************************************
 Gaussian 09:  EM64L-G09RevA.02 11-Jun-2009
                21-Dec-2019 
 ******************************************
 %RWF=/scratch/bdw2292/Gau-methanol/,100GB
 %Nosave
 %Chk=methanol-opt-6-1-2-3-091.chk
 %Mem=20GB
 %Nproc=4
 Will use up to    4 processors via shared memory.
 ----------------------------------------------
 #P opt=(,maxcycle=400) HF/6-31G* MaxDisk=100GB
 ----------------------------------------------
 1/6=400,18=20,19=15,38=1/1,3;
 2/9=110,12=2,17=6,18=5,40=1/2;
 3/5=1,6=6,7=1,11=9,16=1,25=1,30=1,71=1/1,2,3;
 4//1;
 5/5=2,38=5/2;
 6/7=2,8=2,9=2,10=2,28=1/1;
 7//1,2,3,16;
 1/6=400,18=20,19=15/3(2);
 2/9=110/2;
 99//99;
 2/9=110/2;
 3/5=1,6=6,7=1,11=9,16=1,25=1,30=1,71=1/1,2,3;
 4/5=5,16=3/1;
 5/5=2,38=5/2;
 7//1,2,3,16;
 1/6=400,18=20,19=15/3(-5);
 2/9=110/2;
 6/7=2,8=2,9=2,10=2,19=2,28=1/1;
 99/9=1/99;
 Leave Link    1 at Sat Dec 21 15:21:09 2019, MaxMem= 2684354560 cpu:       0.1
 (Enter /opt/g09gh/gaussian/g09/l101.exe)
 ---------------------------------------------------------------
 methanol Rotatable Bond Optimization on bme-nova.bme.utexas.edu
 ---------------------------------------------------------------
 Symbolic Z-matrix:
 Charge =  0 Multiplicity = 1
 O                     0.7346    0.10948   0.00356 
 C                    -0.68738  -0.00934  -0.00056 
 H                    -1.0302   -0.02823   1.03997 
 H                    -0.96361  -0.92278  -0.53933 
 H                    -1.08769   0.8697   -0.51864 
 H                     1.11127  -0.78453  -0.0011 
 
 NAtoms=      6 NQM=      6 NQMF=      0 NMic=      0 NMicF=      0 NTot=      6.
                    Isotopes and Nuclear Properties:
 (Nuclear quadrupole moments (NQMom) in fm**2, nuclear magnetic moments (NMagM)
  in nuclear magnetons)

  Atom         1           2           3           4           5           6
 IAtWgt=          16          12           1           1           1           1
 AtmWgt=  15.9949146  12.0000000   1.0078250   1.0078250   1.0078250   1.0078250
 NucSpn=           0           0           1           1           1           1
 AtZEff=   0.0000000   0.0000000   0.0000000   0.0000000   0.0000000   0.0000000
 NQMom=    0.0000000   0.0000000   0.0000000   0.0000000   0.0000000   0.0000000
 NMagM=    0.0000000   0.0000000   2.7928460   2.7928460   2.7928460   2.7928460
 Leave Link  101 at Sat Dec 21 15:21:09 2019, MaxMem= 2684354560 cpu:       0.3
 (Enter /opt/g09gh/gaussian/g09/l103.exe)

 GradGradGradGradGradGradGradGradGradGradGradGradGradGradGradGradGradGrad
 Berny optimization.
 Initialization pass.
                           ----------------------------
                           !    Initial Parameters    !
                           ! (Angstroms and Degrees)  !
 --------------------------                            --------------------------
 ! Name  Definition              Value          Derivative Info.                !
 --------------------------------------------------------------------------------
 ! R1    R(1,2)                  1.4269         estimate D2E/DX2                !
 ! R2    R(1,6)                  0.9701         estimate D2E/DX2                !
 ! R3    R(2,3)                  1.0957         estimate D2E/DX2                !
 ! R4    R(2,4)                  1.0959         estimate D2E/DX2                !
 ! R5    R(2,5)                  1.0961         estimate D2E/DX2                !
 ! A1    A(2,1,6)              108.0695         estimate D2E/DX2                !
 ! A2    A(1,2,3)              108.0874         estimate D2E/DX2                !
 ! A3    A(1,2,4)              108.7842         estimate D2E/DX2                !
 ! A4    A(1,2,5)              107.37           estimate D2E/DX2                !
 ! A5    A(3,2,4)              111.9399         estimate D2E/DX2                !
 ! A6    A(3,2,5)              110.3914         estimate D2E/DX2                !
 ! A7    A(4,2,5)              110.124          estimate D2E/DX2                !
 ! D1    D(6,1,2,3)             90.8783         estimate D2E/DX2                !
 ! D2    D(6,1,2,4)            -30.8746         estimate D2E/DX2                !
 ! D3    D(6,1,2,5)           -150.029          estimate D2E/DX2                !
 --------------------------------------------------------------------------------
 Trust Radius=3.00D-01 FncErr=1.00D-07 GrdErr=1.00D-07
 Number of steps in this run= 100 maximum allowed number of steps= 100.
 GradGradGradGradGradGradGradGradGradGradGradGradGradGradGradGradGradGrad

 Leave Link  103 at Sat Dec 21 15:21:09 2019, MaxMem= 2684354560 cpu:       0.0
 (Enter /opt/g09gh/gaussian/g09/l202.exe)
                          Input orientation:                          
 ---------------------------------------------------------------------
 Center     Atomic      Atomic             Coordinates (Angstroms)
 Number     Number       Type             X           Y           Z
 ---------------------------------------------------------------------
      1          8           0        0.734603    0.109477    0.003564
      2          6           0       -0.687383   -0.009337   -0.000564
      3          1           0       -1.030196   -0.028234    1.039971
      4          1           0       -0.963605   -0.922780   -0.539327
      5          1           0       -1.087688    0.869702   -0.518640
      6          1           0        1.111269   -0.784529   -0.001103
 ---------------------------------------------------------------------
                    Distance matrix (angstroms):
                    1          2          3          4          5
     1  O    0.000000
     2  C    1.426947   0.000000
     3  H    2.051248   1.095715   0.000000
     4  H    2.060145   1.095875   1.816268   0.000000
     5  H    2.042397   1.096064   1.799684   1.796891   0.000000
     6  H    0.970127   1.958589   2.498337   2.147999   2.799953
                    6
     6  H    0.000000
 Stoichiometry    CH4O
 Framework group  C1[X(CH4O)]
 Deg. of freedom    12
 Full point group                 C1      NOp   1
 Largest Abelian subgroup         C1      NOp   1
 Largest concise Abelian subgroup C1      NOp   1
                         Standard orientation:                         
 ---------------------------------------------------------------------
 Center     Atomic      Atomic             Coordinates (Angstroms)
 Number     Number       Type             X           Y           Z
 ---------------------------------------------------------------------
      1          8           0       -0.743853   -0.129573   -0.003568
      2          6           0        0.674940    0.022650    0.002160
      3          1           0        1.013639    0.015512    1.044189
      4          1           0        0.931382    0.959472   -0.505329
      5          1           0        1.097648   -0.829321   -0.542652
      6          1           0       -1.141487    0.755021    0.019373
 ---------------------------------------------------------------------
 Rotational constants (GHZ):    124.4972283     24.8506175     23.9642149
 Leave Link  202 at Sat Dec 21 15:21:09 2019, MaxMem= 2684354560 cpu:       0.0
 (Enter /opt/g09gh/gaussian/g09/l301.exe)
 Standard basis: 6-31G(d) (6D, 7F)
 Ernie: Thresh=  0.10000D-02 Tol=  0.10000D-05 Strict=F.
 There are    38 symmetry adapted basis functions of A   symmetry.
 Integral buffers will be    131072 words long.
 Raffenetti 1 integral format.
 Two-electron integral symmetry is turned on.
    38 basis functions,    72 primitive gaussians,    38 cartesian basis functions
     9 alpha electrons        9 beta electrons
       nuclear repulsion energy        40.1958127453 Hartrees.
 IExCor=    0 DFT=F Ex=HF Corr=None ExCW=0 ScaHFX=  1.000000
 ScaDFX=  1.000000  1.000000  1.000000  1.000000 ScalE2=  1.000000  1.000000
 IRadAn=      0 IRanWt=     -1 IRanGd=            0 ICorTp=0
 NAtoms=    6 NActive=    6 NUniq=    6 SFac= 7.50D-01 NAtFMM=   80 NAOKFM=F Big=F
 Leave Link  301 at Sat Dec 21 15:21:09 2019, MaxMem= 2684354560 cpu:       0.2
 (Enter /opt/g09gh/gaussian/g09/l302.exe)
 NPDir=0 NMtPBC=     1 NCelOv=     1 NCel=       1 NClECP=     1 NCelD=      1
         NCelK=      1 NCelE2=     1 NClLst=     1 CellRange=     0.0.
 One-electron integrals computed using PRISM.
 NBasis=    38 RedAO= T  NBF=    38
 NBsUse=    38 1.00D-06 NBFU=    38
 Leave Link  302 at Sat Dec 21 15:21:09 2019, MaxMem= 2684354560 cpu:       0.5
 (Enter /opt/g09gh/gaussian/g09/l303.exe)
 DipDrv:  MaxL=1.
 Leave Link  303 at Sat Dec 21 15:21:09 2019, MaxMem= 2684354560 cpu:       0.1
 (Enter /opt/g09gh/gaussian/g09/l401.exe)
 Harris functional with IExCor=  205 diagonalized for initial guess.
 ExpMin= 1.61D-01 ExpMax= 5.48D+03 ExpMxC= 8.25D+02 IAcc=1 IRadAn=         1 AccDes= 0.00D+00
 HarFok:  IExCor=  205 AccDes= 0.00D+00 IRadAn=         1 IDoV= 1
 ScaDFX=  1.000000  1.000000  1.000000  1.000000
 FoFCou: FMM=F IPFlag=           0 FMFlag=      100000 FMFlg1=           0
         NFxFlg=           0 DoJE=T BraDBF=F KetDBF=T FulRan=T
         Omega=  0.000000  0.000000  1.000000  0.000000  0.000000 ICntrl=     500 IOpCl=  0
         NMat0=    1 NMatS0=    1 NMatT0=    0 NMatD0=    1 NMtDS0=    0 NMtDT0=    0
         I1Cent=           4 NGrid=           0.
 Petite list used in FoFCou.
 Harris En= -115.209470619848    
 Initial guess orbital symmetries:
       Occupied  (A) (A) (A) (A) (A) (A) (A) (A) (A)
       Virtual   (A) (A) (A) (A) (A) (A) (A) (A) (A) (A) (A) (A)
                 (A) (A) (A) (A) (A) (A) (A) (A) (A) (A) (A) (A)
                 (A) (A) (A) (A) (A)
 The electronic state of the initial guess is 1-A.
 Leave Link  401 at Sat Dec 21 15:21:09 2019, MaxMem= 2684354560 cpu:       0.6
 (Enter /opt/g09gh/gaussian/g09/l502.exe)
 Closed shell SCF:
 Requested convergence on RMS density matrix=1.00D-08 within 128 cycles.
 Requested convergence on MAX density matrix=1.00D-06.
 Requested convergence on             energy=1.00D-06.
 No special actions if energy rises.
 Using DIIS extrapolation, IDIIS=  1040.
 Integral symmetry usage will be decided dynamically.
 Keep R1 ints in memory in canonical form, NReq=1117925.
 IEnd=       23000 IEndB=       23000 NGot=  2684354560 MDV=  2684074744
 LenX=  2684074744 LenY=  2684072859
 Symmetry not used in FoFDir.
 MinBra= 0 MaxBra= 2 Meth= 1.
 IRaf=       0 NMat=   1 IRICut=       1 DoRegI=T DoRafI=F ISym2E= 0 JSym2E=0.

 Cycle   1  Pass 1  IDiag  1:
 E= -114.923674637171    
 DIIS: error= 5.02D-02 at cycle   1 NSaved=   1.
 NSaved= 1 IEnMin= 1 EnMin= -114.923674637171     IErMin= 1 ErrMin= 5.02D-02
 ErrMax= 5.02D-02 EMaxC= 1.00D-01 BMatC= 1.66D-01 BMatP= 1.66D-01
 IDIUse=3 WtCom= 4.98D-01 WtEn= 5.02D-01
 Coeff-Com:  0.100D+01
 Coeff-En:   0.100D+01
 Coeff:      0.100D+01
 Gap=     0.647 Goal=   None    Shift=    0.000
 GapD=    0.647 DampG=2.000 DampE=0.500 DampFc=1.0000 IDamp=-1.
 RMSDP=9.24D-03 MaxDP=9.98D-02              OVMax= 1.01D-01

 Cycle   2  Pass 1  IDiag  1:
 E= -115.011856690503     Delta-E=       -0.088182053332 Rises=F Damp=F
 DIIS: error= 2.57D-02 at cycle   2 NSaved=   2.
 NSaved= 2 IEnMin= 2 EnMin= -115.011856690503     IErMin= 2 ErrMin= 2.57D-02
 ErrMax= 2.57D-02 EMaxC= 1.00D-01 BMatC= 2.81D-02 BMatP= 1.66D-01
 IDIUse=3 WtCom= 7.43D-01 WtEn= 2.57D-01
 Coeff-Com:  0.241D+00 0.759D+00
 Coeff-En:   0.000D+00 0.100D+01
 Coeff:      0.179D+00 0.821D+00
 Gap=     0.684 Goal=   None    Shift=    0.000
 RMSDP=3.71D-03 MaxDP=4.39D-02 DE=-8.82D-02 OVMax= 3.67D-02

 Cycle   3  Pass 1  IDiag  1:
 E= -115.030493847130     Delta-E=       -0.018637156626 Rises=F Damp=F
 DIIS: error= 6.32D-03 at cycle   3 NSaved=   3.
 NSaved= 3 IEnMin= 3 EnMin= -115.030493847130     IErMin= 3 ErrMin= 6.32D-03
 ErrMax= 6.32D-03 EMaxC= 1.00D-01 BMatC= 2.02D-03 BMatP= 2.81D-02
 IDIUse=3 WtCom= 9.37D-01 WtEn= 6.32D-02
 Coeff-Com: -0.165D-01 0.182D+00 0.835D+00
 Coeff-En:   0.000D+00 0.000D+00 0.100D+01
 Coeff:     -0.154D-01 0.170D+00 0.845D+00
 Gap=     0.658 Goal=   None    Shift=    0.000
 RMSDP=7.79D-04 MaxDP=1.20D-02 DE=-1.86D-02 OVMax= 1.03D-02

 Cycle   4  Pass 1  IDiag  1:
 E= -115.031953784406     Delta-E=       -0.001459937276 Rises=F Damp=F
 DIIS: error= 1.08D-03 at cycle   4 NSaved=   4.
 NSaved= 4 IEnMin= 4 EnMin= -115.031953784406     IErMin= 4 ErrMin= 1.08D-03
 ErrMax= 1.08D-03 EMaxC= 1.00D-01 BMatC= 6.64D-05 BMatP= 2.02D-03
 IDIUse=3 WtCom= 9.89D-01 WtEn= 1.08D-02
 Coeff-Com: -0.752D-02 0.214D-01 0.210D+00 0.776D+00
 Coeff-En:   0.000D+00 0.000D+00 0.000D+00 0.100D+01
 Coeff:     -0.744D-02 0.212D-01 0.208D+00 0.778D+00
 Gap=     0.659 Goal=   None    Shift=    0.000
 RMSDP=1.72D-04 MaxDP=1.85D-03 DE=-1.46D-03 OVMax= 2.21D-03

 Cycle   5  Pass 1  IDiag  1:
 E= -115.032010468709     Delta-E=       -0.000056684303 Rises=F Damp=F
 DIIS: error= 2.72D-04 at cycle   5 NSaved=   5.
 NSaved= 5 IEnMin= 5 EnMin= -115.032010468709     IErMin= 5 ErrMin= 2.72D-04
 ErrMax= 2.72D-04 EMaxC= 1.00D-01 BMatC= 2.77D-06 BMatP= 6.64D-05
 IDIUse=3 WtCom= 9.97D-01 WtEn= 2.72D-03
 Coeff-Com:  0.177D-02-0.172D-01-0.791D-01-0.326D-01 0.113D+01
 Coeff-En:   0.000D+00 0.000D+00 0.000D+00 0.000D+00 0.100D+01
 Coeff:      0.176D-02-0.171D-01-0.789D-01-0.326D-01 0.113D+01
 Gap=     0.660 Goal=   None    Shift=    0.000
 RMSDP=6.26D-05 MaxDP=5.29D-04 DE=-5.67D-05 OVMax= 6.97D-04

 Cycle   6  Pass 1  IDiag  1:
 E= -115.032014667071     Delta-E=       -0.000004198362 Rises=F Damp=F
 DIIS: error= 3.89D-05 at cycle   6 NSaved=   6.
 NSaved= 6 IEnMin= 6 EnMin= -115.032014667071     IErMin= 6 ErrMin= 3.89D-05
 ErrMax= 3.89D-05 EMaxC= 1.00D-01 BMatC= 6.61D-08 BMatP= 2.77D-06
 IDIUse=1 WtCom= 1.00D+00 WtEn= 0.00D+00
 Coeff-Com:  0.158D-03 0.221D-03-0.136D-02-0.276D-01-0.103D+00 0.113D+01
 Coeff:      0.158D-03 0.221D-03-0.136D-02-0.276D-01-0.103D+00 0.113D+01
 Gap=     0.660 Goal=   None    Shift=    0.000
 RMSDP=1.35D-05 MaxDP=1.28D-04 DE=-4.20D-06 OVMax= 1.62D-04

 Cycle   7  Pass 1  IDiag  1:
 E= -115.032014822838     Delta-E=       -0.000000155767 Rises=F Damp=F
 DIIS: error= 7.63D-06 at cycle   7 NSaved=   7.
 NSaved= 7 IEnMin= 7 EnMin= -115.032014822838     IErMin= 7 ErrMin= 7.63D-06
 ErrMax= 7.63D-06 EMaxC= 1.00D-01 BMatC= 3.61D-09 BMatP= 6.61D-08
 IDIUse=1 WtCom= 1.00D+00 WtEn= 0.00D+00
 Coeff-Com: -0.119D-03 0.677D-03 0.405D-02 0.802D-02-0.159D-01-0.339D+00
 Coeff-Com:  0.134D+01
 Coeff:     -0.119D-03 0.677D-03 0.405D-02 0.802D-02-0.159D-01-0.339D+00
 Coeff:      0.134D+01
 Gap=     0.660 Goal=   None    Shift=    0.000
 RMSDP=4.02D-06 MaxDP=4.60D-05 DE=-1.56D-07 OVMax= 5.84D-05

 Cycle   8  Pass 1  IDiag  1:
 E= -115.032014832536     Delta-E=       -0.000000009699 Rises=F Damp=F
 DIIS: error= 1.81D-06 at cycle   8 NSaved=   8.
 NSaved= 8 IEnMin= 8 EnMin= -115.032014832536     IErMin= 8 ErrMin= 1.81D-06
 ErrMax= 1.81D-06 EMaxC= 1.00D-01 BMatC= 1.10D-10 BMatP= 3.61D-09
 IDIUse=1 WtCom= 1.00D+00 WtEn= 0.00D+00
 Coeff-Com:  0.330D-04-0.223D-03-0.130D-02-0.210D-02 0.734D-02 0.969D-01
 Coeff-Com: -0.507D+00 0.141D+01
 Coeff:      0.330D-04-0.223D-03-0.130D-02-0.210D-02 0.734D-02 0.969D-01
 Coeff:     -0.507D+00 0.141D+01
 Gap=     0.660 Goal=   None    Shift=    0.000
 RMSDP=8.45D-07 MaxDP=6.66D-06 DE=-9.70D-09 OVMax= 1.22D-05

 Cycle   9  Pass 1  IDiag  1:
 E= -115.032014832869     Delta-E=       -0.000000000333 Rises=F Damp=F
 DIIS: error= 2.50D-07 at cycle   9 NSaved=   9.
 NSaved= 9 IEnMin= 9 EnMin= -115.032014832869     IErMin= 9 ErrMin= 2.50D-07
 ErrMax= 2.50D-07 EMaxC= 1.00D-01 BMatC= 2.60D-12 BMatP= 1.10D-10
 IDIUse=1 WtCom= 1.00D+00 WtEn= 0.00D+00
 Coeff-Com: -0.376D-05 0.292D-04 0.164D-03 0.158D-03-0.132D-02-0.843D-02
 Coeff-Com:  0.628D-01-0.278D+00 0.122D+01
 Coeff:     -0.376D-05 0.292D-04 0.164D-03 0.158D-03-0.132D-02-0.843D-02
 Coeff:      0.628D-01-0.278D+00 0.122D+01
 Gap=     0.660 Goal=   None    Shift=    0.000
 RMSDP=9.18D-08 MaxDP=7.81D-07 DE=-3.33D-10 OVMax= 1.25D-06

 Cycle  10  Pass 1  IDiag  1:
 E= -115.032014832876     Delta-E=       -0.000000000007 Rises=F Damp=F
 DIIS: error= 4.89D-08 at cycle  10 NSaved=  10.
 NSaved=10 IEnMin=10 EnMin= -115.032014832876     IErMin=10 ErrMin= 4.89D-08
 ErrMax= 4.89D-08 EMaxC= 1.00D-01 BMatC= 1.64D-13 BMatP= 2.60D-12
 IDIUse=1 WtCom= 1.00D+00 WtEn= 0.00D+00
 Coeff-Com: -0.797D-06 0.463D-05 0.284D-04 0.754D-04-0.955D-04-0.284D-02
 Coeff-Com:  0.107D-01-0.967D-02-0.264D+00 0.127D+01
 Coeff:     -0.797D-06 0.463D-05 0.284D-04 0.754D-04-0.955D-04-0.284D-02
 Coeff:      0.107D-01-0.967D-02-0.264D+00 0.127D+01
 Gap=     0.660 Goal=   None    Shift=    0.000
 RMSDP=2.64D-08 MaxDP=2.08D-07 DE=-6.96D-12 OVMax= 3.16D-07

 Cycle  11  Pass 1  IDiag  1:
 E= -115.032014832877     Delta-E=       -0.000000000001 Rises=F Damp=F
 DIIS: error= 1.15D-08 at cycle  11 NSaved=  11.
 NSaved=11 IEnMin=11 EnMin= -115.032014832877     IErMin=11 ErrMin= 1.15D-08
 ErrMax= 1.15D-08 EMaxC= 1.00D-01 BMatC= 7.40D-15 BMatP= 1.64D-13
 IDIUse=1 WtCom= 1.00D+00 WtEn= 0.00D+00
 Coeff-Com:  0.342D-06-0.253D-05-0.141D-04-0.187D-04 0.877D-04 0.926D-03
 Coeff-Com: -0.519D-02 0.176D-01-0.286D-01-0.195D+00 0.121D+01
 Coeff:      0.342D-06-0.253D-05-0.141D-04-0.187D-04 0.877D-04 0.926D-03
 Coeff:     -0.519D-02 0.176D-01-0.286D-01-0.195D+00 0.121D+01
 Gap=     0.660 Goal=   None    Shift=    0.000
 RMSDP=6.38D-09 MaxDP=6.24D-08 DE=-5.97D-13 OVMax= 9.04D-08

 SCF Done:  E(RHF) =  -115.032014833     A.U. after   11 cycles
             Convg  =    0.6381D-08             -V/T =  2.0026
 KE= 1.147317086665D+02 PE=-3.513618206776D+02 EE= 8.140228443295D+01
 Leave Link  502 at Sat Dec 21 15:21:09 2019, MaxMem= 2684354560 cpu:       0.4
 (Enter /opt/g09gh/gaussian/g09/l601.exe)
 Copying SCF densities to generalized density rwf, IOpCl= 0 IROHF=0.

 **********************************************************************

            Population analysis using the SCF density.

 **********************************************************************

 Orbital symmetries:
       Occupied  (A) (A) (A) (A) (A) (A) (A) (A) (A)
       Virtual   (A) (A) (A) (A) (A) (A) (A) (A) (A) (A) (A) (A)
                 (A) (A) (A) (A) (A) (A) (A) (A) (A) (A) (A) (A)
                 (A) (A) (A) (A) (A)
 The electronic state is 1-A.
 Alpha  occ. eigenvalues --  -20.55392 -11.27283  -1.34411  -0.91933  -0.67964
 Alpha  occ. eigenvalues --   -0.61880  -0.58667  -0.49572  -0.44176
 Alpha virt. eigenvalues --    0.21791   0.27768   0.32000   0.32590   0.37967
 Alpha virt. eigenvalues --    0.76488   0.77426   0.78684   1.05985   1.12285
 Alpha virt. eigenvalues --    1.13397   1.16810   1.19819   1.25012   1.27413
 Alpha virt. eigenvalues --    1.42551   1.71793   1.76360   1.84620   2.04713
 Alpha virt. eigenvalues --    2.39800   2.45429   2.49820   2.64533   2.68663
 Alpha virt. eigenvalues --    2.81399   3.15463   4.12148   4.63868
          Condensed to atoms (all electrons):
              1          2          3          4          5          6
     1  O    8.388228   0.205786  -0.043976  -0.033849  -0.036718   0.260405
     2  C    0.205786   4.797896   0.393985   0.392421   0.397932  -0.026422
     3  H   -0.043976   0.393985   0.566827  -0.034983  -0.035874   0.000417
     4  H   -0.033849   0.392421  -0.034983   0.573640  -0.029103  -0.008982
     5  H   -0.036718   0.397932  -0.035874  -0.029103   0.526646   0.004728
     6  H    0.260405  -0.026422   0.000417  -0.008982   0.004728   0.335235
 Mulliken atomic charges:
              1
     1  O   -0.739875
     2  C   -0.161597
     3  H    0.153606
     4  H    0.140856
     5  H    0.172390
     6  H    0.434620
 Sum of Mulliken atomic charges =   0.00000
 Mulliken charges with hydrogens summed into heavy atoms:
              1
     1  O   -0.305255
     2  C    0.305255
 Sum of Mulliken charges with hydrogens summed into heavy atoms =   0.00000
 Electronic spatial extent (au):  <R**2>=             83.9290
 Charge=              0.0000 electrons
 Dipole moment (field-independent basis, Debye):
    X=              1.0020    Y=              1.7256    Z=              0.0016  Tot=              1.9954
 Quadrupole moment (field-independent basis, Debye-Ang):
   XX=            -12.7753   YY=            -12.0299   ZZ=            -13.5400
   XY=             -2.3722   XZ=             -0.1345   YZ=              0.0558
 Traceless Quadrupole moment (field-independent basis, Debye-Ang):
   XX=              0.0064   YY=              0.7518   ZZ=             -0.7583
   XY=             -2.3722   XZ=             -0.1345   YZ=              0.0558
 Octapole moment (field-independent basis, Debye-Ang**2):
  XXX=             -4.4107  YYY=              1.3632  ZZZ=              0.4418  XYY=             -1.9548
  XXY=              2.4391  XXZ=             -0.0460  XZZ=             -0.3939  YZZ=              0.1479
  YYZ=             -0.5177  XYZ=              0.0460
 Hexadecapole moment (field-independent basis, Debye-Ang**3):
 XXXX=            -59.5362 YYYY=            -19.3175 ZZZZ=            -18.8174 XXXY=             -3.9926
 XXXZ=             -0.2801 YYYX=             -2.3194 YYYZ=              0.0276 ZZZX=              0.4280
 ZZZY=              0.0795 XXYY=            -12.1275 XXZZ=            -13.5837 YYZZ=             -6.4917
 XXYZ=              0.2203 YYXZ=             -0.6467 ZZXY=             -0.5234
 N-N= 4.019581274530D+01 E-N=-3.513618206527D+02  KE= 1.147317086665D+02
 No NMR shielding tensors so no spin-rotation constants.
 Leave Link  601 at Sat Dec 21 15:21:10 2019, MaxMem= 2684354560 cpu:       0.5
 (Enter /opt/g09gh/gaussian/g09/l701.exe)
 Compute integral first derivatives.
 ... and contract with generalized density number  0.
 Leave Link  701 at Sat Dec 21 15:21:10 2019, MaxMem= 2684354560 cpu:       0.5
 (Enter /opt/g09gh/gaussian/g09/l702.exe)
 L702 exits ... SP integral derivatives will be done elsewhere.
 Leave Link  702 at Sat Dec 21 15:21:10 2019, MaxMem= 2684354560 cpu:       0.1
 (Enter /opt/g09gh/gaussian/g09/l703.exe)
 Compute integral first derivatives, UseDBF=F ICtDFT=           0.
 Integral derivatives from FoFDir, PRISM(SPDF).
 Calling FoFJK, ICntrl=      2127 FMM=F ISym2X=0 I1Cent= 0 IOpClX= 0 NMat=1 NMatS=1 NMatT=0.
 FoFCou: FMM=F IPFlag=           0 FMFlag=      100000 FMFlg1=         800
         NFxFlg=           0 DoJE=F BraDBF=F KetDBF=F FulRan=T
         Omega=  0.000000  0.000000  1.000000  0.000000  0.000000 ICntrl=    2127 IOpCl=  0
         NMat0=    1 NMatS0=    1 NMatT0=    0 NMatD0=    1 NMtDS0=    0 NMtDT0=    0
         I1Cent=           0 NGrid=           0.
 Symmetry not used in FoFCou.
 Leave Link  703 at Sat Dec 21 15:21:10 2019, MaxMem= 2684354560 cpu:       0.6
 (Enter /opt/g09gh/gaussian/g09/l716.exe)
 Dipole        = 3.94206078D-01 6.78892374D-01 6.41855805D-04
 ***** Axes restored to original set *****
 -------------------------------------------------------------------
 Center     Atomic                   Forces (Hartrees/Bohr)
 Number     Number              X              Y              Z
 -------------------------------------------------------------------
      1        8          -0.001890437   -0.023410068   -0.004172991
      2        6           0.020372166    0.001809681    0.000630072
      3        1          -0.005301401   -0.002227667   -0.010374328
      4        1          -0.006435250    0.008409318    0.005999132
      5        1           0.001751575   -0.009547733    0.005987955
      6        1          -0.008496654    0.024966470    0.001930159
 -------------------------------------------------------------------
 Cartesian Forces:  Max     0.024966470 RMS     0.010816281
 Leave Link  716 at Sat Dec 21 15:21:10 2019, MaxMem= 2684354560 cpu:       0.1
 (Enter /opt/g09gh/gaussian/g09/l103.exe)

 GradGradGradGradGradGradGradGradGradGradGradGradGradGradGradGradGradGrad
 Berny optimization.
 Internal  Forces:  Max     0.026315721 RMS     0.009845400
 Search for a local minimum.
 Step number   1 out of a maximum of  100
 All quantities printed in internal units (Hartrees-Bohrs-Radians)
 RMS Force = .98454D-02 SwitMx=.10000D-02 MixMth= 1
 Mixed Optimization -- RFO/linear search
 Second derivative matrix not updated -- first step.
 The second derivative matrix:
                          R1        R2        R3        R4        R5
           R1           0.41431
           R2           0.00000   0.53351
           R3           0.00000   0.00000   0.34160
           R4           0.00000   0.00000   0.00000   0.34142
           R5           0.00000   0.00000   0.00000   0.00000   0.34121
           A1           0.00000   0.00000   0.00000   0.00000   0.00000
           A2           0.00000   0.00000   0.00000   0.00000   0.00000
           A3           0.00000   0.00000   0.00000   0.00000   0.00000
           A4           0.00000   0.00000   0.00000   0.00000   0.00000
           A5           0.00000   0.00000   0.00000   0.00000   0.00000
           A6           0.00000   0.00000   0.00000   0.00000   0.00000
           A7           0.00000   0.00000   0.00000   0.00000   0.00000
           D1           0.00000   0.00000   0.00000   0.00000   0.00000
           D2           0.00000   0.00000   0.00000   0.00000   0.00000
           D3           0.00000   0.00000   0.00000   0.00000   0.00000
                          A1        A2        A3        A4        A5
           A1           0.16000
           A2           0.00000   0.16000
           A3           0.00000   0.00000   0.16000
           A4           0.00000   0.00000   0.00000   0.16000
           A5           0.00000   0.00000   0.00000   0.00000   0.16000
           A6           0.00000   0.00000   0.00000   0.00000   0.00000
           A7           0.00000   0.00000   0.00000   0.00000   0.00000
           D1           0.00000   0.00000   0.00000   0.00000   0.00000
           D2           0.00000   0.00000   0.00000   0.00000   0.00000
           D3           0.00000   0.00000   0.00000   0.00000   0.00000
                          A6        A7        D1        D2        D3
           A6           0.16000
           A7           0.00000   0.16000
           D1           0.00000   0.00000   0.01335
           D2           0.00000   0.00000   0.00000   0.01335
           D3           0.00000   0.00000   0.00000   0.00000   0.01335
     Eigenvalues ---    0.01335   0.10509   0.10694   0.16000   0.16000
     Eigenvalues ---    0.16000   0.16000   0.34121   0.34142   0.34160
     Eigenvalues ---    0.41431   0.533511000.000001000.000001000.00000
 RFO step:  Lambda=-4.86437620D-03 EMin= 1.33532199D-02
 Linear search not attempted -- first point.
 Iteration  1 RMS(Cart)=  0.04496584 RMS(Int)=  0.00227450
 Iteration  2 RMS(Cart)=  0.00176333 RMS(Int)=  0.00088443
 Iteration  3 RMS(Cart)=  0.00000148 RMS(Int)=  0.00088443
 Iteration  4 RMS(Cart)=  0.00000000 RMS(Int)=  0.00088443
 Variable       Old X    -DE/DX   Delta X   Delta X   Delta X     New X
                                 (Linear)    (Quad)   (Total)
    R1        2.69654  -0.01023   0.00000  -0.02440  -0.02440   2.67214
    R2        1.83327  -0.02632   0.00000  -0.04888  -0.04888   1.78439
    R3        2.07060  -0.00815   0.00000  -0.02354  -0.02354   2.04706
    R4        2.07090  -0.00834   0.00000  -0.02407  -0.02407   2.04683
    R5        2.07126  -0.01113   0.00000  -0.03215  -0.03215   2.03911
    A1        1.88617   0.00343   0.00000   0.02082   0.02082   1.90698
    A2        1.88648   0.01040   0.00000   0.06389   0.06250   1.94899
    A3        1.89864   0.01114   0.00000   0.06839   0.06701   1.96565
    A4        1.87396  -0.00011   0.00000  -0.00226  -0.00270   1.87126
    A5        1.95372  -0.00930   0.00000  -0.05316  -0.05524   1.89848
    A6        1.92669  -0.00542   0.00000  -0.03462  -0.03504   1.89166
    A7        1.92203  -0.00572   0.00000  -0.03630  -0.03674   1.88529
    D1        1.58613  -0.00022   0.00000  -0.04978  -0.04854   1.53759
    D2       -0.53886  -0.00184   0.00000  -0.06447  -0.06570  -0.60457
    D3       -2.61850  -0.00107   0.00000  -0.05747  -0.05748  -2.67598
         Item               Value     Threshold  Converged?
 Maximum Force            0.026316     0.000450     NO 
 RMS     Force            0.009845     0.000300     NO 
 Maximum Displacement     0.095105     0.001800     NO 
 RMS     Displacement     0.045148     0.001200     NO 
 Predicted change in Energy=-2.506223D-03
 GradGradGradGradGradGradGradGradGradGradGradGradGradGradGradGradGradGrad

 Leave Link  103 at Sat Dec 21 15:21:10 2019, MaxMem= 2684354560 cpu:       0.0
 (Enter /opt/g09gh/gaussian/g09/l202.exe)
                          Input orientation:                          
 ---------------------------------------------------------------------
 Center     Atomic      Atomic             Coordinates (Angstroms)
 Number     Number       Type             X           Y           Z
 ---------------------------------------------------------------------
      1          8           0        0.743416    0.103471   -0.019981
      2          6           0       -0.665134   -0.019368   -0.000153
      3          1           0       -1.050597   -0.040334    1.011989
      4          1           0       -1.013932   -0.900696   -0.524350
      5          1           0       -1.068396    0.847745   -0.499997
      6          1           0        1.131643   -0.756520    0.016394
 ---------------------------------------------------------------------
                    Distance matrix (angstroms):
                    1          2          3          4          5
     1  O    0.000000
     2  C    1.414035   0.000000
     3  H    2.074638   1.083260   0.000000
     4  H    2.085908   1.083135   1.761222   0.000000
     5  H    2.016685   1.079050   1.753597   1.749458   0.000000
     6  H    0.944261   1.942183   2.503258   2.217360   2.771371
                    6
     6  H    0.000000
 Stoichiometry    CH4O
 Framework group  C1[X(CH4O)]
 Deg. of freedom    12
 Full point group                 C1      NOp   1
 Largest Abelian subgroup         C1      NOp   1
 Largest concise Abelian subgroup C1      NOp   1
                         Standard orientation:                         
 ---------------------------------------------------------------------
 Center     Atomic      Atomic             Coordinates (Angstroms)
 Number     Number       Type             X           Y           Z
 ---------------------------------------------------------------------
      1          8           0       -0.744584   -0.120193    0.000349
      2          6           0        0.662510    0.019732    0.001442
      3          1           0        1.057426    0.082648    1.008187
      4          1           0        0.995607    0.885064   -0.558405
      5          1           0        1.071348   -0.860522   -0.470102
      6          1           0       -1.142768    0.735964    0.008874
 ---------------------------------------------------------------------
 Rotational constants (GHZ):    131.9274287     25.0089353     24.1626413
 Leave Link  202 at Sat Dec 21 15:21:10 2019, MaxMem= 2684354560 cpu:       0.0
 (Enter /opt/g09gh/gaussian/g09/l301.exe)
 Standard basis: 6-31G(d) (6D, 7F)
 Ernie: Thresh=  0.10000D-02 Tol=  0.10000D-05 Strict=F.
 There are    38 symmetry adapted basis functions of A   symmetry.
 Integral buffers will be    131072 words long.
 Raffenetti 1 integral format.
 Two-electron integral symmetry is turned on.
    38 basis functions,    72 primitive gaussians,    38 cartesian basis functions
     9 alpha electrons        9 beta electrons
       nuclear repulsion energy        40.6010794913 Hartrees.
 IExCor=    0 DFT=F Ex=HF Corr=None ExCW=0 ScaHFX=  1.000000
 ScaDFX=  1.000000  1.000000  1.000000  1.000000 ScalE2=  1.000000  1.000000
 IRadAn=      0 IRanWt=     -1 IRanGd=            0 ICorTp=0
 NAtoms=    6 NActive=    6 NUniq=    6 SFac= 7.50D-01 NAtFMM=   80 NAOKFM=F Big=F
 Leave Link  301 at Sat Dec 21 15:21:10 2019, MaxMem= 2684354560 cpu:       0.2
 (Enter /opt/g09gh/gaussian/g09/l302.exe)
 NPDir=0 NMtPBC=     1 NCelOv=     1 NCel=       1 NClECP=     1 NCelD=      1
         NCelK=      1 NCelE2=     1 NClLst=     1 CellRange=     0.0.
 One-electron integrals computed using PRISM.
 NBasis=    38 RedAO= T  NBF=    38
 NBsUse=    38 1.00D-06 NBFU=    38
 Leave Link  302 at Sat Dec 21 15:21:10 2019, MaxMem= 2684354560 cpu:       0.5
 (Enter /opt/g09gh/gaussian/g09/l303.exe)
 DipDrv:  MaxL=1.
 Leave Link  303 at Sat Dec 21 15:21:10 2019, MaxMem= 2684354560 cpu:       0.1
 (Enter /opt/g09gh/gaussian/g09/l401.exe)
 Initial guess read from the read-write file.
 B after Tr=     0.000000    0.000000    0.000000
         Rot=    1.000000    0.000000    0.000000    0.000000 Ang=   0.00 deg.
 Guess basis will be translated and rotated to current coordinates.
 Initial guess orbital symmetries:
       Occupied  (A) (A) (A) (A) (A) (A) (A) (A) (A)
       Virtual   (A) (A) (A) (A) (A) (A) (A) (A) (A) (A) (A) (A)
                 (A) (A) (A) (A) (A) (A) (A) (A) (A) (A) (A) (A)
                 (A) (A) (A) (A) (A)
 The electronic state of the initial guess is 1-A.
 Generating alternative initial guess.
 Harris functional with IExCor=  205 diagonalized for initial guess.
 ExpMin= 1.61D-01 ExpMax= 5.48D+03 ExpMxC= 8.25D+02 IAcc=1 IRadAn=         1 AccDes= 0.00D+00
 HarFok:  IExCor=  205 AccDes= 0.00D+00 IRadAn=         1 IDoV= 1
 ScaDFX=  1.000000  1.000000  1.000000  1.000000
 FoFCou: FMM=F IPFlag=           0 FMFlag=      100000 FMFlg1=           0
         NFxFlg=           0 DoJE=T BraDBF=F KetDBF=T FulRan=T
         Omega=  0.000000  0.000000  1.000000  0.000000  0.000000 ICntrl=     500 IOpCl=  0
         NMat0=    1 NMatS0=    1 NMatT0=    0 NMatD0=    1 NMtDS0=    0 NMtDT0=    0
         I1Cent=           4 NGrid=           0.
 Petite list used in FoFCou.
 Harris En= -115.213376779242    
 Leave Link  401 at Sat Dec 21 15:21:11 2019, MaxMem= 2684354560 cpu:       0.8
 (Enter /opt/g09gh/gaussian/g09/l502.exe)
 Closed shell SCF:
 Requested convergence on RMS density matrix=1.00D-08 within 128 cycles.
 Requested convergence on MAX density matrix=1.00D-06.
 Requested convergence on             energy=1.00D-06.
 No special actions if energy rises.
 Using DIIS extrapolation, IDIIS=  1040.
 Integral symmetry usage will be decided dynamically.
 Keep R1 ints in memory in canonical form, NReq=1117925.
 IEnd=       23000 IEndB=       23000 NGot=  2684354560 MDV=  2684074744
 LenX=  2684074744 LenY=  2684072859
 Symmetry not used in FoFDir.
 MinBra= 0 MaxBra= 2 Meth= 1.
 IRaf=       0 NMat=   1 IRICut=       1 DoRegI=T DoRafI=F ISym2E= 0 JSym2E=0.

 Cycle   1  Pass 1  IDiag  1:
 E= -115.031900671177    
 DIIS: error= 5.31D-03 at cycle   1 NSaved=   1.
 NSaved= 1 IEnMin= 1 EnMin= -115.031900671177     IErMin= 1 ErrMin= 5.31D-03
 ErrMax= 5.31D-03 EMaxC= 1.00D-01 BMatC= 1.50D-03 BMatP= 1.50D-03
 IDIUse=3 WtCom= 9.47D-01 WtEn= 5.31D-02
 Coeff-Com:  0.100D+01
 Coeff-En:   0.100D+01
 Coeff:      0.100D+01
 Gap=     0.676 Goal=   None    Shift=    0.000
 GapD=    0.676 DampG=2.000 DampE=1.000 DampFc=2.0000 IDamp=-1.
 RMSDP=8.97D-04 MaxDP=7.07D-03              OVMax= 1.15D-02

 Cycle   2  Pass 1  IDiag  1:
 E= -115.034086517363     Delta-E=       -0.002185846186 Rises=F Damp=F
 DIIS: error= 1.85D-03 at cycle   2 NSaved=   2.
 NSaved= 2 IEnMin= 2 EnMin= -115.034086517363     IErMin= 2 ErrMin= 1.85D-03
 ErrMax= 1.85D-03 EMaxC= 1.00D-01 BMatC= 1.39D-04 BMatP= 1.50D-03
 IDIUse=3 WtCom= 9.82D-01 WtEn= 1.85D-02
 Coeff-Com: -0.143D+00 0.114D+01
 Coeff-En:   0.000D+00 0.100D+01
 Coeff:     -0.140D+00 0.114D+01
 Gap=     0.668 Goal=   None    Shift=    0.000
 RMSDP=4.13D-04 MaxDP=2.84D-03 DE=-2.19D-03 OVMax= 5.16D-03

 Cycle   3  Pass 1  IDiag  1:
 E= -115.034322810050     Delta-E=       -0.000236292687 Rises=F Damp=F
 DIIS: error= 5.33D-04 at cycle   3 NSaved=   3.
 NSaved= 3 IEnMin= 3 EnMin= -115.034322810050     IErMin= 3 ErrMin= 5.33D-04
 ErrMax= 5.33D-04 EMaxC= 1.00D-01 BMatC= 2.29D-05 BMatP= 1.39D-04
 IDIUse=3 WtCom= 9.95D-01 WtEn= 5.33D-03
 Coeff-Com: -0.108D+00 0.255D+00 0.854D+00
 Coeff-En:   0.000D+00 0.000D+00 0.100D+01
 Coeff:     -0.108D+00 0.253D+00 0.855D+00
 Gap=     0.670 Goal=   None    Shift=    0.000
 RMSDP=1.52D-04 MaxDP=1.34D-03 DE=-2.36D-04 OVMax= 1.59D-03

 Cycle   4  Pass 1  IDiag  1:
 E= -115.034351376482     Delta-E=       -0.000028566432 Rises=F Damp=F
 DIIS: error= 1.38D-04 at cycle   4 NSaved=   4.
 NSaved= 4 IEnMin= 4 EnMin= -115.034351376482     IErMin= 4 ErrMin= 1.38D-04
 ErrMax= 1.38D-04 EMaxC= 1.00D-01 BMatC= 1.25D-06 BMatP= 2.29D-05
 IDIUse=3 WtCom= 9.99D-01 WtEn= 1.38D-03
 Coeff-Com:  0.198D-02-0.716D-01 0.752D-01 0.994D+00
 Coeff-En:   0.000D+00 0.000D+00 0.000D+00 0.100D+01
 Coeff:      0.198D-02-0.715D-01 0.751D-01 0.994D+00
 Gap=     0.670 Goal=   None    Shift=    0.000
 RMSDP=5.82D-05 MaxDP=4.38D-04 DE=-2.86D-05 OVMax= 5.70D-04

 Cycle   5  Pass 1  IDiag  1:
 E= -115.034353445618     Delta-E=       -0.000002069136 Rises=F Damp=F
 DIIS: error= 3.42D-05 at cycle   5 NSaved=   5.
 NSaved= 5 IEnMin= 5 EnMin= -115.034353445618     IErMin= 5 ErrMin= 3.42D-05
 ErrMax= 3.42D-05 EMaxC= 1.00D-01 BMatC= 6.04D-08 BMatP= 1.25D-06
 IDIUse=1 WtCom= 1.00D+00 WtEn= 0.00D+00
 Coeff-Com:  0.524D-02-0.179D-01-0.396D-01 0.687D-01 0.984D+00
 Coeff:      0.524D-02-0.179D-01-0.396D-01 0.687D-01 0.984D+00
 Gap=     0.670 Goal=   None    Shift=    0.000
 RMSDP=1.48D-05 MaxDP=1.03D-04 DE=-2.07D-06 OVMax= 1.32D-04

 Cycle   6  Pass 1  IDiag  1:
 E= -115.034353556764     Delta-E=       -0.000000111146 Rises=F Damp=F
 DIIS: error= 8.75D-06 at cycle   6 NSaved=   6.
 NSaved= 6 IEnMin= 6 EnMin= -115.034353556764     IErMin= 6 ErrMin= 8.75D-06
 ErrMax= 8.75D-06 EMaxC= 1.00D-01 BMatC= 4.59D-09 BMatP= 6.04D-08
 IDIUse=1 WtCom= 1.00D+00 WtEn= 0.00D+00
 Coeff-Com:  0.444D-03 0.284D-02-0.100D-01-0.632D-01 0.104D+00 0.966D+00
 Coeff:      0.444D-03 0.284D-02-0.100D-01-0.632D-01 0.104D+00 0.966D+00
 Gap=     0.670 Goal=   None    Shift=    0.000
 RMSDP=3.73D-06 MaxDP=2.14D-05 DE=-1.11D-07 OVMax= 3.84D-05

 Cycle   7  Pass 1  IDiag  1:
 E= -115.034353565345     Delta-E=       -0.000000008581 Rises=F Damp=F
 DIIS: error= 2.00D-06 at cycle   7 NSaved=   7.
 NSaved= 7 IEnMin= 7 EnMin= -115.034353565345     IErMin= 7 ErrMin= 2.00D-06
 ErrMax= 2.00D-06 EMaxC= 1.00D-01 BMatC= 3.04D-10 BMatP= 4.59D-09
 IDIUse=1 WtCom= 1.00D+00 WtEn= 0.00D+00
 Coeff-Com: -0.459D-03 0.527D-03 0.507D-02 0.108D-01-0.900D-01-0.237D+00
 Coeff-Com:  0.131D+01
 Coeff:     -0.459D-03 0.527D-03 0.507D-02 0.108D-01-0.900D-01-0.237D+00
 Coeff:      0.131D+01
 Gap=     0.670 Goal=   None    Shift=    0.000
 RMSDP=1.16D-06 MaxDP=1.13D-05 DE=-8.58D-09 OVMax= 1.41D-05

 Cycle   8  Pass 1  IDiag  1:
 E= -115.034353566169     Delta-E=       -0.000000000824 Rises=F Damp=F
 DIIS: error= 5.10D-07 at cycle   8 NSaved=   8.
 NSaved= 8 IEnMin= 8 EnMin= -115.034353566169     IErMin= 8 ErrMin= 5.10D-07
 ErrMax= 5.10D-07 EMaxC= 1.00D-01 BMatC= 1.31D-11 BMatP= 3.04D-10
 IDIUse=1 WtCom= 1.00D+00 WtEn= 0.00D+00
 Coeff-Com:  0.825D-04-0.199D-03-0.720D-03-0.660D-04 0.169D-01 0.197D-01
 Coeff-Com: -0.343D+00 0.131D+01
 Coeff:      0.825D-04-0.199D-03-0.720D-03-0.660D-04 0.169D-01 0.197D-01
 Coeff:     -0.343D+00 0.131D+01
 Gap=     0.670 Goal=   None    Shift=    0.000
 RMSDP=3.14D-07 MaxDP=3.16D-06 DE=-8.24D-10 OVMax= 4.26D-06

 Cycle   9  Pass 1  IDiag  1:
 E= -115.034353566213     Delta-E=       -0.000000000044 Rises=F Damp=F
 DIIS: error= 1.18D-07 at cycle   9 NSaved=   9.
 NSaved= 9 IEnMin= 9 EnMin= -115.034353566213     IErMin= 9 ErrMin= 1.18D-07
 ErrMax= 1.18D-07 EMaxC= 1.00D-01 BMatC= 6.34D-13 BMatP= 1.31D-11
 IDIUse=1 WtCom= 1.00D+00 WtEn= 0.00D+00
 Coeff-Com: -0.571D-05 0.334D-04 0.132D-04-0.389D-03-0.150D-02 0.307D-02
 Coeff-Com:  0.504D-01-0.407D+00 0.136D+01
 Coeff:     -0.571D-05 0.334D-04 0.132D-04-0.389D-03-0.150D-02 0.307D-02
 Coeff:      0.504D-01-0.407D+00 0.136D+01
 Gap=     0.670 Goal=   None    Shift=    0.000
 RMSDP=6.88D-08 MaxDP=8.39D-07 DE=-4.39D-11 OVMax= 1.11D-06

 Cycle  10  Pass 1  IDiag  1:
 E= -115.034353566215     Delta-E=       -0.000000000002 Rises=F Damp=F
 DIIS: error= 2.02D-08 at cycle  10 NSaved=  10.
 NSaved=10 IEnMin=10 EnMin= -115.034353566215     IErMin=10 ErrMin= 2.02D-08
 ErrMax= 2.02D-08 EMaxC= 1.00D-01 BMatC= 2.68D-14 BMatP= 6.34D-13
 IDIUse=1 WtCom= 1.00D+00 WtEn= 0.00D+00
 Coeff-Com: -0.127D-05-0.495D-05 0.275D-04 0.138D-03-0.286D-03-0.212D-02
 Coeff-Com:  0.157D-02 0.573D-01-0.372D+00 0.131D+01
 Coeff:     -0.127D-05-0.495D-05 0.275D-04 0.138D-03-0.286D-03-0.212D-02
 Coeff:      0.157D-02 0.573D-01-0.372D+00 0.131D+01
 Gap=     0.670 Goal=   None    Shift=    0.000
 RMSDP=1.32D-08 MaxDP=1.71D-07 DE=-2.13D-12 OVMax= 2.04D-07

 Cycle  11  Pass 1  IDiag  1:
 E= -115.034353566215     Delta-E=        0.000000000000 Rises=F Damp=F
 DIIS: error= 4.22D-09 at cycle  11 NSaved=  11.
 NSaved=11 IEnMin=11 EnMin= -115.034353566215     IErMin=11 ErrMin= 4.22D-09
 ErrMax= 4.22D-09 EMaxC= 1.00D-01 BMatC= 1.35D-15 BMatP= 2.68D-14
 IDIUse=1 WtCom= 1.00D+00 WtEn= 0.00D+00
 Coeff-Com:  0.343D-06-0.568D-06-0.415D-05-0.107D-05 0.951D-04 0.107D-03
 Coeff-Com: -0.223D-02 0.874D-02-0.192D-02-0.231D+00 0.123D+01
 Coeff:      0.343D-06-0.568D-06-0.415D-05-0.107D-05 0.951D-04 0.107D-03
 Coeff:     -0.223D-02 0.874D-02-0.192D-02-0.231D+00 0.123D+01
 Gap=     0.670 Goal=   None    Shift=    0.000
 RMSDP=2.92D-09 MaxDP=3.60D-08 DE=-2.27D-13 OVMax= 4.27D-08

 SCF Done:  E(RHF) =  -115.034353566     A.U. after   11 cycles
             Convg  =    0.2918D-08             -V/T =  2.0016
 KE= 1.148515298772D+02 PE=-3.522199356044D+02 EE= 8.173297266969D+01
 Leave Link  502 at Sat Dec 21 15:21:11 2019, MaxMem= 2684354560 cpu:       0.4
 (Enter /opt/g09gh/gaussian/g09/l701.exe)
 Compute integral first derivatives.
 ... and contract with generalized density number  0.
 Leave Link  701 at Sat Dec 21 15:21:11 2019, MaxMem= 2684354560 cpu:       0.5
 (Enter /opt/g09gh/gaussian/g09/l702.exe)
 L702 exits ... SP integral derivatives will be done elsewhere.
 Leave Link  702 at Sat Dec 21 15:21:11 2019, MaxMem= 2684354560 cpu:       0.1
 (Enter /opt/g09gh/gaussian/g09/l703.exe)
 Compute integral first derivatives, UseDBF=F ICtDFT=           0.
 Integral derivatives from FoFDir, PRISM(SPDF).
 Calling FoFJK, ICntrl=      2127 FMM=F ISym2X=0 I1Cent= 0 IOpClX= 0 NMat=1 NMatS=1 NMatT=0.
 FoFCou: FMM=F IPFlag=           0 FMFlag=      100000 FMFlg1=         800
         NFxFlg=           0 DoJE=F BraDBF=F KetDBF=F FulRan=T
         Omega=  0.000000  0.000000  1.000000  0.000000  0.000000 ICntrl=    2127 IOpCl=  0
         NMat0=    1 NMatS0=    1 NMatT0=    0 NMatD0=    1 NMtDS0=    0 NMtDT0=    0
         I1Cent=           0 NGrid=           0.
 Symmetry not used in FoFCou.
 Leave Link  703 at Sat Dec 21 15:21:11 2019, MaxMem= 2684354560 cpu:       0.6
 (Enter /opt/g09gh/gaussian/g09/l716.exe)
 Dipole        = 3.75103521D-01 6.64758662D-01-1.30240649D-02
 ***** Axes restored to original set *****
 -------------------------------------------------------------------
 Center     Atomic                   Forces (Hartrees/Bohr)
 Number     Number              X              Y              Z
 -------------------------------------------------------------------
      1        8          -0.010368870   -0.001441861   -0.001888133
      2        6           0.008800310    0.004067471   -0.000729950
      3        1           0.000360308   -0.001088508    0.002330941
      4        1           0.000948301   -0.002129264   -0.001306444
      5        1          -0.000949039    0.001830179   -0.000366619
      6        1           0.001208991   -0.001238017    0.001960205
 -------------------------------------------------------------------
 Cartesian Forces:  Max     0.010368870 RMS     0.003596211
 Leave Link  716 at Sat Dec 21 15:21:11 2019, MaxMem= 2684354560 cpu:       0.1
 (Enter /opt/g09gh/gaussian/g09/l103.exe)

 GradGradGradGradGradGradGradGradGradGradGradGradGradGradGradGradGradGrad
 Berny optimization.
 Using GEDIIS/GDIIS optimizer.
 Internal  Forces:  Max     0.009358162 RMS     0.002850965
 Search for a local minimum.
 Step number   2 out of a maximum of  100
 All quantities printed in internal units (Hartrees-Bohrs-Radians)
 RMS Force = .28510D-02 SwitMx=.10000D-02 MixMth= 1
 Mixed Optimization -- RFO/linear search
 Update second derivatives using D2CorX and points    1    2
 DE= -2.34D-03 DEPred=-2.51D-03 R= 9.33D-01
 SS=  1.41D+00  RLast= 1.72D-01 DXNew= 5.0454D-01 5.1610D-01
 Trust test= 9.33D-01 RLast= 1.72D-01 DXMaxT set to 5.05D-01
 The second derivative matrix:
                          R1        R2        R3        R4        R5
           R1           0.39276
           R2          -0.05117   0.54419
           R3          -0.01550   0.01208   0.34854
           R4          -0.01586   0.01204   0.00697   0.34843
           R5          -0.02130   0.01189   0.00778   0.00781   0.34968
           A1           0.00673   0.00477   0.00069   0.00074   0.00135
           A2           0.01945  -0.00977  -0.00671  -0.00672  -0.00722
           A3           0.02067  -0.01629  -0.00931  -0.00936  -0.01046
           A4          -0.00067   0.00602   0.00233   0.00237   0.00293
           A5          -0.01724   0.00675   0.00524   0.00524   0.00550
           A6          -0.01096   0.00355   0.00305   0.00305   0.00314
           A7          -0.01145   0.00519   0.00374   0.00375   0.00399
           D1          -0.00171  -0.01386  -0.00486  -0.00494  -0.00632
           D2          -0.00160   0.00432   0.00185   0.00187   0.00226
           D3          -0.00163  -0.00367  -0.00110  -0.00112  -0.00152
                          A1        A2        A3        A4        A5
           A1           0.15885
           A2          -0.00133   0.16613
           A3          -0.00091   0.00902   0.17250
           A4          -0.00044  -0.00262  -0.00312   0.16042
           A5           0.00134  -0.00463  -0.00705   0.00221   0.16341
           A6           0.00091  -0.00263  -0.00411   0.00136   0.00190
           A7           0.00083  -0.00337  -0.00503   0.00151   0.00252
           D1           0.00136   0.00569   0.00649  -0.00062  -0.00491
           D2          -0.00019  -0.00199  -0.00248   0.00042   0.00165
           D3           0.00049   0.00139   0.00146  -0.00004  -0.00123
                          A6        A7        D1        D2        D3
           A6           0.16104
           A7           0.00142   0.16185
           D1          -0.00306  -0.00331   0.01394
           D2           0.00100   0.00114  -0.00073   0.01373
           D3          -0.00078  -0.00082  -0.00014  -0.00011   0.01323
 Use linear search instead of GDIIS.
     Eigenvalues ---    0.01260   0.09962   0.10452   0.15689   0.16000
     Eigenvalues ---    0.16000   0.17841   0.34020   0.34151   0.34539
     Eigenvalues ---    0.39853   0.567791000.000001000.000001000.00000
 RFO step:  Lambda=-5.62308959D-04 EMin= 1.25958808D-02
 Quartic linear search produced a step of -0.03912.
 Iteration  1 RMS(Cart)=  0.02546882 RMS(Int)=  0.00099865
 Iteration  2 RMS(Cart)=  0.00083523 RMS(Int)=  0.00001272
 Iteration  3 RMS(Cart)=  0.00000094 RMS(Int)=  0.00001271
 Variable       Old X    -DE/DX   Delta X   Delta X   Delta X     New X
                                 (Linear)    (Quad)   (Total)
    R1        2.67214  -0.00936   0.00095  -0.02515  -0.02419   2.64795
    R2        1.78439   0.00170   0.00191  -0.00400  -0.00209   1.78231
    R3        2.04706   0.00207   0.00092   0.00240   0.00332   2.05039
    R4        2.04683   0.00206   0.00094   0.00229   0.00324   2.05007
    R5        2.03911   0.00200   0.00126   0.00095   0.00221   2.04132
    A1        1.90698   0.00096  -0.00081   0.00876   0.00794   1.91493
    A2        1.94899  -0.00137  -0.00245  -0.00030  -0.00273   1.94625
    A3        1.96565  -0.00253  -0.00262  -0.00686  -0.00946   1.95619
    A4        1.87126   0.00141   0.00011   0.01017   0.01028   1.88155
    A5        1.89848   0.00076   0.00216  -0.00754  -0.00536   1.89312
    A6        1.89166   0.00083   0.00137   0.00231   0.00368   1.89534
    A7        1.88529   0.00110   0.00144   0.00299   0.00445   1.88974
    D1        1.53759  -0.00208   0.00190  -0.09101  -0.08913   1.44846
    D2       -0.60457  -0.00018   0.00257  -0.07581  -0.07324  -0.67781
    D3       -2.67598  -0.00097   0.00225  -0.08205  -0.07978  -2.75576
         Item               Value     Threshold  Converged?
 Maximum Force            0.009358     0.000450     NO 
 RMS     Force            0.002851     0.000300     NO 
 Maximum Displacement     0.062827     0.001800     NO 
 RMS     Displacement     0.025388     0.001200     NO 
 Predicted change in Energy=-2.903009D-04
 GradGradGradGradGradGradGradGradGradGradGradGradGradGradGradGradGradGrad

 Leave Link  103 at Sat Dec 21 15:21:11 2019, MaxMem= 2684354560 cpu:       0.0
 (Enter /opt/g09gh/gaussian/g09/l202.exe)
                          Input orientation:                          
 ---------------------------------------------------------------------
 Center     Atomic      Atomic             Coordinates (Angstroms)
 Number     Number       Type             X           Y           Z
 ---------------------------------------------------------------------
      1          8           0        0.734408    0.098018   -0.045099
      2          6           0       -0.661732   -0.015300   -0.007553
      3          1           0       -1.030734   -0.051047    1.012164
      4          1           0       -1.013510   -0.897736   -0.531438
      5          1           0       -1.076980    0.855327   -0.493814
      6          1           0        1.125549   -0.754963    0.049640
 ---------------------------------------------------------------------
                    Distance matrix (angstroms):
                    1          2          3          4          5
     1  O    0.000000
     2  C    1.401234   0.000000
     3  H    2.062947   1.085018   0.000000
     4  H    2.069605   1.084848   1.760650   0.000000
     5  H    2.013948   1.080219   1.758301   1.754614   0.000000
     6  H    0.943156   1.935134   2.464043   2.221173   2.781997
                    6
     6  H    0.000000
 Stoichiometry    CH4O
 Framework group  C1[X(CH4O)]
 Deg. of freedom    12
 Full point group                 C1      NOp   1
 Largest Abelian subgroup         C1      NOp   1
 Largest concise Abelian subgroup C1      NOp   1
                         Standard orientation:                         
 ---------------------------------------------------------------------
 Center     Atomic      Atomic             Coordinates (Angstroms)
 Number     Number       Type             X           Y           Z
 ---------------------------------------------------------------------
      1          8           0       -0.737645   -0.121056    0.001067
      2          6           0        0.656575    0.018973    0.000639
      3          1           0        1.040506    0.180791    1.002474
      4          1           0        0.983878    0.839185   -0.629456
      5          1           0        1.080307   -0.895924   -0.387031
      6          1           0       -1.142978    0.730558    0.001646
 ---------------------------------------------------------------------
 Rotational constants (GHZ):    131.7585156     25.3776041     24.5046772
 Leave Link  202 at Sat Dec 21 15:21:11 2019, MaxMem= 2684354560 cpu:       0.0
 (Enter /opt/g09gh/gaussian/g09/l301.exe)
 Standard basis: 6-31G(d) (6D, 7F)
 Ernie: Thresh=  0.10000D-02 Tol=  0.10000D-05 Strict=F.
 There are    38 symmetry adapted basis functions of A   symmetry.
 Integral buffers will be    131072 words long.
 Raffenetti 1 integral format.
 Two-electron integral symmetry is turned on.
    38 basis functions,    72 primitive gaussians,    38 cartesian basis functions
     9 alpha electrons        9 beta electrons
       nuclear repulsion energy        40.7948602331 Hartrees.
 IExCor=    0 DFT=F Ex=HF Corr=None ExCW=0 ScaHFX=  1.000000
 ScaDFX=  1.000000  1.000000  1.000000  1.000000 ScalE2=  1.000000  1.000000
 IRadAn=      0 IRanWt=     -1 IRanGd=            0 ICorTp=0
 NAtoms=    6 NActive=    6 NUniq=    6 SFac= 7.50D-01 NAtFMM=   80 NAOKFM=F Big=F
 Leave Link  301 at Sat Dec 21 15:21:11 2019, MaxMem= 2684354560 cpu:       0.2
 (Enter /opt/g09gh/gaussian/g09/l302.exe)
 NPDir=0 NMtPBC=     1 NCelOv=     1 NCel=       1 NClECP=     1 NCelD=      1
         NCelK=      1 NCelE2=     1 NClLst=     1 CellRange=     0.0.
 One-electron integrals computed using PRISM.
 NBasis=    38 RedAO= T  NBF=    38
 NBsUse=    38 1.00D-06 NBFU=    38
 Leave Link  302 at Sat Dec 21 15:21:11 2019, MaxMem= 2684354560 cpu:       0.5
 (Enter /opt/g09gh/gaussian/g09/l303.exe)
 DipDrv:  MaxL=1.
 Leave Link  303 at Sat Dec 21 15:21:12 2019, MaxMem= 2684354560 cpu:       0.1
 (Enter /opt/g09gh/gaussian/g09/l401.exe)
 Initial guess read from the read-write file.
 B after Tr=     0.000000    0.000000    0.000000
         Rot=    1.000000    0.000000    0.000000    0.000000 Ang=   0.00 deg.
 Guess basis will be translated and rotated to current coordinates.
 Initial guess orbital symmetries:
       Occupied  (A) (A) (A) (A) (A) (A) (A) (A) (A)
       Virtual   (A) (A) (A) (A) (A) (A) (A) (A) (A) (A) (A) (A)
                 (A) (A) (A) (A) (A) (A) (A) (A) (A) (A) (A) (A)
                 (A) (A) (A) (A) (A)
 The electronic state of the initial guess is 1-A.
 Generating alternative initial guess.
 Harris functional with IExCor=  205 diagonalized for initial guess.
 ExpMin= 1.61D-01 ExpMax= 5.48D+03 ExpMxC= 8.25D+02 IAcc=1 IRadAn=         1 AccDes= 0.00D+00
 HarFok:  IExCor=  205 AccDes= 0.00D+00 IRadAn=         1 IDoV= 1
 ScaDFX=  1.000000  1.000000  1.000000  1.000000
 FoFCou: FMM=F IPFlag=           0 FMFlag=      100000 FMFlg1=           0
         NFxFlg=           0 DoJE=T BraDBF=F KetDBF=T FulRan=T
         Omega=  0.000000  0.000000  1.000000  0.000000  0.000000 ICntrl=     500 IOpCl=  0
         NMat0=    1 NMatS0=    1 NMatT0=    0 NMatD0=    1 NMtDS0=    0 NMtDT0=    0
         I1Cent=           4 NGrid=           0.
 Petite list used in FoFCou.
 Harris En= -115.214062662019    
 Leave Link  401 at Sat Dec 21 15:21:12 2019, MaxMem= 2684354560 cpu:       0.8
 (Enter /opt/g09gh/gaussian/g09/l502.exe)
 Closed shell SCF:
 Requested convergence on RMS density matrix=1.00D-08 within 128 cycles.
 Requested convergence on MAX density matrix=1.00D-06.
 Requested convergence on             energy=1.00D-06.
 No special actions if energy rises.
 Using DIIS extrapolation, IDIIS=  1040.
 Integral symmetry usage will be decided dynamically.
 Keep R1 ints in memory in canonical form, NReq=1117925.
 IEnd=       23000 IEndB=       23000 NGot=  2684354560 MDV=  2684074744
 LenX=  2684074744 LenY=  2684072859
 Symmetry not used in FoFDir.
 MinBra= 0 MaxBra= 2 Meth= 1.
 IRaf=       0 NMat=   1 IRICut=       1 DoRegI=T DoRafI=F ISym2E= 0 JSym2E=0.

 Cycle   1  Pass 1  IDiag  1:
 E= -115.032604746258    
 DIIS: error= 6.20D-03 at cycle   1 NSaved=   1.
 NSaved= 1 IEnMin= 1 EnMin= -115.032604746258     IErMin= 1 ErrMin= 6.20D-03
 ErrMax= 6.20D-03 EMaxC= 1.00D-01 BMatC= 1.12D-03 BMatP= 1.12D-03
 IDIUse=3 WtCom= 9.38D-01 WtEn= 6.20D-02
 Coeff-Com:  0.100D+01
 Coeff-En:   0.100D+01
 Coeff:      0.100D+01
 Gap=     0.669 Goal=   None    Shift=    0.000
 GapD=    0.669 DampG=2.000 DampE=1.000 DampFc=2.0000 IDamp=-1.
 RMSDP=7.46D-04 MaxDP=8.45D-03              OVMax= 1.21D-02

 Cycle   2  Pass 1  IDiag  1:
 E= -115.034502533557     Delta-E=       -0.001897787299 Rises=F Damp=F
 DIIS: error= 1.88D-03 at cycle   2 NSaved=   2.
 NSaved= 2 IEnMin= 2 EnMin= -115.034502533557     IErMin= 2 ErrMin= 1.88D-03
 ErrMax= 1.88D-03 EMaxC= 1.00D-01 BMatC= 1.10D-04 BMatP= 1.12D-03
 IDIUse=3 WtCom= 9.81D-01 WtEn= 1.88D-02
 Coeff-Com: -0.403D+00 0.140D+01
 Coeff-En:   0.000D+00 0.100D+01
 Coeff:     -0.396D+00 0.140D+01
 Gap=     0.668 Goal=   None    Shift=    0.000
 RMSDP=4.65D-04 MaxDP=4.21D-03 DE=-1.90D-03 OVMax= 6.20D-03

 Cycle   3  Pass 1  IDiag  1:
 E= -115.034748827133     Delta-E=       -0.000246293576 Rises=F Damp=F
 DIIS: error= 1.81D-04 at cycle   3 NSaved=   3.
 NSaved= 3 IEnMin= 3 EnMin= -115.034748827133     IErMin= 3 ErrMin= 1.81D-04
 ErrMax= 1.81D-04 EMaxC= 1.00D-01 BMatC= 2.99D-06 BMatP= 1.10D-04
 IDIUse=3 WtCom= 9.98D-01 WtEn= 1.81D-03
 Coeff-Com: -0.628D-01 0.153D+00 0.909D+00
 Coeff-En:   0.000D+00 0.000D+00 0.100D+01
 Coeff:     -0.626D-01 0.153D+00 0.910D+00
 Gap=     0.669 Goal=   None    Shift=    0.000
 RMSDP=9.36D-05 MaxDP=7.51D-04 DE=-2.46D-04 OVMax= 8.16D-04

 Cycle   4  Pass 1  IDiag  1:
 E= -115.034753658849     Delta-E=       -0.000004831716 Rises=F Damp=F
 DIIS: error= 8.63D-05 at cycle   4 NSaved=   4.
 NSaved= 4 IEnMin= 4 EnMin= -115.034753658849     IErMin= 4 ErrMin= 8.63D-05
 ErrMax= 8.63D-05 EMaxC= 1.00D-01 BMatC= 4.72D-07 BMatP= 2.99D-06
 IDIUse=1 WtCom= 1.00D+00 WtEn= 0.00D+00
 Coeff-Com:  0.456D-01-0.177D+00 0.191D+00 0.940D+00
 Coeff:      0.456D-01-0.177D+00 0.191D+00 0.940D+00
 Gap=     0.669 Goal=   None    Shift=    0.000
 RMSDP=4.48D-05 MaxDP=3.49D-04 DE=-4.83D-06 OVMax= 3.81D-04

 Cycle   5  Pass 1  IDiag  1:
 E= -115.034754345918     Delta-E=       -0.000000687070 Rises=F Damp=F
 DIIS: error= 6.35D-06 at cycle   5 NSaved=   5.
 NSaved= 5 IEnMin= 5 EnMin= -115.034754345918     IErMin= 5 ErrMin= 6.35D-06
 ErrMax= 6.35D-06 EMaxC= 1.00D-01 BMatC= 3.20D-09 BMatP= 4.72D-07
 IDIUse=1 WtCom= 1.00D+00 WtEn= 0.00D+00
 Coeff-Com: -0.114D-02 0.562D-02-0.271D-01-0.530D-01 0.108D+01
 Coeff:     -0.114D-02 0.562D-02-0.271D-01-0.530D-01 0.108D+01
 Gap=     0.669 Goal=   None    Shift=    0.000
 RMSDP=5.03D-06 MaxDP=3.22D-05 DE=-6.87D-07 OVMax= 5.17D-05

 Cycle   6  Pass 1  IDiag  1:
 E= -115.034754354047     Delta-E=       -0.000000008129 Rises=F Damp=F
 DIIS: error= 1.95D-06 at cycle   6 NSaved=   6.
 NSaved= 6 IEnMin= 6 EnMin= -115.034754354047     IErMin= 6 ErrMin= 1.95D-06
 ErrMax= 1.95D-06 EMaxC= 1.00D-01 BMatC= 2.74D-10 BMatP= 3.20D-09
 IDIUse=1 WtCom= 1.00D+00 WtEn= 0.00D+00
 Coeff-Com: -0.166D-02 0.623D-02-0.326D-02-0.301D-01-0.167D+00 0.120D+01
 Coeff:     -0.166D-02 0.623D-02-0.326D-02-0.301D-01-0.167D+00 0.120D+01
 Gap=     0.669 Goal=   None    Shift=    0.000
 RMSDP=1.19D-06 MaxDP=9.40D-06 DE=-8.13D-09 OVMax= 1.71D-05

 Cycle   7  Pass 1  IDiag  1:
 E= -115.034754354836     Delta-E=       -0.000000000789 Rises=F Damp=F
 DIIS: error= 7.11D-07 at cycle   7 NSaved=   7.
 NSaved= 7 IEnMin= 7 EnMin= -115.034754354836     IErMin= 7 ErrMin= 7.11D-07
 ErrMax= 7.11D-07 EMaxC= 1.00D-01 BMatC= 3.22D-11 BMatP= 2.74D-10
 IDIUse=1 WtCom= 1.00D+00 WtEn= 0.00D+00
 Coeff-Com:  0.265D-03-0.108D-02 0.279D-02 0.697D-02-0.817D-01-0.405D-01
 Coeff-Com:  0.111D+01
 Coeff:      0.265D-03-0.108D-02 0.279D-02 0.697D-02-0.817D-01-0.405D-01
 Coeff:      0.111D+01
 Gap=     0.669 Goal=   None    Shift=    0.000
 RMSDP=3.89D-07 MaxDP=3.57D-06 DE=-7.89D-10 OVMax= 5.98D-06

 Cycle   8  Pass 1  IDiag  1:
 E= -115.034754354926     Delta-E=       -0.000000000090 Rises=F Damp=F
 DIIS: error= 2.26D-07 at cycle   8 NSaved=   8.
 NSaved= 8 IEnMin= 8 EnMin= -115.034754354926     IErMin= 8 ErrMin= 2.26D-07
 ErrMax= 2.26D-07 EMaxC= 1.00D-01 BMatC= 3.35D-12 BMatP= 3.22D-11
 IDIUse=1 WtCom= 1.00D+00 WtEn= 0.00D+00
 Coeff-Com:  0.192D-03-0.728D-03 0.480D-03 0.341D-02 0.198D-01-0.153D+00
 Coeff-Com:  0.116D-01 0.112D+01
 Coeff:      0.192D-03-0.728D-03 0.480D-03 0.341D-02 0.198D-01-0.153D+00
 Coeff:      0.116D-01 0.112D+01
 Gap=     0.669 Goal=   None    Shift=    0.000
 RMSDP=1.49D-07 MaxDP=1.44D-06 DE=-8.96D-11 OVMax= 2.32D-06

 Cycle   9  Pass 1  IDiag  1:
 E= -115.034754354935     Delta-E=       -0.000000000009 Rises=F Damp=F
 DIIS: error= 5.63D-08 at cycle   9 NSaved=   9.
 NSaved= 9 IEnMin= 9 EnMin= -115.034754354935     IErMin= 9 ErrMin= 5.63D-08
 ErrMax= 5.63D-08 EMaxC= 1.00D-01 BMatC= 1.11D-13 BMatP= 3.35D-12
 IDIUse=1 WtCom= 1.00D+00 WtEn= 0.00D+00
 Coeff-Com: -0.450D-04 0.174D-03-0.213D-03-0.950D-03 0.876D-03 0.282D-01
 Coeff-Com: -0.544D-01-0.188D+00 0.121D+01
 Coeff:     -0.450D-04 0.174D-03-0.213D-03-0.950D-03 0.876D-03 0.282D-01
 Coeff:     -0.544D-01-0.188D+00 0.121D+01
 Gap=     0.669 Goal=   None    Shift=    0.000
 RMSDP=2.74D-08 MaxDP=2.76D-07 DE=-9.44D-12 OVMax= 4.22D-07

 Cycle  10  Pass 1  IDiag  1:
 E= -115.034754354936     Delta-E=        0.000000000000 Rises=F Damp=F
 DIIS: error= 1.01D-08 at cycle  10 NSaved=  10.
 NSaved=10 IEnMin=10 EnMin= -115.034754354936     IErMin=10 ErrMin= 1.01D-08
 ErrMax= 1.01D-08 EMaxC= 1.00D-01 BMatC= 5.78D-15 BMatP= 1.11D-13
 IDIUse=1 WtCom= 1.00D+00 WtEn= 0.00D+00
 Coeff-Com: -0.639D-06 0.168D-05 0.124D-04 0.224D-04-0.102D-02 0.114D-02
 Coeff-Com:  0.791D-02-0.860D-02-0.247D+00 0.125D+01
 Coeff:     -0.639D-06 0.168D-05 0.124D-04 0.224D-04-0.102D-02 0.114D-02
 Coeff:      0.791D-02-0.860D-02-0.247D+00 0.125D+01
 Gap=     0.669 Goal=   None    Shift=    0.000
 RMSDP=6.41D-09 MaxDP=7.15D-08 DE=-3.98D-13 OVMax= 9.88D-08

 SCF Done:  E(RHF) =  -115.034754355     A.U. after   10 cycles
             Convg  =    0.6412D-08             -V/T =  2.0014
 KE= 1.148734766954D+02 PE=-3.526148500686D+02 EE= 8.191175878514D+01
 Leave Link  502 at Sat Dec 21 15:21:12 2019, MaxMem= 2684354560 cpu:       0.4
 (Enter /opt/g09gh/gaussian/g09/l701.exe)
 Compute integral first derivatives.
 ... and contract with generalized density number  0.
 Leave Link  701 at Sat Dec 21 15:21:12 2019, MaxMem= 2684354560 cpu:       0.5
 (Enter /opt/g09gh/gaussian/g09/l702.exe)
 L702 exits ... SP integral derivatives will be done elsewhere.
 Leave Link  702 at Sat Dec 21 15:21:12 2019, MaxMem= 2684354560 cpu:       0.1
 (Enter /opt/g09gh/gaussian/g09/l703.exe)
 Compute integral first derivatives, UseDBF=F ICtDFT=           0.
 Integral derivatives from FoFDir, PRISM(SPDF).
 Calling FoFJK, ICntrl=      2127 FMM=F ISym2X=0 I1Cent= 0 IOpClX= 0 NMat=1 NMatS=1 NMatT=0.
 FoFCou: FMM=F IPFlag=           0 FMFlag=      100000 FMFlg1=         800
         NFxFlg=           0 DoJE=F BraDBF=F KetDBF=F FulRan=T
         Omega=  0.000000  0.000000  1.000000  0.000000  0.000000 ICntrl=    2127 IOpCl=  0
         NMat0=    1 NMatS0=    1 NMatT0=    0 NMatD0=    1 NMtDS0=    0 NMtDT0=    0
         I1Cent=           0 NGrid=           0.
 Symmetry not used in FoFCou.
 Leave Link  703 at Sat Dec 21 15:21:12 2019, MaxMem= 2684354560 cpu:       0.6
 (Enter /opt/g09gh/gaussian/g09/l716.exe)
 Dipole        = 3.52877193D-01 6.57305821D-01-1.84494876D-02
 ***** Axes restored to original set *****
 -------------------------------------------------------------------
 Center     Atomic                   Forces (Hartrees/Bohr)
 Number     Number              X              Y              Z
 -------------------------------------------------------------------
      1        8          -0.001483209    0.002812575   -0.002773959
      2        6           0.001546983   -0.000483629    0.000775704
      3        1          -0.000680168   -0.000251404    0.001337187
      4        1          -0.000495322   -0.000786439   -0.001350209
      5        1           0.000002107    0.001141495    0.000008804
      6        1           0.001109611   -0.002432598    0.002002474
 -------------------------------------------------------------------
 Cartesian Forces:  Max     0.002812575 RMS     0.001462431
 Leave Link  716 at Sat Dec 21 15:21:12 2019, MaxMem= 2684354560 cpu:       0.1
 (Enter /opt/g09gh/gaussian/g09/l103.exe)

 GradGradGradGradGradGradGradGradGradGradGradGradGradGradGradGradGradGrad
 Berny optimization.
 Using GEDIIS/GDIIS optimizer.
 Internal  Forces:  Max     0.002861337 RMS     0.001080980
 Search for a local minimum.
 Step number   3 out of a maximum of  100
 All quantities printed in internal units (Hartrees-Bohrs-Radians)
 RMS Force = .10810D-02 SwitMx=.10000D-02 MixMth= 1
 Mixed Optimization -- RFO/linear search
 Update second derivatives using D2CorX and points    1    2    3
 DE= -4.01D-04 DEPred=-2.90D-04 R= 1.38D+00
 SS=  1.41D+00  RLast= 1.44D-01 DXNew= 8.4853D-01 4.3076D-01
 Trust test= 1.38D+00 RLast= 1.44D-01 DXMaxT set to 5.05D-01
 The second derivative matrix:
                          R1        R2        R3        R4        R5
           R1           0.48292
           R2           0.02986   0.57070
           R3           0.01141   0.01302   0.34488
           R4           0.01006   0.01276   0.00336   0.34487
           R5          -0.00784   0.00964   0.00463   0.00471   0.34721
           A1          -0.01093  -0.00708  -0.00256  -0.00238  -0.00004
           A2           0.03613   0.00061  -0.00414  -0.00425  -0.00604
           A3           0.03687  -0.00015  -0.00376  -0.00400  -0.00745
           A4          -0.03144  -0.01320  -0.00257  -0.00233   0.00090
           A5          -0.02341   0.00716   0.00647   0.00644   0.00631
           A6          -0.01165  -0.00127   0.00076   0.00083   0.00171
           A7          -0.01174  -0.00020   0.00110   0.00118   0.00232
           D1           0.01665  -0.00166  -0.00156  -0.00178  -0.00488
           D2          -0.04737  -0.00582   0.00388   0.00393   0.00486
           D3          -0.01875  -0.00387   0.00147   0.00141   0.00056
                          A1        A2        A3        A4        A5
           A1           0.16196
           A2          -0.00419   0.16838
           A3          -0.00422   0.01184   0.17507
           A4           0.00486  -0.00730  -0.00879   0.16930
           A5           0.00203  -0.00483  -0.00805   0.00307   0.16275
           A6           0.00141  -0.00308  -0.00401   0.00232   0.00240
           A7           0.00133  -0.00384  -0.00482   0.00250   0.00311
           D1          -0.00186   0.00854   0.00983  -0.00604  -0.00550
           D2           0.00608  -0.00685  -0.01130   0.01015   0.00032
           D3           0.00253  -0.00003  -0.00192   0.00293  -0.00223
                          A6        A7        D1        D2        D3
           A6           0.16064
           A7           0.00093   0.16125
           D1          -0.00356  -0.00381   0.01725
           D2           0.00403   0.00459  -0.00701   0.01551
           D3           0.00066   0.00086  -0.00215  -0.00191   0.01135
 Use linear search instead of GDIIS.
     Eigenvalues ---    0.00526   0.10382   0.10812   0.15833   0.16000
     Eigenvalues ---    0.16301   0.18132   0.33956   0.34151   0.35421
     Eigenvalues ---    0.49355   0.585551000.000001000.000001000.00000
 RFO step:  Lambda=-3.63239357D-04 EMin= 5.26194938D-03
 Quartic linear search produced a step of  0.62029.
 Iteration  1 RMS(Cart)=  0.04718508 RMS(Int)=  0.00415256
 Iteration  2 RMS(Cart)=  0.00355631 RMS(Int)=  0.00002554
 Iteration  3 RMS(Cart)=  0.00001875 RMS(Int)=  0.00002206
 Iteration  4 RMS(Cart)=  0.00000000 RMS(Int)=  0.00002206
 Variable       Old X    -DE/DX   Delta X   Delta X   Delta X     New X
                                 (Linear)    (Quad)   (Total)
    R1        2.64795  -0.00032  -0.01501  -0.00442  -0.01943   2.62852
    R2        1.78231   0.00286  -0.00130   0.00371   0.00242   1.78472
    R3        2.05039   0.00150   0.00206   0.00480   0.00686   2.05725
    R4        2.05007   0.00145   0.00201   0.00454   0.00655   2.05662
    R5        2.04132   0.00092   0.00137   0.00120   0.00257   2.04389
    A1        1.91493  -0.00021   0.00493   0.00019   0.00512   1.92005
    A2        1.94625   0.00049  -0.00169   0.01161   0.00988   1.95614
    A3        1.95619   0.00010  -0.00587   0.00796   0.00207   1.95826
    A4        1.88155  -0.00081   0.00638  -0.00962  -0.00325   1.87830
    A5        1.89312   0.00022  -0.00333  -0.00084  -0.00422   1.88890
    A6        1.89534  -0.00009   0.00228  -0.00570  -0.00342   1.89192
    A7        1.88974   0.00007   0.00276  -0.00431  -0.00155   1.88819
    D1        1.44846  -0.00061  -0.05529  -0.10824  -0.16350   1.28496
    D2       -0.67781  -0.00133  -0.04543  -0.12124  -0.16671  -0.84452
    D3       -2.75576  -0.00095  -0.04949  -0.11447  -0.16395  -2.91970
         Item               Value     Threshold  Converged?
 Maximum Force            0.002861     0.000450     NO 
 RMS     Force            0.001081     0.000300     NO 
 Maximum Displacement     0.119987     0.001800     NO 
 RMS     Displacement     0.047197     0.001200     NO 
 Predicted change in Energy=-2.836193D-04
 GradGradGradGradGradGradGradGradGradGradGradGradGradGradGradGradGradGrad

 Leave Link  103 at Sat Dec 21 15:21:13 2019, MaxMem= 2684354560 cpu:       0.0
 (Enter /opt/g09gh/gaussian/g09/l202.exe)
                          Input orientation:                          
 ---------------------------------------------------------------------
 Center     Atomic      Atomic             Coordinates (Angstroms)
 Number     Number       Type             X           Y           Z
 ---------------------------------------------------------------------
      1          8           0        0.727091    0.088175   -0.097769
      2          6           0       -0.657504   -0.018051   -0.017990
      3          1           0       -1.005312   -0.068889    1.012349
      4          1           0       -1.034173   -0.890853   -0.547861
      5          1           0       -1.080607    0.864687   -0.477962
      6          1           0        1.127504   -0.740769    0.113135
 ---------------------------------------------------------------------
                    Distance matrix (angstroms):
                    1          2          3          4          5
     1  O    0.000000
     2  C    1.390954   0.000000
     3  H    2.063553   1.088647   0.000000
     4  H    2.064735   1.088314   1.763721   0.000000
     5  H    2.003819   1.081581   1.760188   1.757545   0.000000
     6  H    0.944436   1.930225   2.410168   2.265455   2.793320
                    6
     6  H    0.000000
 Stoichiometry    CH4O
 Framework group  C1[X(CH4O)]
 Deg. of freedom    12
 Full point group                 C1      NOp   1
 Largest Abelian subgroup         C1      NOp   1
 Largest concise Abelian subgroup C1      NOp   1
                         Standard orientation:                         
 ---------------------------------------------------------------------
 Center     Atomic      Atomic             Coordinates (Angstroms)
 Number     Number       Type             X           Y           Z
 ---------------------------------------------------------------------
      1          8           0        0.732867    0.120693    0.001036
      2          6           0       -0.651041   -0.019126    0.000413
      3          1           0       -1.029964   -0.343696    0.968000
      4          1           0       -0.992600   -0.725893   -0.753407
      5          1           0       -1.077745    0.948548   -0.226186
      6          1           0        1.143614   -0.729746    0.000822
 ---------------------------------------------------------------------
 Rotational constants (GHZ):    131.4868500     25.6384418     24.7500093
 Leave Link  202 at Sat Dec 21 15:21:13 2019, MaxMem= 2684354560 cpu:       0.0
 (Enter /opt/g09gh/gaussian/g09/l301.exe)
 Standard basis: 6-31G(d) (6D, 7F)
 Ernie: Thresh=  0.10000D-02 Tol=  0.10000D-05 Strict=F.
 There are    38 symmetry adapted basis functions of A   symmetry.
 Integral buffers will be    131072 words long.
 Raffenetti 1 integral format.
 Two-electron integral symmetry is turned on.
    38 basis functions,    72 primitive gaussians,    38 cartesian basis functions
     9 alpha electrons        9 beta electrons
       nuclear repulsion energy        40.9170210166 Hartrees.
 IExCor=    0 DFT=F Ex=HF Corr=None ExCW=0 ScaHFX=  1.000000
 ScaDFX=  1.000000  1.000000  1.000000  1.000000 ScalE2=  1.000000  1.000000
 IRadAn=      0 IRanWt=     -1 IRanGd=            0 ICorTp=0
 NAtoms=    6 NActive=    6 NUniq=    6 SFac= 7.50D-01 NAtFMM=   80 NAOKFM=F Big=F
 Leave Link  301 at Sat Dec 21 15:21:13 2019, MaxMem= 2684354560 cpu:       0.2
 (Enter /opt/g09gh/gaussian/g09/l302.exe)
 NPDir=0 NMtPBC=     1 NCelOv=     1 NCel=       1 NClECP=     1 NCelD=      1
         NCelK=      1 NCelE2=     1 NClLst=     1 CellRange=     0.0.
 One-electron integrals computed using PRISM.
 NBasis=    38 RedAO= T  NBF=    38
 NBsUse=    38 1.00D-06 NBFU=    38
 Leave Link  302 at Sat Dec 21 15:21:13 2019, MaxMem= 2684354560 cpu:       0.4
 (Enter /opt/g09gh/gaussian/g09/l303.exe)
 DipDrv:  MaxL=1.
 Leave Link  303 at Sat Dec 21 15:21:13 2019, MaxMem= 2684354560 cpu:       0.1
 (Enter /opt/g09gh/gaussian/g09/l401.exe)
 Initial guess read from the read-write file.
 B after Tr=     0.000000    0.000000    0.000000
         Rot=    1.000000    0.000000    0.000000    0.000000 Ang=   0.00 deg.
 Guess basis will be translated and rotated to current coordinates.
 Initial guess orbital symmetries:
       Occupied  (A) (A) (A) (A) (A) (A) (A) (A) (A)
       Virtual   (A) (A) (A) (A) (A) (A) (A) (A) (A) (A) (A) (A)
                 (A) (A) (A) (A) (A) (A) (A) (A) (A) (A) (A) (A)
                 (A) (A) (A) (A) (A)
 The electronic state of the initial guess is 1-A.
 Generating alternative initial guess.
 Harris functional with IExCor=  205 diagonalized for initial guess.
 ExpMin= 1.61D-01 ExpMax= 5.48D+03 ExpMxC= 8.25D+02 IAcc=1 IRadAn=         1 AccDes= 0.00D+00
 HarFok:  IExCor=  205 AccDes= 0.00D+00 IRadAn=         1 IDoV= 1
 ScaDFX=  1.000000  1.000000  1.000000  1.000000
 FoFCou: FMM=F IPFlag=           0 FMFlag=      100000 FMFlg1=           0
         NFxFlg=           0 DoJE=T BraDBF=F KetDBF=T FulRan=T
         Omega=  0.000000  0.000000  1.000000  0.000000  0.000000 ICntrl=     500 IOpCl=  0
         NMat0=    1 NMatS0=    1 NMatT0=    0 NMatD0=    1 NMtDS0=    0 NMtDT0=    0
         I1Cent=           4 NGrid=           0.
 Petite list used in FoFCou.
 Harris En= -115.214446792076    
 Leave Link  401 at Sat Dec 21 15:21:13 2019, MaxMem= 2684354560 cpu:       0.8
 (Enter /opt/g09gh/gaussian/g09/l502.exe)
 Closed shell SCF:
 Requested convergence on RMS density matrix=1.00D-08 within 128 cycles.
 Requested convergence on MAX density matrix=1.00D-06.
 Requested convergence on             energy=1.00D-06.
 No special actions if energy rises.
 Using DIIS extrapolation, IDIIS=  1040.
 Integral symmetry usage will be decided dynamically.
 Keep R1 ints in memory in canonical form, NReq=1117925.
 IEnd=       23000 IEndB=       23000 NGot=  2684354560 MDV=  2684074744
 LenX=  2684074744 LenY=  2684072859
 Symmetry not used in FoFDir.
 MinBra= 0 MaxBra= 2 Meth= 1.
 IRaf=       0 NMat=   1 IRICut=       1 DoRegI=T DoRafI=F ISym2E= 0 JSym2E=0.

 Cycle   1  Pass 1  IDiag  1:
 E= -111.811317917519    
 DIIS: error= 1.36D-01 at cycle   1 NSaved=   1.
 NSaved= 1 IEnMin= 1 EnMin= -111.811317917519     IErMin= 1 ErrMin= 1.36D-01
 ErrMax= 1.36D-01 EMaxC= 1.00D-01 BMatC= 9.98D-01 BMatP= 9.98D-01
 IDIUse=3 WtCom= 0.00D+00 WtEn= 1.00D+00
 Coeff-Com:  0.100D+01
 Coeff-En:   0.100D+01
 Coeff:      0.100D+01
 Recover alternate guess density for next cycle.
 RMSDP=6.34D-02 MaxDP=6.38D-01              OVMax= 0.00D+00

 Cycle   2  Pass 1  IDiag  1:
 E= -114.922366472933     Delta-E=       -3.111048555415 Rises=F Damp=F
 DIIS: error= 5.36D-02 at cycle   2 NSaved=   2.
 NSaved= 2 IEnMin= 2 EnMin= -114.922366472933     IErMin= 2 ErrMin= 5.36D-02
 ErrMax= 5.36D-02 EMaxC= 1.00D-01 BMatC= 1.70D-01 BMatP= 9.98D-01
 IDIUse=3 WtCom= 4.64D-01 WtEn= 5.36D-01
 Coeff-Com:  0.453D-01 0.955D+00
 Coeff-En:   0.000D+00 0.100D+01
 Coeff:      0.210D-01 0.979D+00
 Gap=     0.645 Goal=   None    Shift=    0.000
 RMSDP=9.58D-03 MaxDP=1.00D-01 DE=-3.11D+00 OVMax= 1.00D-01

 Cycle   3  Pass 1  IDiag  1:
 E= -115.013205949139     Delta-E=       -0.090839476206 Rises=F Damp=F
 DIIS: error= 2.42D-02 at cycle   3 NSaved=   3.
 NSaved= 3 IEnMin= 3 EnMin= -115.013205949139     IErMin= 3 ErrMin= 2.42D-02
 ErrMax= 2.42D-02 EMaxC= 1.00D-01 BMatC= 3.04D-02 BMatP= 1.70D-01
 IDIUse=3 WtCom= 7.58D-01 WtEn= 2.42D-01
 Coeff-Com:  0.346D-01 0.215D+00 0.750D+00
 Coeff-En:   0.000D+00 0.000D+00 0.100D+01
 Coeff:      0.262D-01 0.163D+00 0.811D+00
 Gap=     0.686 Goal=   None    Shift=    0.000
 RMSDP=3.72D-03 MaxDP=4.26D-02 DE=-9.08D-02 OVMax= 3.69D-02

 Cycle   4  Pass 1  IDiag  1:
 E= -115.033820380932     Delta-E=       -0.020614431793 Rises=F Damp=F
 DIIS: error= 4.39D-03 at cycle   4 NSaved=   4.
 NSaved= 4 IEnMin= 4 EnMin= -115.033820380932     IErMin= 4 ErrMin= 4.39D-03
 ErrMax= 4.39D-03 EMaxC= 1.00D-01 BMatC= 1.60D-03 BMatP= 3.04D-02
 IDIUse=3 WtCom= 9.56D-01 WtEn= 4.39D-02
 Coeff-Com: -0.726D-02-0.160D-01 0.136D+00 0.888D+00
 Coeff-En:   0.000D+00 0.000D+00 0.000D+00 0.100D+01
[...]
 Coeff-Com: -0.498D-04 0.971D-04 0.130D-03-0.248D-02 0.661D-02 0.279D-01
 Coeff-Com: -0.255D+00 0.122D+01
 Coeff:     -0.498D-04 0.971D-04 0.130D-03-0.248D-02 0.661D-02 0.279D-01
 Coeff:     -0.255D+00 0.122D+01
 Gap=     0.670 Goal=   None    Shift=    0.000
 RMSDP=4.50D-06 MaxDP=4.48D-05 DE=-6.07D-07 OVMax= 6.13D-05

 Cycle   9  Pass 1  IDiag  1:
 E= -115.035418309157     Delta-E=       -0.000000013336 Rises=F Damp=F
 DIIS: error= 2.50D-06 at cycle   9 NSaved=   9.
 NSaved= 9 IEnMin= 9 EnMin= -115.035418309157     IErMin= 9 ErrMin= 2.50D-06
 ErrMax= 2.50D-06 EMaxC= 1.00D-01 BMatC= 2.64D-10 BMatP= 5.19D-09
 IDIUse=1 WtCom= 1.00D+00 WtEn= 0.00D+00
 Coeff-Com:  0.182D-04-0.355D-04 0.114D-03-0.593D-03-0.129D-02 0.447D-02
 Coeff-Com:  0.210D-01-0.319D+00 0.130D+01
 Coeff:      0.182D-04-0.355D-04 0.114D-03-0.593D-03-0.129D-02 0.447D-02
 Coeff:      0.210D-01-0.319D+00 0.130D+01
 Gap=     0.670 Goal=   None    Shift=    0.000
 RMSDP=1.06D-06 MaxDP=9.55D-06 DE=-1.33D-08 OVMax= 1.24D-05

 Cycle  10  Pass 1  IDiag  1:
 E= -115.035418309838     Delta-E=       -0.000000000681 Rises=F Damp=F
 DIIS: error= 4.26D-07 at cycle  10 NSaved=  10.
 NSaved=10 IEnMin=10 EnMin= -115.035418309838     IErMin=10 ErrMin= 4.26D-07
 ErrMax= 4.26D-07 EMaxC= 1.00D-01 BMatC= 8.97D-12 BMatP= 2.64D-10
 IDIUse=1 WtCom= 1.00D+00 WtEn= 0.00D+00
 Coeff-Com:  0.435D-05-0.902D-05-0.793D-05 0.179D-03-0.300D-03-0.165D-02
 Coeff-Com:  0.976D-02-0.238D-01-0.119D+00 0.114D+01
 Coeff:      0.435D-05-0.902D-05-0.793D-05 0.179D-03-0.300D-03-0.165D-02
 Coeff:      0.976D-02-0.238D-01-0.119D+00 0.114D+01
 Gap=     0.670 Goal=   None    Shift=    0.000
 RMSDP=1.93D-07 MaxDP=1.46D-06 DE=-6.81D-10 OVMax= 2.20D-06

 Cycle  11  Pass 1  IDiag  1:
 E= -115.035418309860     Delta-E=       -0.000000000021 Rises=F Damp=F
 DIIS: error= 7.04D-08 at cycle  11 NSaved=  11.
 NSaved=11 IEnMin=11 EnMin= -115.035418309860     IErMin=11 ErrMin= 7.04D-08
 ErrMax= 7.04D-08 EMaxC= 1.00D-01 BMatC= 2.64D-13 BMatP= 8.97D-12
 IDIUse=1 WtCom= 1.00D+00 WtEn= 0.00D+00
 Coeff-Com: -0.713D-06 0.133D-05-0.714D-06-0.410D-05 0.558D-04 0.643D-04
 Coeff-Com: -0.153D-02 0.108D-01-0.199D-01-0.193D+00 0.120D+01
 Coeff:     -0.713D-06 0.133D-05-0.714D-06-0.410D-05 0.558D-04 0.643D-04
 Coeff:     -0.153D-02 0.108D-01-0.199D-01-0.193D+00 0.120D+01
 Gap=     0.670 Goal=   None    Shift=    0.000
 RMSDP=3.53D-08 MaxDP=2.53D-07 DE=-2.13D-11 OVMax= 4.06D-07

 Cycle  12  Pass 1  IDiag  1:
 E= -115.035418309860     Delta-E=       -0.000000000001 Rises=F Damp=F
 DIIS: error= 8.86D-09 at cycle  12 NSaved=  12.
 NSaved=12 IEnMin=12 EnMin= -115.035418309860     IErMin=12 ErrMin= 8.86D-09
 ErrMax= 8.86D-09 EMaxC= 1.00D-01 BMatC= 5.12D-15 BMatP= 2.64D-13
 IDIUse=1 WtCom= 1.00D+00 WtEn= 0.00D+00
 Coeff-Com:  0.514D-07-0.714D-07 0.257D-06-0.215D-05-0.784D-05 0.146D-04
 Coeff-Com:  0.179D-03-0.205D-02 0.769D-02 0.135D-01-0.227D+00 0.121D+01
 Coeff:      0.514D-07-0.714D-07 0.257D-06-0.215D-05-0.784D-05 0.146D-04
 Coeff:      0.179D-03-0.205D-02 0.769D-02 0.135D-01-0.227D+00 0.121D+01
 Gap=     0.670 Goal=   None    Shift=    0.000
 RMSDP=3.24D-09 MaxDP=2.25D-08 DE=-5.68D-13 OVMax= 4.39D-08

 SCF Done:  E(RHF) =  -115.035418310     A.U. after   12 cycles
             Convg  =    0.3243D-08             -V/T =  2.0015
 KE= 1.148617082346D+02 PE=-3.525846324685D+02 EE= 8.190179602129D+01
 Leave Link  502 at Sat Dec 21 15:21:19 2019, MaxMem= 2684354560 cpu:       0.4
 (Enter /opt/g09gh/gaussian/g09/l701.exe)
 Compute integral first derivatives.
 ... and contract with generalized density number  0.
 Leave Link  701 at Sat Dec 21 15:21:19 2019, MaxMem= 2684354560 cpu:       0.5
 (Enter /opt/g09gh/gaussian/g09/l702.exe)
 L702 exits ... SP integral derivatives will be done elsewhere.
 Leave Link  702 at Sat Dec 21 15:21:19 2019, MaxMem= 2684354560 cpu:       0.1
 (Enter /opt/g09gh/gaussian/g09/l703.exe)
 Compute integral first derivatives, UseDBF=F ICtDFT=           0.
 Integral derivatives from FoFDir, PRISM(SPDF).
 Calling FoFJK, ICntrl=      2127 FMM=F ISym2X=0 I1Cent= 0 IOpClX= 0 NMat=1 NMatS=1 NMatT=0.
 FoFCou: FMM=F IPFlag=           0 FMFlag=      100000 FMFlg1=         800
         NFxFlg=           0 DoJE=F BraDBF=F KetDBF=F FulRan=T
         Omega=  0.000000  0.000000  1.000000  0.000000  0.000000 ICntrl=    2127 IOpCl=  0
         NMat0=    1 NMatS0=    1 NMatT0=    0 NMatD0=    1 NMtDS0=    0 NMtDT0=    0
         I1Cent=           0 NGrid=           0.
 Symmetry not used in FoFCou.
 Leave Link  703 at Sat Dec 21 15:21:19 2019, MaxMem= 2684354560 cpu:       0.6
 (Enter /opt/g09gh/gaussian/g09/l716.exe)
 Dipole        =-3.51991010D-01-6.44643092D-01-1.51342724D-05
 ***** Axes restored to original set *****
 -------------------------------------------------------------------
 Center     Atomic                   Forces (Hartrees/Bohr)
 Number     Number              X              Y              Z
 -------------------------------------------------------------------
      1        8          -0.000063979    0.000018717   -0.000009506
      2        6           0.000073004   -0.000016843    0.000006688
      3        1          -0.000004425   -0.000001572    0.000006394
      4        1          -0.000003436   -0.000005111   -0.000003698
      5        1           0.000021663    0.000002117   -0.000002164
      6        1          -0.000022827    0.000002692    0.000002285
 -------------------------------------------------------------------
 Cartesian Forces:  Max     0.000073004 RMS     0.000025076
 Leave Link  716 at Sat Dec 21 15:21:19 2019, MaxMem= 2684354560 cpu:       0.1
 (Enter /opt/g09gh/gaussian/g09/l103.exe)

 GradGradGradGradGradGradGradGradGradGradGradGradGradGradGradGradGradGrad
 Berny optimization.
 Using GEDIIS/GDIIS optimizer.
 Internal  Forces:  Max     0.000084143 RMS     0.000026035
 Search for a local minimum.
 Step number   9 out of a maximum of  100
 All quantities printed in internal units (Hartrees-Bohrs-Radians)
 RMS Force = .26035D-04 SwitMx=.10000D-02 MixMth= 2
 Mixed Optimization -- En-DIIS/RFO-DIIS
 Swaping is turned off.
 Update second derivatives using D2CorX and points    4    5    6    7    8
                                                      9
 DE= -1.81D-07 DEPred=-2.31D-07 R= 7.86D-01
 Trust test= 7.86D-01 RLast= 9.40D-03 DXMaxT set to 8.49D-01
 The second derivative matrix:
                          R1        R2        R3        R4        R5
           R1           0.42468
           R2           0.00569   0.55657
           R3           0.01399   0.01126   0.34333
           R4           0.01475   0.01110   0.00144   0.34265
           R5           0.00691   0.01007   0.00178   0.00174   0.34569
           A1           0.04899   0.01187  -0.00419  -0.00400   0.00463
           A2           0.02315  -0.00149  -0.00235  -0.00268  -0.00640
           A3           0.03047  -0.00177  -0.00287  -0.00306  -0.00737
           A4           0.03797   0.00660  -0.00604  -0.00568   0.00417
           A5          -0.03446   0.00319   0.00631   0.00650   0.00736
           A6          -0.02790  -0.00593   0.00129   0.00132  -0.00014
           A7          -0.03117  -0.00653   0.00140   0.00136   0.00001
           D1           0.00301  -0.00787  -0.00170  -0.00181  -0.00774
           D2           0.00030   0.00867   0.00143   0.00194   0.00758
           D3          -0.00391  -0.00074   0.00006   0.00018   0.00004
                          A1        A2        A3        A4        A5
           A1           0.19033
           A2          -0.00696   0.16983
           A3          -0.00497   0.01248   0.17597
           A4           0.02688  -0.00965  -0.00851   0.18514
           A5           0.00459  -0.00835  -0.01084   0.00987   0.15929
           A6          -0.00941  -0.00116  -0.00341  -0.00839   0.00427
           A7          -0.00999  -0.00189  -0.00435  -0.00869   0.00480
           D1          -0.01455   0.01282   0.01296  -0.02032  -0.00173
           D2           0.01553  -0.01141  -0.01301   0.02069   0.00166
           D3          -0.00036   0.00007  -0.00127  -0.00044   0.00054
                          A6        A7        D1        D2        D3
           A6           0.16366
           A7           0.00445   0.16508
           D1          -0.00232  -0.00179   0.01581
           D2           0.00066   0.00164  -0.00962   0.01639
           D3           0.00016   0.00093  -0.00363  -0.00308   0.01021
     Eigenvalues ---    0.00324   0.10461   0.10779   0.15802   0.16089
     Eigenvalues ---    0.16328   0.22832   0.34148   0.34340   0.34713
     Eigenvalues ---    0.45773   0.560021000.000001000.000001000.00000
 En-DIIS/RFO-DIIS IScMMF=        0 using points:     9    8    7
 RFO step:  Lambda=-1.59931438D-08.
 DIIS coeffs:      0.82458      0.17638     -0.00096
 Iteration  1 RMS(Cart)=  0.00013301 RMS(Int)=  0.00000002
 Iteration  2 RMS(Cart)=  0.00000002 RMS(Int)=  0.00000000
 Variable       Old X    -DE/DX   Delta X   Delta X   Delta X     New X
                                  (DIIS)     (GDIIS)  (Total)
    R1        2.64498  -0.00008  -0.00008  -0.00011  -0.00018   2.64479
    R2        1.78825  -0.00001  -0.00001  -0.00001  -0.00001   1.78824
    R3        2.05495   0.00001   0.00001   0.00002   0.00003   2.05497
    R4        2.05495   0.00001   0.00001   0.00002   0.00003   2.05497
    R5        2.04292  -0.00001   0.00000  -0.00001  -0.00001   2.04291
    A1        1.91033  -0.00004  -0.00010  -0.00001  -0.00011   1.91021
    A2        1.95534   0.00001   0.00003   0.00004   0.00007   1.95541
    A3        1.95536   0.00001   0.00000   0.00004   0.00005   1.95541
    A4        1.87058  -0.00003  -0.00009  -0.00003  -0.00011   1.87047
    A5        1.89687   0.00000   0.00002  -0.00004  -0.00002   1.89685
    A6        1.89180   0.00001   0.00001   0.00000   0.00001   1.89181
    A7        1.89180   0.00001   0.00002  -0.00001   0.00001   1.89181
    D1        1.06893   0.00000  -0.00091   0.00060  -0.00032   1.06861
    D2       -1.06824  -0.00001  -0.00097   0.00059  -0.00037  -1.06861
    D3       -3.14125   0.00000  -0.00094   0.00060  -0.00034   3.14159
         Item               Value     Threshold  Converged?
 Maximum Force            0.000084     0.000450     YES
 RMS     Force            0.000026     0.000300     YES
 Maximum Displacement     0.000225     0.001800     YES
 RMS     Displacement     0.000133     0.001200     YES
 Predicted change in Energy=-1.330258D-08
 Optimization completed.
    -- Stationary point found.
                           ----------------------------
                           !   Optimized Parameters   !
                           ! (Angstroms and Degrees)  !
 --------------------------                            --------------------------
 ! Name  Definition              Value          Derivative Info.                !
 --------------------------------------------------------------------------------
 ! R1    R(1,2)                  1.3997         -DE/DX =   -0.0001              !
 ! R2    R(1,6)                  0.9463         -DE/DX =    0.0                 !
 ! R3    R(2,3)                  1.0874         -DE/DX =    0.0                 !
 ! R4    R(2,4)                  1.0874         -DE/DX =    0.0                 !
 ! R5    R(2,5)                  1.0811         -DE/DX =    0.0                 !
 ! A1    A(2,1,6)              109.4536         -DE/DX =    0.0                 !
 ! A2    A(1,2,3)              112.0328         -DE/DX =    0.0                 !
 ! A3    A(1,2,4)              112.034          -DE/DX =    0.0                 !
 ! A4    A(1,2,5)              107.1766         -DE/DX =    0.0                 !
 ! A5    A(3,2,4)              108.6826         -DE/DX =    0.0                 !
 ! A6    A(3,2,5)              108.3922         -DE/DX =    0.0                 !
 ! A7    A(4,2,5)              108.3922         -DE/DX =    0.0                 !
 ! D1    D(6,1,2,3)             61.2452         -DE/DX =    0.0                 !
 ! D2    D(6,1,2,4)            -61.2056         -DE/DX =    0.0                 !
 ! D3    D(6,1,2,5)            180.0194         -DE/DX =    0.0                 !
 --------------------------------------------------------------------------------
 GradGradGradGradGradGradGradGradGradGradGradGradGradGradGradGradGradGrad

 Largest change from initial coordinates is atom    5       2.725 Angstoms.
 Leave Link  103 at Sat Dec 21 15:21:19 2019, MaxMem= 2684354560 cpu:       0.0
 (Enter /opt/g09gh/gaussian/g09/l202.exe)
                          Input orientation:                          
 ---------------------------------------------------------------------
 Center     Atomic      Atomic             Coordinates (Angstroms)
 Number     Number       Type             X           Y           Z
 ---------------------------------------------------------------------
      1          8           0        0.728233    0.065886   -0.164732
      2          6           0       -0.662118   -0.025696   -0.032111
      3          1           0       -0.969124   -0.091802    1.008986
      4          1           0       -1.067864   -0.879375   -0.569798
      5          1           0       -1.083248    0.875536   -0.455350
      6          1           0        1.131122   -0.710249    0.196906
 ---------------------------------------------------------------------
                    Distance matrix (angstroms):
                    1          2          3          4          5
     1  O    0.000000
     2  C    1.399661   0.000000
     3  H    2.069661   1.087430   0.000000
     4  H    2.069676   1.087430   1.767082   0.000000
     5  H    2.005357   1.081065   1.758706   1.758705   0.000000
     6  H    0.946302   1.933073   2.335162   2.334947   2.800640
                    6
     6  H    0.000000
 Stoichiometry    CH4O
 Framework group  C1[X(CH4O)]
 Deg. of freedom    12
 Full point group                 C1      NOp   1
 Largest Abelian subgroup         C1      NOp   1
 Largest concise Abelian subgroup C1      NOp   1
                         Standard orientation:                         
 ---------------------------------------------------------------------
 Center     Atomic      Atomic             Coordinates (Angstroms)
 Number     Number       Type             X           Y           Z
 ---------------------------------------------------------------------
      1          8           0        0.737007    0.120605    0.000000
      2          6           0       -0.655601   -0.019726    0.000000
      3          1           0       -1.012863   -0.543093    0.883718
      4          1           0       -1.012823   -0.543714   -0.883365
      5          1           0       -1.076804    0.975909   -0.000359
      6          1           0        1.140039   -0.735580    0.000008
 ---------------------------------------------------------------------
 Rotational constants (GHZ):    131.0708583     25.4201063     24.5450804
 Leave Link  202 at Sat Dec 21 15:21:19 2019, MaxMem= 2684354560 cpu:       0.0
 (Enter /opt/g09gh/gaussian/g09/l601.exe)
 Copying SCF densities to generalized density rwf, IOpCl= 0 IROHF=0.

 **********************************************************************

            Population analysis using the SCF density.

 **********************************************************************

 Orbital symmetries:
       Occupied  (A) (A) (A) (A) (A) (A) (A) (A) (A)
       Virtual   (A) (A) (A) (A) (A) (A) (A) (A) (A) (A) (A) (A)
                 (A) (A) (A) (A) (A) (A) (A) (A) (A) (A) (A) (A)
                 (A) (A) (A) (A) (A)
 The electronic state is 1-A.
 Alpha  occ. eigenvalues --  -20.55538 -11.26675  -1.36026  -0.92684  -0.69362
 Alpha  occ. eigenvalues --   -0.62086  -0.59534  -0.49733  -0.44328
 Alpha virt. eigenvalues --    0.22683   0.28034   0.32379   0.33056   0.38754
 Alpha virt. eigenvalues --    0.76236   0.77450   0.79850   1.05529   1.13007
 Alpha virt. eigenvalues --    1.15182   1.18946   1.21806   1.25375   1.27029
 Alpha virt. eigenvalues --    1.40974   1.72482   1.77527   1.87141   2.03240
 Alpha virt. eigenvalues --    2.38760   2.45613   2.47792   2.70439   2.75571
 Alpha virt. eigenvalues --    2.82374   3.16734   4.13601   4.64220
          Condensed to atoms (all electrons):
              1          2          3          4          5          6
     1  O    8.357427   0.219302  -0.038681  -0.038673  -0.036916   0.263715
     2  C    0.219302   4.784387   0.393220   0.393217   0.402849  -0.026463
     3  H   -0.038681   0.393220   0.586979  -0.044277  -0.033754  -0.004016
     4  H   -0.038673   0.393217  -0.044277   0.586978  -0.033748  -0.004022
     5  H   -0.036916   0.402849  -0.033754  -0.033748   0.521713   0.005438
     6  H    0.263715  -0.026463  -0.004016  -0.004022   0.005438   0.328130
 Mulliken atomic charges:
              1
     1  O   -0.726175
     2  C   -0.166513
     3  H    0.140529
     4  H    0.140524
     5  H    0.174418
     6  H    0.437216
 Sum of Mulliken atomic charges =   0.00000
 Mulliken charges with hydrogens summed into heavy atoms:
              1
     1  O   -0.288958
     2  C    0.288958
 Sum of Mulliken charges with hydrogens summed into heavy atoms =   0.00000
 Electronic spatial extent (au):  <R**2>=             82.7200
 Charge=              0.0000 electrons
 Dipole moment (field-independent basis, Debye):
    X=             -0.8947    Y=             -1.6385    Z=              0.0000  Tot=              1.8669
 Quadrupole moment (field-independent basis, Debye-Ang):
   XX=            -12.5718   YY=            -12.0517   ZZ=            -13.6325
   XY=             -2.3470   XZ=              0.0001   YZ=             -0.0001
 Traceless Quadrupole moment (field-independent basis, Debye-Ang):
   XX=              0.1802   YY=              0.7003   ZZ=             -0.8805
   XY=             -2.3470   XZ=              0.0001   YZ=             -0.0001
 Octapole moment (field-independent basis, Debye-Ang**2):
  XXX=              4.3988  YYY=             -0.7266  ZZZ=              0.0003  XYY=              1.8900
  XXY=             -2.4130  XXZ=             -0.0001  XZZ=              0.5876  YZZ=             -0.5719
  YYZ=             -0.0005  XYZ=              0.0001
 Hexadecapole moment (field-independent basis, Debye-Ang**3):
 XXXX=            -58.0163 YYYY=            -18.8652 ZZZZ=            -18.8089 XXXY=             -3.9622
 XXXZ=              0.0002 YYYX=             -2.9133 YYYZ=             -0.0001 ZZZX=             -0.0004
 ZZZY=             -0.0001 XXYY=            -11.7845 XXZZ=            -13.4980 YYZZ=             -6.4141
 XXYZ=             -0.0001 YYXZ=              0.0006 ZZXY=             -0.0015
 N-N= 4.078570990279D+01 E-N=-3.525846323878D+02  KE= 1.148617082346D+02
 No NMR shielding tensors so no spin-rotation constants.
 Leave Link  601 at Sat Dec 21 15:21:19 2019, MaxMem= 2684354560 cpu:       0.5
 (Enter /opt/g09gh/gaussian/g09/l9999.exe)
 1\1\GINC-NODE35\FOpt\RHF\6-31G(d)\C1H4O1\BDW2292\21-Dec-2019\0\\#P opt
 =(,maxcycle=400) HF/6-31G* MaxDisk=100GB\\methanol Rotatable Bond Opti
 mization on bme-nova.bme.utexas.edu\\0,1\O,0.7282325106,0.0658856465,-
 0.1647317225\C,-0.6621182483,-0.0256961387,-0.0321108267\H,-0.96912365
 31,-0.091802146,1.0089859305\H,-1.0678639603,-0.8793745776,-0.56979837
 86\H,-1.0832483609,0.8755356404,-0.4553500236\H,1.131121712,-0.7102494
 246,0.1969060208\\Version=EM64L-G09RevA.02\State=1-A\HF=-115.0354183\R
 MSD=3.243e-09\RMSF=2.508e-05\Dipole=-0.3510749,-0.5683714,0.3052257\Qu
 adrupole=0.1335121,0.3635513,-0.4970634,-1.5791483,0.7378382,-0.408728
 6\PG=C01 [X(C1H4O1)]\\@


 A MAN SHOULD NEVER BE ASHAMED TO OWN HE HAS BEEN IN THE WRONG
 WHICH IS BUT SAYING IN OTHER WORDS,
 THAT HE IS WISER TODAY THAN HE WAS YESTERDAY.

                          -- JONATHAN SWIFT
 Job cpu time:  0 days  0 hours  0 minutes 31.8 seconds.
 File lengths (MBytes):  RWF=      5 Int=      0 D2E=      0 Chk=      1 Scr=      1
 Normal termination of Gaussian 09 at Sat Dec 21 15:21:20 2019.
