Generated by Psi4
        SP                        DF-MP2                      6-311G**
Number of atoms                            I                9
Charge                                     I                0
Multiplicity                               I                1
Number of electrons                        I               32
Number of alpha electrons                  I               16
Number of beta electrons                   I               16
Number of basis functions                  I              102
Number of independent functions            I              102
Atomic numbers                             I   N=           9
           8           7           6           6           1           1
           1           1           1
Nuclear charges                            R   N=           9
  8.00000000e+00  7.00000000e+00  6.00000000e+00  6.00000000e+00  1.00000000e+00
  1.00000000e+00  1.00000000e+00  1.00000000e+00  1.00000000e+00
Current cartesian coordinates              R   N=          27
  1.17813578e+00 -2.17093679e+00 -3.85656818e-01  1.39294892e+00  2.08605960e+00
  1.95513001e-01 -2.74681951e+00  1.01012291e-01  1.48986442e-01  9.71376379e-02
 -1.50912129e-01 -2.16485339e-02 -3.59056735e+00 -1.72727580e+00 -2.73061603e-01
 -3.30999465e+00  6.83857821e-01  2.05122787e+00 -3.44380082e+00  1.51344377e+00
 -1.18754097e+00  3.29078160e+00  1.95511315e+00  3.81097771e-01  5.50899276e-01
  3.63890934e+00  9.16213739e-01
Integer atomic weights                     I   N=           9
          15          14          12          12           1           1
           1           1           1
Real atomic weights                        R   N=           9
  1.59949146e+01  1.40030740e+01  1.20000000e+01  1.20000000e+01  1.00782503e+00
  1.00782503e+00  1.00782503e+00  1.00782503e+00  1.00782503e+00
Number of primitive shells                 I               98
Number of contracted shells                I               52
Pure/Cartesian d shells                    I                0
Pure/Cartesian f shells                    I                0
Highest angular momentum                   I                2
Largest degree of contraction              I                6
Shell types                                I   N=          52
           0           0           1           0           1           0
           1          -2           0           0           1           0
           1           0           1          -2           0           0
           1           0           1           0           1          -2
           0           0           1           0           1           0
           1          -2           0           0           0           1
           0           0           0           1           0           0
           0           1           0           0           0           1
           0           0           0           1
Number of primitives per shell             I   N=          52
           6           3           3           1           1           1
           1           1           6           3           3           1
           1           1           1           1           6           3
           3           1           1           1           1           1
           6           3           3           1           1           1
           1           1           3           1           1           1
           3           1           1           1           3           1
           1           1           3           1           1           1
           3           1           1           1
Shell to atom map                          I   N=          52
           1           1           1           1           1           1
           1           1           2           2           2           2
           2           2           2           2           3           3
           3           3           3           3           3           3
           4           4           4           4           4           4
           4           4           5           5           5           5
           6           6           6           6           7           7
           7           7           8           8           8           8
           9           9           9           9
Primitive exponents                        R   N=          98
  8.58850000e+03  1.29723000e+03  2.99296000e+02  8.73771000e+01  2.56789000e+01
  3.74004000e+00  4.21175000e+01  9.62837000e+00  2.85332000e+00  4.21175000e+01
  9.62837000e+00  2.85332000e+00  9.05661000e-01  9.05661000e-01  2.55611000e-01
  2.55611000e-01  1.29200000e+00  6.29348000e+03  9.49044000e+02  2.18776000e+02
  6.36916000e+01  1.88282000e+01  2.72023000e+00  3.06331000e+01  7.02614000e+00
  2.11205000e+00  3.06331000e+01  7.02614000e+00  2.11205000e+00  6.84009000e-01
  6.84009000e-01  2.00878000e-01  2.00878000e-01  9.13000000e-01  4.56324000e+03
  6.82024000e+02  1.54973000e+02  4.44553000e+01  1.30290000e+01  1.82773000e+00
  2.09642000e+01  4.80331000e+00  1.45933000e+00  2.09642000e+01  4.80331000e+00
  1.45933000e+00  4.83456000e-01  4.83456000e-01  1.45585000e-01  1.45585000e-01
  6.26000000e-01  4.56324000e+03  6.82024000e+02  1.54973000e+02  4.44553000e+01
  1.30290000e+01  1.82773000e+00  2.09642000e+01  4.80331000e+00  1.45933000e+00
  2.09642000e+01  4.80331000e+00  1.45933000e+00  4.83456000e-01  4.83456000e-01
  1.45585000e-01  1.45585000e-01  6.26000000e-01  3.38650000e+01  5.09479000e+00
  1.15879000e+00  3.25840000e-01  1.02741000e-01  7.50000000e-01  3.38650000e+01
  5.09479000e+00  1.15879000e+00  3.25840000e-01  1.02741000e-01  7.50000000e-01
  3.38650000e+01  5.09479000e+00  1.15879000e+00  3.25840000e-01  1.02741000e-01
  7.50000000e-01  3.38650000e+01  5.09479000e+00  1.15879000e+00  3.25840000e-01
  1.02741000e-01  7.50000000e-01  3.38650000e+01  5.09479000e+00  1.15879000e+00
  3.25840000e-01  1.02741000e-01  7.50000000e-01
Contraction coefficients                   R   N=          98
  1.89515008e-03  1.43859006e-02  7.07320031e-02  2.40001011e-01  5.94797026e-01
  2.80802012e-01  1.13889012e-01  9.20811101e-01 -3.27447036e-03  3.65113974e-02
  2.37152983e-01  8.19701941e-01  1.00000000e+00  1.00000000e+00  1.00000000e+00
  1.00000000e+00  1.00000000e+00  1.96978815e-03  1.49612859e-02  7.35005308e-02
  2.48936766e-01  6.02459433e-01  2.56201759e-01  1.11906080e-01  9.21666655e-01
 -2.56919183e-03  3.83119186e-02  2.37403116e-01  8.17592398e-01  1.00000000e+00
  1.00000000e+00  1.00000000e+00  1.00000000e+00  1.00000000e+00  1.96665025e-03
  1.52306019e-02  7.61269097e-02  2.60801033e-01  6.16462078e-01  2.21006028e-01
  1.14660081e-01  9.19999648e-01 -3.03068213e-03  4.02486927e-02  2.37593957e-01
  8.15853851e-01  1.00000000e+00  1.00000000e+00  1.00000000e+00  1.00000000e+00
  1.00000000e+00  1.96665025e-03  1.52306019e-02  7.61269097e-02  2.60801033e-01
  6.16462078e-01  2.21006028e-01  1.14660081e-01  9.19999648e-01 -3.03068213e-03
  4.02486927e-02  2.37593957e-01  8.15853851e-01  1.00000000e+00  1.00000000e+00
  1.00000000e+00  1.00000000e+00  1.00000000e+00  2.54938145e-02  1.90373109e-01
  8.52161486e-01  1.00000000e+00  1.00000000e+00  1.00000000e+00  2.54938145e-02
  1.90373109e-01  8.52161486e-01  1.00000000e+00  1.00000000e+00  1.00000000e+00
  2.54938145e-02  1.90373109e-01  8.52161486e-01  1.00000000e+00  1.00000000e+00
  1.00000000e+00  2.54938145e-02  1.90373109e-01  8.52161486e-01  1.00000000e+00
  1.00000000e+00  1.00000000e+00  2.54938145e-02  1.90373109e-01  8.52161486e-01
  1.00000000e+00  1.00000000e+00  1.00000000e+00
Coordinates of each shell                  R   N=         156
  1.17813578e+00 -2.17093679e+00 -3.85656818e-01  1.17813578e+00 -2.17093679e+00
 -3.85656818e-01  1.17813578e+00 -2.17093679e+00 -3.85656818e-01  1.17813578e+00
 -2.17093679e+00 -3.85656818e-01  1.17813578e+00 -2.17093679e+00 -3.85656818e-01
  1.17813578e+00 -2.17093679e+00 -3.85656818e-01  1.17813578e+00 -2.17093679e+00
 -3.85656818e-01  1.17813578e+00 -2.17093679e+00 -3.85656818e-01  1.39294892e+00
  2.08605960e+00  1.95513001e-01  1.39294892e+00  2.08605960e+00  1.95513001e-01
  1.39294892e+00  2.08605960e+00  1.95513001e-01  1.39294892e+00  2.08605960e+00
  1.95513001e-01  1.39294892e+00  2.08605960e+00  1.95513001e-01  1.39294892e+00
  2.08605960e+00  1.95513001e-01  1.39294892e+00  2.08605960e+00  1.95513001e-01
  1.39294892e+00  2.08605960e+00  1.95513001e-01 -2.74681951e+00  1.01012291e-01
  1.48986442e-01 -2.74681951e+00  1.01012291e-01  1.48986442e-01 -2.74681951e+00
  1.01012291e-01  1.48986442e-01 -2.74681951e+00  1.01012291e-01  1.48986442e-01
 -2.74681951e+00  1.01012291e-01  1.48986442e-01 -2.74681951e+00  1.01012291e-01
  1.48986442e-01 -2.74681951e+00  1.01012291e-01  1.48986442e-01 -2.74681951e+00
  1.01012291e-01  1.48986442e-01  9.71376379e-02 -1.50912129e-01 -2.16485339e-02
  9.71376379e-02 -1.50912129e-01 -2.16485339e-02  9.71376379e-02 -1.50912129e-01
 -2.16485339e-02  9.71376379e-02 -1.50912129e-01 -2.16485339e-02  9.71376379e-02
 -1.50912129e-01 -2.16485339e-02  9.71376379e-02 -1.50912129e-01 -2.16485339e-02
  9.71376379e-02 -1.50912129e-01 -2.16485339e-02  9.71376379e-02 -1.50912129e-01
 -2.16485339e-02 -3.59056735e+00 -1.72727580e+00 -2.73061603e-01 -3.59056735e+00
 -1.72727580e+00 -2.73061603e-01 -3.59056735e+00 -1.72727580e+00 -2.73061603e-01
 -3.59056735e+00 -1.72727580e+00 -2.73061603e-01 -3.30999465e+00  6.83857821e-01
  2.05122787e+00 -3.30999465e+00  6.83857821e-01  2.05122787e+00 -3.30999465e+00
  6.83857821e-01  2.05122787e+00 -3.30999465e+00  6.83857821e-01  2.05122787e+00
 -3.44380082e+00  1.51344377e+00 -1.18754097e+00 -3.44380082e+00  1.51344377e+00
 -1.18754097e+00 -3.44380082e+00  1.51344377e+00 -1.18754097e+00 -3.44380082e+00
  1.51344377e+00 -1.18754097e+00  3.29078160e+00  1.95511315e+00  3.81097771e-01
  3.29078160e+00  1.95511315e+00  3.81097771e-01  3.29078160e+00  1.95511315e+00
  3.81097771e-01  3.29078160e+00  1.95511315e+00  3.81097771e-01  5.50899276e-01
  3.63890934e+00  9.16213739e-01  5.50899276e-01  3.63890934e+00  9.16213739e-01
  5.50899276e-01  3.63890934e+00  9.16213739e-01  5.50899276e-01  3.63890934e+00
  9.16213739e-01
Total Energy                               R     -2.086975264368943e+02
Alpha Orbital Energies                     R   N=         102
 -2.05117120e+01 -1.55790240e+01 -1.13538787e+01 -1.12391557e+01 -1.37192967e+00
 -1.20633747e+00 -1.00442311e+00 -7.93034479e-01 -7.17371206e-01 -6.60414794e-01
 -6.13624765e-01 -5.81454349e-01 -5.59458924e-01 -5.22107081e-01 -4.23439093e-01
 -4.11104402e-01  1.37698525e-01  1.78695460e-01  1.85712934e-01  2.06176169e-01
  2.32089514e-01  2.37730230e-01  3.55077451e-01  3.96909294e-01  4.52608104e-01
  4.76084678e-01  5.18707484e-01  5.49719668e-01  6.04553531e-01  6.32301796e-01
  6.42259191e-01  7.30733925e-01  7.74724920e-01  7.91223024e-01  7.94593894e-01
  8.40929031e-01  8.55520398e-01  8.89638965e-01  9.35445495e-01  9.61174525e-01
  1.03717464e+00  1.08717696e+00  1.15814880e+00  1.16343932e+00  1.26737284e+00
  1.35214790e+00  1.45948762e+00  1.48069202e+00  1.54193776e+00  1.67641999e+00
  1.69299840e+00  1.70792826e+00  1.74673467e+00  1.75029938e+00  1.77842792e+00
  1.83963759e+00  1.90278750e+00  1.95238685e+00  1.99267049e+00  2.03831419e+00
  2.07525381e+00  2.10237236e+00  2.18352255e+00  2.27608767e+00  2.32165197e+00
  2.39221604e+00  2.49396538e+00  2.64094336e+00  2.66167467e+00  2.69704768e+00
  2.71536880e+00  2.74202974e+00  2.78926650e+00  2.84433945e+00  2.90073149e+00
  2.90350158e+00  2.98528237e+00  3.07628710e+00  3.13913386e+00  3.16246107e+00
  3.28871064e+00  3.31663522e+00  3.35432949e+00  3.47561874e+00  3.57753016e+00
  3.72412987e+00  3.74311014e+00  3.95477838e+00  4.12768623e+00  4.16045027e+00
  4.25116086e+00  4.27263453e+00  4.50069991e+00  5.24027714e+00  5.37980945e+00
  5.48368149e+00  5.61413118e+00  6.20010243e+00  2.49168542e+01  2.50667196e+01
  3.70230155e+01  5.16935069e+01
Alpha MO coefficients                      R   N=       10404
  5.51476761e-01  4.71689273e-01 -7.60504070e-04  1.52983886e-03  2.74404132e-04
  5.48325834e-03  2.69713091e-04 -5.58781633e-04 -9.88223261e-05 -1.22019088e-03
  7.52090486e-05 -1.21848203e-04 -2.18783989e-05 -1.13302700e-04  1.79843391e-06
  2.11277750e-05  5.94763442e-05  7.83709189e-05  3.78626757e-07  9.73336963e-07
  1.89019612e-06  1.12041972e-05  1.11193612e-06 -1.93890164e-05 -1.08563800e-05
 -2.61057169e-05 -1.97347519e-06  2.35160404e-04 -3.36043542e-04  1.10806351e-04
  4.85495556e-05 -8.55005044e-06 -6.54078667e-06  1.02477379e-05 -2.23350829e-05
  1.10116734e-05  1.19130767e-06  6.27271570e-07 -1.48966150e-05 -3.37284928e-08
  1.06691146e-06 -9.64671194e-07  5.58448867e-05  3.11827833e-06 -3.34013363e-06
  2.53788691e-04  1.01263686e-04  1.75489892e-04  2.71307373e-05 -1.00341461e-05
 -1.76198006e-06  2.03816070e-07  2.60218281e-05  7.48373016e-06  4.85159784e-06
 -7.38700041e-05  3.84002055e-05 -6.18802347e-05 -1.21449614e-05  3.14922573e-04
  1.67468097e-04 -3.45048188e-04 -5.99430381e-05  2.88403937e-04  4.68593603e-04
 -7.46818773e-04 -1.42668779e-04 -4.83714644e-05 -2.81966190e-05  3.79093135e-05
 -9.65624724e-05 -1.67330525e-04  3.68348190e-06  1.91001842e-05  4.69520917e-05
 -1.80451874e-05  1.26842150e-05  5.05208544e-06 -3.13695994e-06  1.12951784e-05
 -2.84367632e-05  1.29614706e-05 -1.23083537e-05 -3.98126187e-06 -2.10354603e-06
  1.24260439e-05 -4.25439528e-05  1.40565784e-05 -1.40759253e-05 -4.31454235e-06
 -3.07656150e-06  1.28293451e-04  9.07322428e-07 -1.62751509e-05  1.57553237e-05
 -1.17704725e-05  7.69278691e-06 -1.52629491e-04  1.27917444e-05 -2.98068201e-06
  1.49684461e-05  1.84349647e-05  3.46347845e-06  5.18866679e-06 -1.12745750e-05
 -1.11639016e-05 -1.75166566e-06 -1.01477432e-05  2.40806965e-05  8.58571228e-06
 -3.72430388e-06  1.33669876e-05 -1.22839957e-04 -8.77056634e-05  3.75945172e-06
 -4.03009582e-06 -2.94583655e-06 -3.33943824e-08  3.63299523e-06  2.40072423e-06
  5.57574544e-01  4.68196202e-01 -1.25821256e-05 -7.37920648e-05  6.64674802e-04
  5.41142683e-03 -2.40482171e-05 -6.98250912e-05 -2.33617358e-04 -1.06427710e-03
  1.63023530e-04  3.73716530e-04  1.13121083e-04  1.65687359e-05  1.02837962e-05
 -1.08265059e-05 -6.42834159e-06  9.89971296e-06  3.71886127e-07  2.82365624e-06
 -4.48222353e-06 -1.52368169e-06  5.77467330e-07 -3.32719204e-05 -1.19144411e-05
  3.31451624e-06  1.40446703e-06  2.80415732e-04  1.07357449e-04 -1.19015238e-04
  2.09055375e-05 -3.31660985e-06 -1.23049905e-06 -1.52390702e-06 -6.25359486e-07
 -6.46538032e-06  1.42948564e-05 -1.80165673e-05  6.32497934e-05  1.06120164e-04
  6.94759385e-06  1.79316927e-04  4.98208225e-05  6.96551980e-05  3.62716167e-05
  4.09697512e-04  4.58769094e-04  4.94776784e-04  2.96759118e-06  1.21484643e-05
  2.49852812e-05  2.41538775e-05 -3.18579247e-05  4.73122613e-05  3.39280478e-07
 -2.62763202e-05  7.95856182e-06  1.66083330e-05 -1.70582859e-06 -6.35652647e-06
  7.62405652e-06 -5.26793440e-05 -1.28152477e-05 -1.52569482e-05  8.32505943e-06
  5.22115895e-06  9.17459058e-07 -2.50403922e-05  3.25309127e-05 -1.33433095e-05
  4.61480997e-06  1.20006155e-06  2.41869979e-04 -1.94703976e-05  6.45306758e-05
  2.29984988e-05 -2.31361084e-05  1.78204423e-05  2.51800766e-04 -4.51849880e-05
  7.23451643e-05 -3.00247945e-05 -1.53981619e-05  2.50045825e-05 -1.74412294e-04
 -2.66171979e-04 -1.43224731e-04  2.49056191e-04  4.62179569e-05  5.66351709e-04
 -1.77804871e-04  3.82861845e-04  6.72256568e-05 -6.92543142e-04  6.06788424e-05
 -3.39211371e-04 -5.25812218e-05 -3.49893182e-05 -2.07923647e-05  3.04790462e-05
 -9.59615509e-05 -1.38419473e-04 -1.33383846e-04 -2.09800199e-04 -7.78095360e-05
 -1.09464641e-04 -2.79863882e-06  4.64008791e-04 -2.65540437e-04 -5.23202272e-04
 -7.64627223e-05 -2.62119681e-04 -1.06813826e-04  2.78221752e-04  5.27538244e-05
 -3.02513768e-05  2.39852131e-05  2.03470560e-06 -1.51598679e-04  1.85323378e-04
  1.53930097e-03  1.22236238e-03  1.27953222e-04 -1.18283369e-05 -8.81078186e-06
  2.57742815e-04  2.64914434e-04 -4.77484849e-06 -7.18566023e-06  1.18395300e-04
  1.45125388e-04 -4.88189591e-05 -1.78596821e-05 -3.04692533e-05 -1.91755263e-05
 -8.10065322e-06  1.23852493e-04 -4.21978529e-05  5.63534650e-01  4.66638872e-01
  3.67817165e-04  4.94947634e-04  5.49876144e-06  3.44443285e-03 -6.39997227e-05
 -6.44182556e-04 -6.34065156e-05  2.97855092e-04  6.53245360e-04 -5.27241891e-05
 -5.67562192e-05 -3.89610977e-04 -7.54844921e-05  1.46848269e-04 -1.02205683e-04
 -3.03102577e-04  1.34072278e-05  6.00221737e-05  1.52002137e-05  2.19492120e-05
  3.36460561e-05  8.75765583e-06 -1.14876008e-05  6.22720855e-05  5.11767758e-05
  2.15854338e-05  3.64721026e-06 -1.46680076e-05 -8.93388760e-06  7.24188070e-05
  3.17389056e-05  2.23005647e-05 -6.31682565e-06  1.69096743e-05  2.34550026e-05
  1.23979829e-04 -7.17982414e-05 -6.77524426e-05  4.64150827e-06 -1.39743052e-05
  2.40951698e-05 -5.14613285e-05 -2.91922381e-05 -1.07530399e-06 -6.15546278e-05
 -1.16198985e-05  3.47496819e-06  4.82536378e-06  1.40007039e-05  3.24430874e-07
 -8.20818997e-07 -4.63584137e-06  6.92095621e-06 -8.14714653e-06 -9.11679020e-07
 -5.47970629e-05  4.90630446e-05  2.16141558e-05  1.89441781e-08 -9.29087839e-07
 -1.27731931e-06 -3.05320608e-07  5.48900817e-06 -4.85922207e-06  5.11273238e-06
  9.53387907e-06  3.77156205e-06  9.21885527e-06  1.21371203e-06 -4.03122484e-05
  1.18913371e-05 -1.49928009e-05 -5.08659431e-06  3.56829175e-05 -1.17531860e-04
 -2.72624918e-05 -5.28201586e-06 -4.61457497e-06 -1.42957422e-06  2.30818788e-06
 -1.13277109e-05  1.59171388e-05  5.63318401e-01  4.66528444e-01  1.52707212e-04
  1.69987043e-04  6.32600334e-05  4.56493280e-03 -1.39815714e-04 -1.27808119e-04
 -4.70253138e-05 -1.81949780e-03 -2.34934517e-04  4.97089222e-05  1.87360636e-05
  8.92784396e-06  1.49598312e-05  1.41145720e-05 -1.00705878e-04  3.75832263e-05
 -1.64103817e-03 -1.42379286e-03 -1.40551705e-04  1.13607668e-05  7.35928864e-06
  2.68263403e-04 -3.29137053e-04  2.03503691e-05  2.23490745e-05  5.75193687e-04
 -3.30995521e-04 -7.53098718e-05  6.62237960e-06 -4.38600996e-05 -2.00436435e-05
 -5.95879010e-06  1.45632050e-04 -5.20465617e-05  3.41024787e-04  1.00134062e-04
  2.74486169e-04 -4.55364435e-06 -2.78517574e-05 -6.00889697e-06  3.45030013e-04
  2.35041943e-04  2.12560815e-04  3.74555829e-05 -2.15598975e-06 -2.50170767e-05
  3.45732962e-04  2.15889111e-04  2.14849029e-04  3.39696827e-05 -8.08248093e-06
  1.35590475e-05 -7.26261990e-06  1.00881624e-04  3.00119468e-05 -2.04453401e-05
 -2.26192682e-06 -4.85403367e-06 -7.61615067e-06 -6.79805732e-06  5.12700550e-06
  6.17133553e-06 -5.33229744e-06 -1.79617530e-06  9.66120154e-02  1.61023547e-01
  2.52610493e-02 -5.03473864e-02 -9.02710153e-03 -4.50870639e-01  4.00580642e-02
 -7.95902745e-02 -1.42834827e-02 -3.42034774e-01  1.48498808e-02 -3.76375682e-02
 -6.48874238e-03  7.25859294e-03  1.88788039e-03 -3.79389935e-03  8.02049094e-03
  1.06612010e-02  3.02909220e-02  5.00880947e-02  5.18327871e-03  1.71118062e-02
 -1.69712242e-04 -1.34563773e-01  1.08312467e-02  3.26126681e-02  4.70525671e-04
 -7.56300300e-02 -9.42445874e-03  1.76601774e-02  2.37583404e-03  3.58771158e-03
 -6.27150539e-04 -8.69623504e-04  4.30577876e-03 -3.48746206e-03  1.09089805e-02
  1.80278217e-02 -1.02999078e-02  2.24576340e-03  8.61452294e-04 -4.76146467e-02
 -2.43149008e-02  5.41503286e-03  1.79800321e-03  1.90158798e-02  1.18992707e-02
  6.00340667e-03  1.23117452e-03  2.71691591e-03  1.04389706e-03 -8.74844655e-05
 -5.62736068e-03  3.49049204e-03  6.67475408e-02  1.08594723e-01 -4.00180248e-02
  5.25723021e-02  1.02135498e-02 -2.82823865e-01 -5.97569799e-02  7.19730894e-02
  1.41122715e-02 -6.99905337e-02  3.52709504e-02 -2.34881395e-02 -6.63621751e-03
  1.69896782e-02  3.43882391e-03 -8.19307029e-03  1.59722821e-02  1.77582312e-02
 -6.04878976e-03 -9.41599323e-03  2.76245791e-03 -1.64770534e-03 -2.50656416e-03
 -6.43082687e-04 -4.15405665e-03 -9.54624951e-03  8.28885265e-04 -7.73532181e-04
  2.28248218e-04  2.16745066e-03 -4.17988952e-03 -9.12557407e-03  8.20070482e-04
 -9.77701200e-04  1.18598587e-03 -1.84276202e-03 -1.92620878e-02 -1.31281642e-02
  3.50589893e-04  6.18093893e-03  4.31469649e-04  2.39872520e-04 -1.51985470e-02
 -2.18752533e-02  2.55060414e-03 -2.22074690e-03  5.40759384e-03  2.50273071e-03
  4.46927605e-02  7.46943676e-02  1.29211125e-02 -8.36766227e-03 -2.00030601e-03
 -2.10791576e-01  1.89789332e-02 -1.05685037e-02 -2.58198409e-03 -1.67830701e-01
  1.39957517e-02 -2.26715454e-03 -1.57978458e-03  2.18053496e-03  8.69982957e-04
 -7.45288939e-04 -5.28891656e-04  4.24577303e-03 -9.94905955e-02 -1.64598563e-01
 -1.04200102e-02 -1.17306527e-02  9.70525924e-03  4.36602001e-01 -1.77892855e-02
 -1.88642419e-02  1.61747249e-02  3.32445733e-01 -1.76500731e-02 -1.92141208e-02
  5.08633552e-03 -9.17391873e-03 -5.76472826e-04  3.86967014e-03  2.04065183e-04
  3.39498766e-03 -1.08727632e-02 -1.79224564e-02  7.63890351e-03  5.53177132e-03
  5.27176464e-04  4.74366658e-02  1.91046792e-02  9.83610418e-03  6.27717205e-04
 -1.05330579e-02 -1.05328679e-02  7.05466258e-03  5.30276389e-04 -1.88420418e-03
  1.17443715e-04 -5.42425407e-04  4.72815717e-03  2.78177255e-03 -2.18346240e-02
 -3.64922311e-02  4.16333069e-03  8.61174417e-02  1.29973938e-02  9.79773878e-02
  1.10417019e-02  1.38015700e-01  2.10393214e-02  3.42768983e-02 -2.88849600e-02
 -4.98884072e-03  2.06507964e-03 -5.76845073e-03  3.86726649e-03  7.60102937e-04
 -2.36148794e-03  2.71969066e-02  2.49458203e-03  8.49619106e-03 -3.26501738e-03
  8.09152055e-04  2.03202659e-03  5.19592131e-04  7.06740235e-03  1.45699727e-02
 -8.91384999e-04  1.63154407e-03 -5.17651107e-04 -2.83115641e-03  7.75542659e-03
  1.44011987e-02 -1.95390060e-03  1.77840224e-03 -1.75640993e-03  2.05889388e-03
  7.07885365e-02  7.25480087e-02 -7.13727708e-04 -1.97061887e-02  1.62887346e-03
 -9.83555513e-04  7.67941100e-02  7.66274037e-02 -4.01471609e-04  8.95938645e-03
 -1.70289022e-02 -6.89055319e-03  1.96285153e-02  3.30609723e-02 -1.71675002e-02
 -2.89387068e-03  2.25659957e-04 -9.63509280e-02 -2.84677556e-02 -4.83766050e-03
  4.77878554e-04 -7.75126591e-02 -1.42656288e-02  1.71890972e-03  4.13258379e-04
  2.33762438e-04 -5.10321521e-04 -4.83123817e-04  3.23271715e-03 -2.50326824e-03
  2.54324863e-02  4.23114657e-02 -2.85163456e-02 -1.07963926e-02 -5.07427704e-03
 -1.13796705e-01 -4.63994619e-02 -1.92762306e-02 -8.75873624e-03 -1.04791668e-01
 -1.34586683e-02 -9.26708828e-03 -4.77097120e-03  1.02601539e-03 -3.42814034e-04
 -1.57568338e-03 -2.46603541e-04  5.44232934e-03 -9.51609544e-02 -1.57064378e-01
  1.36398615e-02  1.61379122e-04 -2.63393602e-04  3.98063748e-01  3.58743864e-02
  8.02172042e-04 -1.01251771e-03  2.31787585e-01 -1.64691402e-03  6.74679320e-03
  1.54256121e-03 -2.59064653e-03 -5.33203410e-04 -1.83227027e-04  5.55424360e-03
 -3.92399601e-04 -3.14015659e-02 -5.27480262e-02 -7.59306729e-02  1.33023058e-02
  5.38299069e-03  1.46945402e-01 -1.31231495e-01  1.99466218e-02  8.78174931e-03
  8.22887902e-02 -4.12050671e-02  1.90011394e-02  5.73475667e-03 -5.85753937e-03
 -1.90537796e-03 -9.40035348e-04  1.65998128e-02 -3.19380550e-03  6.98660363e-02
  9.49801806e-02 -1.50697950e-03  7.81827520e-03  1.65008505e-02  3.78427898e-03
  7.20903198e-02  9.65952626e-02 -2.44888249e-03  5.76315359e-03 -5.16658254e-03
 -1.65174706e-02  7.18886910e-02  9.52750804e-02 -3.01296348e-03  6.62651206e-03
 -1.23315356e-02  1.15187063e-02 -3.99750230e-02 -4.58527008e-02 -2.67746127e-03
  8.56073858e-03 -1.16663976e-03  6.91108856e-04 -2.12660868e-02 -1.99355857e-02
 -2.89465273e-03 -3.38844668e-03  2.89538321e-03  1.09596931e-03  3.11200596e-02
  5.26305232e-02 -6.73382750e-03  5.95155683e-02  7.10250443e-03 -1.55650443e-01
 -9.08983271e-03  8.94537940e-02  1.04628453e-02 -1.62485296e-01 -3.42756445e-03
  6.41286820e-02  6.28150833e-03 -2.14662466e-03 -1.64674125e-05  1.22717376e-03
 -6.59294920e-03 -2.48791580e-03  1.82904265e-02  3.04829791e-02 -7.78164195e-02
 -1.33709762e-01 -3.48338361e-02 -7.93790494e-02 -1.25899329e-01 -2.12583698e-01
 -5.52925456e-02 -8.83718604e-02 -6.03906580e-02 -1.26089637e-01 -3.38318612e-02
 -1.43915973e-03  1.18960240e-03 -5.54514326e-03 -9.16869614e-03  1.89413097e-02
  2.86960939e-02  4.75852544e-02  5.73079468e-02  7.45613293e-03 -3.28682012e-03
 -1.17290062e-01  9.66602696e-02  1.15179422e-02 -5.69778582e-03 -1.40036768e-01
  1.66625334e-02  7.58040378e-04 -4.67870239e-03 -6.30525028e-03 -1.45135579e-03
 -1.27378158e-03  1.44628972e-02 -2.95651437e-04 -6.38381301e-02 -1.07427999e-01
  2.66917538e-02  6.67567281e-02  3.98546515e-03  3.08445566e-01  4.85865766e-02
  1.07032884e-01  5.30198099e-03  1.79105394e-01 -3.45698336e-02  5.02418423e-02
  1.08759588e-02 -1.00600052e-02 -3.08909914e-04  1.59661727e-03 -5.24497534e-03
  9.56214091e-03 -4.87122616e-02 -6.60298267e-02 -1.70635913e-02 -9.85808295e-04
 -7.68657768e-03 -1.91855016e-03 -3.98730666e-02 -5.29127614e-02 -1.16227403e-02
  3.36807001e-04  2.20347295e-03  6.73498470e-03 -3.64962372e-02 -4.95991228e-02
 -1.14610175e-02  4.37839563e-05  4.98364295e-03 -4.72468039e-03 -7.37955526e-02
 -9.73935330e-02 -2.07557858e-02  1.16633726e-02 -9.17110368e-03 -4.14507297e-04
 -8.66572709e-02 -1.10054496e-01 -2.45593406e-02 -1.20560314e-02  8.10757362e-03
  4.67056050e-03  1.19979528e-02  2.01015455e-02  2.60279125e-02  4.63644222e-02
  4.33564101e-03 -5.82862850e-02  3.92734756e-02  7.19990200e-02  6.40717747e-03
 -7.26459650e-02  3.09053977e-02  4.98105526e-02  4.59240689e-03 -2.34897703e-03
  2.91927517e-04  1.25532043e-03 -5.97901285e-03  1.54988975e-04 -1.23386965e-03
 -2.23731469e-03  1.50627487e-01 -1.07769532e-01 -3.29982100e-02  9.10703961e-03
  2.36306936e-01 -1.70304832e-01 -5.20881812e-02 -4.14199935e-04  1.57561722e-01
 -1.00563766e-01 -3.17339745e-02 -3.45280920e-03  9.56287175e-03 -8.34097882e-03
  1.04607624e-02  5.54917937e-03 -1.66692019e-02 -2.77530902e-02 -5.49071586e-02
 -9.38551575e-03  2.30553252e-04  7.02698261e-02 -9.07957210e-02 -1.32875527e-02
  9.77996976e-04  6.59123113e-02 -4.85892530e-02 -1.80305574e-02 -3.87588675e-03
  5.78466050e-03  1.11732952e-03  2.83173833e-04 -1.16049229e-02  1.93683819e-03
  4.55463168e-03  7.60777919e-03  6.60859335e-02 -7.57204013e-03 -7.07439327e-03
 -1.74895932e-02  1.06947559e-01 -1.08096285e-02 -1.18148716e-02 -2.19570248e-02
  3.47079562e-02  7.11820673e-03 -1.86075445e-03 -5.33515331e-04  2.65253787e-04
 -4.15401866e-03  1.89202100e-02  9.54219136e-03  3.98458764e-02  5.46383789e-02
  4.34913119e-03  4.02192750e-05  6.15358365e-03  1.62987289e-03  2.58850295e-02
  4.05737247e-02  8.12090854e-03 -1.77377473e-03 -1.80237518e-03 -4.48940569e-03
  2.52102159e-02  3.75705815e-02  8.31824602e-03 -1.54038139e-03 -3.61752719e-03
  3.28871595e-03  1.22177933e-01  1.63371578e-01  3.21090134e-02 -1.98048650e-02
 -4.59595689e-03 -3.94648993e-03 -1.32820770e-01 -1.86892712e-01 -4.15646519e-02
 -3.90183204e-03  1.90664176e-02  8.98616647e-03  3.47449065e-02  5.88680576e-02
 -1.34290992e-01  7.68650023e-02  2.36855490e-02 -1.77800763e-01 -2.05167174e-01
  1.10028094e-01  3.54481458e-02 -2.16216292e-01 -1.51505166e-01  8.52966180e-02
  2.72720820e-02 -6.20992487e-03 -3.66109511e-03  3.15575630e-03  1.72978706e-03
 -1.64425005e-02  1.65352560e-03  2.91759596e-03  7.33852787e-02  5.59733742e-02
  1.84238782e-02 -1.00883084e-02  1.16341178e-01  8.74842845e-02  2.89327295e-02
 -9.70750150e-03  1.08138402e-01  4.79467851e-02  1.92402139e-02  4.70581964e-04
  1.69311096e-03  3.12561767e-04  7.29335612e-03 -7.38899815e-03  7.66669464e-03
  1.25348583e-02  6.95655576e-02 -7.77113627e-02 -9.70585778e-03 -2.42767010e-02
  1.20075619e-01 -1.23853873e-01 -1.54441856e-02 -9.99206562e-02  2.31305660e-02
 -8.72378772e-02 -9.75686857e-03 -1.42023637e-02 -1.46055489e-03  5.49400948e-03
  1.24158554e-02 -1.30198558e-03 -3.15153172e-02 -5.34479890e-02 -6.62920842e-02
 -1.14129905e-01 -6.77864526e-03  1.60535053e-01 -1.04710900e-01 -1.86706658e-01
 -1.03164188e-02  1.25636088e-01 -1.13247998e-01 -5.36197289e-03  9.42344102e-03
 -2.32993922e-03  1.31327674e-04  2.02900956e-03 -9.51007078e-04 -5.32830661e-03
  2.43872036e-02  3.82890558e-02 -5.44227420e-03  6.83343558e-03  1.15721435e-03
  5.99227038e-04 -5.02289225e-02 -6.85288673e-02 -2.40317466e-02  1.19227185e-03
 -1.80317189e-03  6.74495060e-03 -6.71410713e-02 -9.41403633e-02 -2.86634704e-02
 -5.55298859e-04  3.37908765e-03 -7.41729715e-03  5.66309747e-02  6.61990141e-02
  1.35786840e-02 -6.00448980e-03  5.65970141e-03  1.09540348e-03  1.29918968e-02
  2.66530076e-02  8.56210474e-03  6.29521043e-03  5.73110777e-04 -6.56480956e-04
  8.48585070e-04  1.44330101e-03  1.41991756e-02 -1.95982805e-03  8.66160508e-02
 -4.38920670e-03  2.24092182e-02 -4.05276050e-03  1.38632895e-01 -5.58115650e-03
  1.87547204e-02 -4.10777969e-03  1.10244495e-01  3.54408817e-03 -6.05909167e-03
  1.15900886e-02 -4.14518137e-05  2.03269137e-03  5.17108821e-03  8.73762994e-03
 -1.20546756e-03 -2.14577959e-02  7.74919344e-02 -2.52503374e-02 -1.85764394e-03
 -3.43170736e-02  1.24826488e-01 -3.59105104e-02  6.42818370e-03 -3.17794079e-02
  1.10419460e-01  5.75158769e-04 -5.35994592e-03 -7.81641299e-03 -2.27584122e-03
  7.29767367e-04  2.32365539e-04  4.37502196e-04  1.56580949e-03 -1.18313076e-02
  1.46763244e-01 -1.92828378e-03  8.34528054e-04 -1.97783427e-02  2.38584876e-01
 -6.10091048e-03  1.27790595e-03 -1.04346263e-02  1.43979114e-01  1.26495736e-02
 -1.57845103e-03  1.76789287e-02  4.89816766e-03  6.91994099e-05 -1.55538467e-03
 -2.55665369e-03  1.67048867e-02 -1.01653489e-02  9.42117405e-02  5.73409140e-03
  2.77408001e-02 -1.89792856e-02  1.64503672e-01  1.31569838e-02  8.84460160e-03
 -4.48286213e-03  9.47428337e-02 -1.69530880e-03  1.17064046e-03 -3.10814457e-03
  2.76578052e-04 -2.24027095e-03 -1.76202886e-02 -2.56152924e-02 -8.02930382e-03
 -1.27631086e-03 -3.47742850e-03  7.51144699e-03  1.15149201e-01  1.79343063e-01
  6.52150831e-02  6.72016476e-03 -5.70088539e-03 -1.01322998e-02 -9.09852035e-02