methylamine Gaussian Optimization on bme-nova.bme.utexas.edu            
SP        RMP2-FC                                                     6-311G(d,p)         
Number of atoms                            I                7
Info1-9                                    I   N=           9
          18          18           0           0           0         110
           1           2           1
Charge                                     I                0
Multiplicity                               I                1
Number of electrons                        I               18
Number of alpha electrons                  I                9
Number of beta electrons                   I                9
Number of basis functions                  I               66
Number of independent functions            I               66
Number of point charges in /Mol/           I                0
Number of translation vectors              I                0
Atomic numbers                             I   N=           7
           7           6           1           1           1           1
           1
Nuclear charges                            R   N=           7
  7.00000000E+00  6.00000000E+00  1.00000000E+00  1.00000000E+00  1.00000000E+00
  1.00000000E+00  1.00000000E+00
Current cartesian coordinates              R   N=          21
  1.41936952E+00  3.96136915E-07 -2.37754004E-01 -1.33482128E+00  4.42323539E-07
  3.32043779E-02 -2.03841923E+00 -6.80301408E-05  1.99009327E+00 -2.09893771E+00
 -1.66482038E+00 -9.18799964E-01 -2.09892260E+00  1.66489597E+00 -9.18677131E-01
  2.15481503E+00 -1.53559524E+00  6.56218738E-01  2.15481125E+00  1.53559524E+00
  6.56218738E-01
Force Field                                I                0
Int Atom Types                             I   N=           7
           0           0           0           0           0           0
           0
MM charges                                 R   N=           7
  0.00000000E+00  0.00000000E+00  0.00000000E+00  0.00000000E+00  0.00000000E+00
  0.00000000E+00  0.00000000E+00
Integer atomic weights                     I   N=           7
          14          12           1           1           1           1
           1
Real atomic weights                        R   N=           7
  1.40030740E+01  1.20000000E+01  1.00782504E+00  1.00782504E+00  1.00782504E+00
  1.00782504E+00  1.00782504E+00
Atom fragment info                         I   N=           7
           0           0           0           0           0           0
           0
Atom residue num                           I   N=           7
           0           0           0           0           0           0
           0
Nuclear spins                              I   N=           7
           2           0           1           1           1           1
           1
Nuclear ZEff                               R   N=           7
 -4.55000000E+00 -3.60000000E+00 -1.00000000E+00 -1.00000000E+00 -1.00000000E+00
 -1.00000000E+00 -1.00000000E+00
Nuclear QMom                               R   N=           7
  2.04400000E+00  0.00000000E+00  0.00000000E+00  0.00000000E+00  0.00000000E+00
  0.00000000E+00  0.00000000E+00
Nuclear GFac                               R   N=           7
  4.03761000E-01  0.00000000E+00  2.79284600E+00  2.79284600E+00  2.79284600E+00
  2.79284600E+00  2.79284600E+00
MicOpt                                     I   N=           7
          -1          -1          -1          -1          -1          -1
          -1
Number of contracted shells                I               30
Number of primitive shells                 I               54
Pure/Cartesian d shells                    I                0
Pure/Cartesian f shells                    I                0
Highest angular momentum                   I                2
Largest degree of contraction              I                6
Shell types                                I   N=          30
           0          -1          -1          -1          -2           0
          -1          -1          -1          -2           0           0
           0           1           0           0           0           1
           0           0           0           1           0           0
           0           1           0           0           0           1
Number of primitives per shell             I   N=          30
           6           3           1           1           1           6
           3           1           1           1           3           1
           1           1           3           1           1           1
           3           1           1           1           3           1
           1           1           3           1           1           1
Shell to atom map                          I   N=          30
           1           1           1           1           1           2
           2           2           2           2           3           3
           3           3           4           4           4           4
           5           5           5           5           6           6
           6           6           7           7           7           7
Primitive exponents                        R   N=          54
  6.29348000E+03  9.49044000E+02  2.18776000E+02  6.36916000E+01  1.88282000E+01
  2.72023000E+00  3.06331000E+01  7.02614000E+00  2.11205000E+00  6.84009000E-01
  2.00878000E-01  9.13000000E-01  4.56324000E+03  6.82024000E+02  1.54973000E+02
  4.44553000E+01  1.30290000E+01  1.82773000E+00  2.09642000E+01  4.80331000E+00
  1.45933000E+00  4.83456000E-01  1.45585000E-01  6.26000000E-01  3.38650000E+01
  5.09479000E+00  1.15879000E+00  3.25840000E-01  1.02741000E-01  7.50000000E-01
  3.38650000E+01  5.09479000E+00  1.15879000E+00  3.25840000E-01  1.02741000E-01
  7.50000000E-01  3.38650000E+01  5.09479000E+00  1.15879000E+00  3.25840000E-01
  1.02741000E-01  7.50000000E-01  3.38650000E+01  5.09479000E+00  1.15879000E+00
  3.25840000E-01  1.02741000E-01  7.50000000E-01  3.38650000E+01  5.09479000E+00
  1.15879000E+00  3.25840000E-01  1.02741000E-01  7.50000000E-01
Contraction coefficients                   R   N=          54
  1.96978815E-03  1.49612859E-02  7.35005308E-02  2.48936766E-01  6.02459433E-01
  2.56201759E-01  1.11906080E-01  9.21666655E-01 -2.56919183E-03  1.00000000E+00
  1.00000000E+00  1.00000000E+00  1.96665025E-03  1.52306019E-02  7.61269097E-02
  2.60801033E-01  6.16462078E-01  2.21006028E-01  1.14660081E-01  9.19999648E-01
 -3.03068213E-03  1.00000000E+00  1.00000000E+00  1.00000000E+00  2.54938145E-02
  1.90373109E-01  8.52161486E-01  1.00000000E+00  1.00000000E+00  1.00000000E+00
  2.54938145E-02  1.90373109E-01  8.52161486E-01  1.00000000E+00  1.00000000E+00
  1.00000000E+00  2.54938145E-02  1.90373109E-01  8.52161486E-01  1.00000000E+00
  1.00000000E+00  1.00000000E+00  2.54938145E-02  1.90373109E-01  8.52161486E-01
  1.00000000E+00  1.00000000E+00  1.00000000E+00  2.54938145E-02  1.90373109E-01
  8.52161486E-01  1.00000000E+00  1.00000000E+00  1.00000000E+00
P(S=P) Contraction coefficients            R   N=          54
  0.00000000E+00  0.00000000E+00  0.00000000E+00  0.00000000E+00  0.00000000E+00
  0.00000000E+00  3.83119186E-02  2.37403116E-01  8.17592398E-01  1.00000000E+00
  1.00000000E+00  0.00000000E+00  0.00000000E+00  0.00000000E+00  0.00000000E+00
  0.00000000E+00  0.00000000E+00  0.00000000E+00  4.02486927E-02  2.37593957E-01
  8.15853851E-01  1.00000000E+00  1.00000000E+00  0.00000000E+00  0.00000000E+00
  0.00000000E+00  0.00000000E+00  0.00000000E+00  0.00000000E+00  0.00000000E+00
  0.00000000E+00  0.00000000E+00  0.00000000E+00  0.00000000E+00  0.00000000E+00
  0.00000000E+00  0.00000000E+00  0.00000000E+00  0.00000000E+00  0.00000000E+00
  0.00000000E+00  0.00000000E+00  0.00000000E+00  0.00000000E+00  0.00000000E+00
  0.00000000E+00  0.00000000E+00  0.00000000E+00  0.00000000E+00  0.00000000E+00
  0.00000000E+00  0.00000000E+00  0.00000000E+00  0.00000000E+00
Coordinates of each shell                  R   N=          90
  1.41936920E+00  0.00000000E+00 -2.37754109E-01  1.41936920E+00  0.00000000E+00
 -2.37754109E-01  1.41936920E+00  0.00000000E+00 -2.37754109E-01  1.41936920E+00
  0.00000000E+00 -2.37754109E-01  1.41936920E+00  0.00000000E+00 -2.37754109E-01
 -1.33482160E+00  0.00000000E+00  3.32042729E-02 -1.33482160E+00  0.00000000E+00
  3.32042729E-02 -1.33482160E+00  0.00000000E+00  3.32042729E-02 -1.33482160E+00
  0.00000000E+00  3.32042729E-02 -1.33482160E+00  0.00000000E+00  3.32042729E-02
 -2.03841955E+00 -6.84842634E-05  1.99009316E+00 -2.03841955E+00 -6.84842634E-05
  1.99009316E+00 -2.03841955E+00 -6.84842634E-05  1.99009316E+00 -2.03841955E+00
 -6.84842634E-05  1.99009316E+00 -2.09893800E+00 -1.66482083E+00 -9.18800069E-01
 -2.09893800E+00 -1.66482083E+00 -9.18800069E-01 -2.09893800E+00 -1.66482083E+00
 -9.18800069E-01 -2.09893800E+00 -1.66482083E+00 -9.18800069E-01 -2.09892294E+00
  1.66489551E+00 -9.18677236E-01 -2.09892294E+00  1.66489551E+00 -9.18677236E-01
 -2.09892294E+00  1.66489551E+00 -9.18677236E-01 -2.09892294E+00  1.66489551E+00
 -9.18677236E-01  2.15481474E+00 -1.53559562E+00  6.56218633E-01  2.15481474E+00
 -1.53559562E+00  6.56218633E-01  2.15481474E+00 -1.53559562E+00  6.56218633E-01
  2.15481474E+00 -1.53559562E+00  6.56218633E-01  2.15481090E+00  1.53559485E+00
  6.56218633E-01  2.15481090E+00  1.53559485E+00  6.56218633E-01  2.15481090E+00
  1.53559485E+00  6.56218633E-01  2.15481090E+00  1.53559485E+00  6.56218633E-01
Constraint Structure                       R   N=          21
  1.41936920E+00  0.00000000E+00 -2.37754109E-01 -1.33482160E+00  0.00000000E+00
  3.32042729E-02 -2.03841955E+00 -6.84842634E-05  1.99009316E+00 -2.09893800E+00
 -1.66482083E+00 -9.18800069E-01 -2.09892294E+00  1.66489551E+00 -9.18677236E-01
  2.15481474E+00 -1.53559562E+00  6.56218633E-01  2.15481090E+00  1.53559485E+00
  6.56218633E-01
Num ILSW                                   I              100
ILSW                                       I   N=         100
           0           0           0           0           2           0
           0           0           0           0           0  2684354560
           0           0           0           0           0           0
           0           0           0           0           0           0
           1           0           0           0           0           0
           0           0      100000           0          -1           0
           0           0           0           0           0           0
           0           0           0           1           0           0
           0           0           1           0           0           0
           0           0           4          40           0           0
           0           0           0           0           0           0
           0           0           0           0           0           0
           0           0           0           0           0           0
           0           0           0           0           0           0
           0           0           0           0           0           0
           0           0           0           0           0           0
           0           0           0           0
Num RLSW                                   I               40
RLSW                                       R   N=          40
  1.00000000E+00  1.00000000E+00  1.00000000E+00  1.00000000E+00  1.00000000E+00
  0.00000000E+00  0.00000000E+00  1.00000000E+00  0.00000000E+00  0.00000000E+00
  0.00000000E+00  0.00000000E+00  1.00000000E+00  0.00000000E+00  0.00000000E+00
  0.00000000E+00  0.00000000E+00  1.00000000E+00  0.00000000E+00  0.00000000E+00
  0.00000000E+00  0.00000000E+00  1.00000000E+00  0.00000000E+00  0.00000000E+00
  0.00000000E+00  0.00000000E+00  1.00000000E+00  0.00000000E+00  0.00000000E+00
  0.00000000E+00  0.00000000E+00  0.00000000E+00  0.00000000E+00  0.00000000E+00
  0.00000000E+00  0.00000000E+00  0.00000000E+00  1.00000000E+00  1.00000000E+00
MxBond                                     I                4
NBond                                      I   N=           7
           3           4           1           1           1           1
           1
IBond                                      I   N=          28
           2           6           7           0           1           3
           4           5           2           0           0           0
           2           0           0           0           2           0
           0           0           1           0           0           0
           1           0           0           0
RBond                                      R   N=          28
  1.00000000E+00  1.00000000E+00  1.00000000E+00  0.00000000E+00  1.00000000E+00
  1.00000000E+00  1.00000000E+00  1.00000000E+00  1.00000000E+00  0.00000000E+00
  0.00000000E+00  0.00000000E+00  1.00000000E+00  0.00000000E+00  0.00000000E+00
  0.00000000E+00  1.00000000E+00  0.00000000E+00  0.00000000E+00  0.00000000E+00
  1.00000000E+00  0.00000000E+00  0.00000000E+00  0.00000000E+00  1.00000000E+00
  0.00000000E+00  0.00000000E+00  0.00000000E+00
Virial Ratio                               R      2.000973473890126E+00
SCF Energy                                 R     -9.524174130276057E+01
MP2 Energy                                 R     -9.558742693650791E+01
Total Energy                               R     -9.558742693650791E+01
Post-SCF wavefunction norm                 R      1.051379995418149E+00
RMS Density                                R      8.044642713916457E-09
External E-field                           R   N=          35
  0.00000000E+00  0.00000000E+00  0.00000000E+00  0.00000000E+00  0.00000000E+00
  0.00000000E+00  0.00000000E+00  0.00000000E+00  0.00000000E+00  0.00000000E+00
  0.00000000E+00  0.00000000E+00  0.00000000E+00  0.00000000E+00  0.00000000E+00
  0.00000000E+00  0.00000000E+00  0.00000000E+00  0.00000000E+00  0.00000000E+00
  0.00000000E+00  0.00000000E+00  0.00000000E+00  0.00000000E+00  0.00000000E+00
  0.00000000E+00  0.00000000E+00  0.00000000E+00  0.00000000E+00  0.00000000E+00
  0.00000000E+00  0.00000000E+00  0.00000000E+00  0.00000000E+00  0.00000000E+00
IOpCl                                      I                0
IROHF                                      I                0
Alpha Orbital Energies                     R   N=          66
 -1.55313160E+01 -1.12406611E+01 -1.16477230E+00 -8.91747920E-01 -6.56662156E-01
 -5.99927126E-01 -5.50890042E-01 -5.13660324E-01 -3.89055894E-01  1.56485311E-01
  1.92826498E-01  2.09719361E-01  2.31523209E-01  2.57514850E-01  3.75606153E-01
  4.63810580E-01  4.84317351E-01  5.46939511E-01  5.59284836E-01  7.04033990E-01
  7.58483190E-01  8.06662248E-01  8.07838532E-01  8.52904198E-01  9.32714108E-01
  9.53029425E-01  9.70841917E-01  1.26684093E+00  1.29462902E+00  1.29487872E+00
  1.58601540E+00  1.63848711E+00  1.72686832E+00  1.74480620E+00  1.76001336E+00
  1.82838281E+00  1.89318895E+00  1.92304533E+00  1.98521704E+00  2.03310613E+00
  2.14267741E+00  2.25850355E+00  2.32633949E+00  2.44138834E+00  2.47480609E+00
  2.63750634E+00  2.66131670E+00  2.71910555E+00  2.78015533E+00  2.79406376E+00
  2.86566619E+00  2.87055260E+00  2.94242814E+00  3.08549886E+00  3.08828002E+00
  3.19739360E+00  3.31626031E+00  3.50038246E+00  3.82505951E+00  4.15246224E+00
  4.21316931E+00  4.49655210E+00  5.20557800E+00  5.32335622E+00  2.50444879E+01
  3.69971319E+01
Alpha MO coefficients                      R   N=        4356
  5.57661801E-01  4.68260534E-01 -4.99302492E-04 -3.00094016E-09  1.85597335E-03
  4.97790353E-03  1.94116525E-04  3.27785939E-09 -7.48019368E-04 -1.23893386E-03
  2.61182062E-04 -7.89767402E-10  1.69745837E-05  1.58954650E-04 -4.26291778E-05
  6.69740969E-10 -4.31012960E-05  8.26183129E-10  7.96934283E-06 -3.37304534E-05
  3.82549459E-05  2.12455801E-10 -2.60652113E-05  1.32002878E-04  3.61063971E-04
 -1.42518067E-09  5.29967998E-05  6.80012607E-04  2.72444150E-04  4.20564363E-09
 -7.77310346E-05 -7.04236472E-05  3.30987380E-05 -1.40418302E-09  1.61151481E-04
 -3.95521077E-10  3.84293055E-06 -5.47404160E-05 -1.24225668E-05 -3.26836074E-05
  2.27599455E-10 -1.19556071E-05  1.99360996E-05 -6.06970795E-05 -1.74623540E-05
  9.50003162E-06  1.92965847E-05  1.87135277E-05  1.99367359E-05 -6.06986023E-05
 -1.74678575E-05  9.49804584E-06 -1.92979901E-05  1.87115906E-05  2.53377749E-04
  2.81922551E-04  5.28440130E-05 -8.99544623E-05  1.02436077E-04  7.66109888E-06
  2.53378337E-04  2.81919791E-04  5.28453211E-05 -8.99531432E-05 -1.02434912E-04
  7.66220939E-06 -8.65963468E-05 -1.38547346E-04 -9.37245072E-05  6.62118583E-11
  1.74849512E-05  2.75587854E-04 -4.99065033E-04 -8.28982632E-10  1.54643133E-05
  2.30319877E-04 -1.26177534E-04 -4.98606064E-10 -1.08104139E-05 -8.20876914E-05
 -6.99520655E-05 -2.23060775E-10  1.92458160E-04  4.60863224E-10  5.63423880E-01
  4.66560532E-01  5.21953613E-04  1.48269493E-09  5.67161080E-06  4.14740572E-03
 -4.84865971E-04  3.66938994E-09 -1.94048340E-05 -1.23063800E-03  6.57473251E-05
 -7.44134046E-10  4.20250686E-05  7.01063703E-05  3.94796212E-05  2.87455207E-10
 -1.86047478E-04 -3.07750795E-10  3.43508495E-04  1.21071313E-04  2.23779163E-04
  3.53746088E-05  1.83231571E-10 -3.40063654E-06  3.42228526E-04  9.83981045E-05
  2.56541904E-04  2.34525414E-05 -1.30752923E-05 -1.06570838E-05  3.42229280E-04
  9.83949960E-05  2.56542613E-04  2.34520783E-05  1.30769855E-05 -1.06568154E-05
  6.68056531E-07  6.30157900E-05 -1.37695242E-05 -2.40715132E-05  4.67310914E-05
 -2.19419993E-05  6.68119627E-07  6.30170825E-05 -1.37705673E-05 -2.40716655E-05
 -4.67313629E-05 -2.19422303E-05 -9.88894904E-02 -1.63601393E-01 -1.59579072E-02
  1.23046100E-07  2.72961869E-02  4.35794439E-01 -3.26641010E-02  1.44723480E-07
  4.56347636E-02  3.22748722E-01 -2.44480090E-02  8.59456992E-08  1.78631930E-02
 -5.22116448E-03  7.64821246E-04  3.15117619E-08  2.65273656E-03  2.94042105E-09
 -5.08135060E-02 -8.35239488E-02  3.80617815E-02  1.06731505E-07 -2.17948415E-03
  2.12366219E-01  7.85962632E-02  1.12790599E-07 -3.13808235E-03  5.76845348E-02
 -4.77454295E-04 -5.31132832E-08  5.52494847E-03 -1.12706337E-02 -1.42558103E-03
 -2.50565062E-08  1.85943895E-02 -1.22108225E-08  2.58365779E-02  3.89591478E-02
 -2.68976296E-03  4.37159094E-03  3.06577884E-07 -9.00032348E-03  2.66052028E-02
  4.26620660E-02 -1.19299095E-03  4.52106329E-03  8.01099324E-03  4.40098244E-03
  2.66054441E-02  4.26623064E-02 -1.19300417E-03  4.52101707E-03 -8.01135695E-03
  4.40040110E-03  7.80329482E-02  7.91756058E-02  6.95379315E-04 -9.27114639E-03
  1.71129207E-02 -7.89053236E-03  7.80332235E-02  7.91757817E-02  6.95356800E-04
 -9.27114094E-03 -1.71129524E-02 -7.89054325E-03  4.11363024E-02  6.83848804E-02
 -6.74415200E-02 -1.52869338E-08 -2.31065699E-02 -1.84266897E-01 -1.11565799E-01
 -2.41154548E-08 -3.74565464E-02 -1.62335463E-01 -4.98156452E-02  8.95636467E-08
 -1.43061473E-02 -3.86357679E-03 -8.21391691E-03 -1.00573909E-08  1.30130649E-02
 -5.49878348E-09 -8.86373366E-02 -1.46985235E-01 -4.01665016E-02  3.12472486E-07
 -3.12150780E-03  3.79182417E-01 -5.25447693E-02  4.21210919E-07 -5.12015734E-03
  2.51912812E-01 -2.47134216E-02 -1.37633005E-07  6.90220617E-03  3.48598189E-03
 -6.03819364E-04  1.07785272E-08 -8.15444773E-03  1.68078192E-08  8.10850606E-02
  1.09040870E-01  5.52996515E-03  4.20452616E-03  6.13377443E-07 -1.71308318E-02
  8.45392835E-02  1.17654764E-01  9.28856108E-03  4.95149810E-03  1.56314746E-02
  8.67125735E-03  8.45394833E-02  1.17655095E-01  9.28877195E-03  4.95142057E-03
 -1.56321498E-02  8.67010679E-03 -6.24009120E-02 -7.84784650E-02 -1.17854629E-02
  1.74933568E-03 -1.21170474E-02  4.65551148E-03 -6.24009468E-02 -7.84784293E-02
 -1.17854941E-02  1.74926997E-03  1.21170455E-02  4.65549391E-03  6.40408989E-08
  1.10816469E-07 -1.32422940E-08  1.75574057E-01  7.85559807E-08 -2.94791016E-07
 -1.12938830E-08  2.77724288E-01  9.04589901E-08 -7.72645150E-07 -1.80619137E-07
  1.67485513E-01 -2.80787033E-07  5.23314166E-09 -1.33783685E-09  2.54750014E-02
 -3.14888461E-08  3.71565924E-03  1.30497560E-07  2.24239482E-07  1.40669656E-07
  9.87690859E-02 -1.52083917E-07 -5.97427261E-07  2.68177083E-07  1.62868368E-01
 -1.90239296E-07 -9.16309224E-07  2.58647430E-07  1.04144039E-01  6.70973398E-07
 -1.34142473E-06 -7.12153849E-08 -1.33330423E-02 -8.49146662E-07  5.99848674E-03
 -2.87502470E-06 -4.24676887E-06 -1.58458268E-06 -1.64346814E-07  4.16384025E-03
  4.29670340E-07 -6.36092072E-02 -8.51097292E-02 -2.26571396E-02 -2.52908279E-03
 -3.48191272E-03 -5.03419976E-03  6.36119685E-02  8.51142513E-02  2.26587246E-02
  2.52930520E-03 -3.48267546E-03  5.03379690E-03 -1.18781282E-01 -1.79217190E-01
 -4.91703654E-02  1.24329601E-02 -1.02062384E-02  1.14324067E-02  1.18781313E-01
  1.79217605E-01  4.91703646E-02 -1.24329715E-02 -1.02062818E-02 -1.14324181E-02
  1.62135296E-02  2.75503697E-02  1.03806926E-01  4.30406921E-07  9.87985044E-02
 -8.43206941E-02  1.67880314E-01  7.29555689E-07  1.55522441E-01 -9.43420825E-02
  1.05724781E-01  4.05921437E-07  1.26657453E-01  1.10530118E-02  1.95382881E-03
  5.55836177E-08 -1.35857193E-02  1.73387405E-08 -2.74296383E-03 -4.20501148E-03
 -8.85663563E-02 -1.12895164E-07  1.35894721E-01  4.26853983E-03 -1.53112351E-01
 -1.24597171E-07  2.18746318E-01  2.33337614E-02 -6.87228008E-02  5.43585233E-07
  1.16634260E-01  2.64410051E-02  2.40448731E-04 -1.82939665E-06 -1.14140113E-02
 -6.16165925E-08  1.36512504E-01  2.11300911E-01  8.60095111E-02  3.23133529E-03
  7.51045191E-07 -1.49001254E-02 -2.01555210E-02 -3.38109009E-02 -1.49206997E-02
 -5.30951194E-03 -4.25360468E-03  5.27943114E-03 -2.01494214E-02 -3.38020458E-02
 -1.49176870E-02 -5.30923799E-03  4.25295378E-03  5.28030043E-03  5.60414420E-02
  7.89008524E-02  2.96249960E-02  2.14901769E-03  1.05329043E-02  2.99001329E-03
  5.60419752E-02  7.89013646E-02  2.96252137E-02  2.14911329E-03 -1.05328900E-02
  2.98997735E-03 -1.54539596E-03 -2.58852218E-03  1.51426877E-01  8.01068627E-08
 -2.79434091E-02  8.01455323E-03  2.40480927E-01  8.39964521E-08 -4.81434829E-02
 -7.39480299E-03  1.80604214E-01 -6.19259541E-08 -4.84098768E-02  1.24464243E-03
  2.05531494E-02  2.82702783E-08 -1.47597714E-02 -2.61019543E-08  3.76689562E-03
  6.72955640E-03 -1.34789681E-01 -4.09155563E-08 -1.10128826E-01 -2.27805113E-02
 -2.25932921E-01 -1.56186399E-07 -1.75540381E-01  1.69452975E-03 -1.23528965E-01
 -3.78201647E-07 -1.22611350E-01  7.49418565E-05  1.28862173E-02  1.86150233E-06
 -3.44880564E-02  1.92604954E-07 -5.80662885E-02 -9.00449222E-02 -4.32926777E-02
 -8.73550120E-03 -3.17948054E-07  3.48799116E-03  8.75747341E-02  1.35464993E-01
  5.42478038E-02 -1.33185530E-03  1.05554239E-02  7.32498668E-04  8.75681780E-02
  1.35455386E-01  5.42438253E-02 -1.33220980E-03 -1.05551484E-02  7.31170464E-04
  4.59967151E-02  8.02687883E-02  3.52804034E-02  7.69389798E-03  8.38156990E-03
 -6.74532429E-03  4.59966764E-02  8.02690493E-02  3.52806448E-02  7.69382327E-03
 -8.38158080E-03 -6.74532951E-03  1.12672255E-07  1.92585252E-07  4.78231285E-07
 -1.07654737E-01  2.85691167E-07 -5.36596412E-07  7.62421210E-07 -1.65617738E-01
  4.16698361E-07 -1.20819247E-06  4.36189661E-07 -1.22901233E-01  1.21102096E-07
 -5.35409049E-08  9.78284944E-09 -1.66398948E-02 -5.30521580E-08 -1.67627746E-02
  8.30677603E-08  1.49301506E-07 -3.07845181E-08  1.65732023E-01  1.46361708E-07
 -4.64735122E-07 -2.02932952E-08  2.61261471E-01  2.99848018E-07 -6.85766271E-07
  1.98260651E-07  1.78835656E-01  4.49706184E-07 -2.26242674E-06 -1.20985722E-07
 -2.40935249E-02 -1.56452012E-06 -2.74879538E-02 -5.19030516E-06 -8.56251467E-06
 -4.21029759E-06 -2.68886767E-07  9.73143425E-03  8.30265355E-07 -1.26840292E-01
 -2.07376941E-01 -9.46547182E-02 -7.32576380E-03 -7.00097318E-03 -1.05784319E-02
  1.26845914E-01  2.07386427E-01  9.46592133E-02  7.32601171E-03 -7.00255308E-03
  1.05776762E-02  8.42662186E-02  1.39004389E-01  7.05549324E-02 -6.94813011E-03
  6.82374494E-03 -7.45525938E-03 -8.42658769E-02 -1.39002895E-01 -7.05545912E-02
  6.94798095E-03  6.82361901E-03  7.45518772E-03  2.98020818E-02  5.07873204E-02
 -5.50476382E-02 -1.66695312E-07  2.29460787E-01 -1.54324744E-01 -7.98591332E-02
 -3.17092009E-07  3.45023800E-01 -2.05006107E-01 -1.23529330E-01 -8.76430118E-07
  4.26671243E-01  1.12107936E-02 -1.93870393E-03  5.03105987E-08  4.18824939E-04
  1.78167700E-08 -5.69855532E-03 -9.58318835E-03  2.95409639E-02 -2.95071746E-07
 -7.49374170E-02  2.76513452E-02  4.66700949E-02 -4.41436049E-07 -1.15148893E-01
 -2.96135964E-02  4.84022144E-03 -1.93665865E-07 -7.50034549E-02 -1.73535538E-02
  3.11605536E-02  1.32993952E-06 -5.06620584E-04  7.59074559E-08 -8.94649181E-02
 -1.76869830E-01 -9.63319429E-02 -2.24657362E-03 -5.23508948E-07  7.81863362E-03
  3.60666490E-02  8.27808597E-02  2.98761203E-02  3.82537501E-03  5.88016902E-03
 -2.25147696E-03  3.60611881E-02  8.27697573E-02  2.98701001E-02  3.82503154E-03
 -5.87964415E-03 -2.25246074E-03  4.22363325E-02  5.45354653E-02  3.23346088E-02
 -8.05923357E-03  8.83444995E-03  1.61843576E-02  4.22363992E-02  5.45364477E-02
  3.23350585E-02 -8.05941370E-03 -8.83454814E-03  1.61843749E-02 -2.69907704E-02
 -4.40330751E-02  4.37553999E-02 -7.65015455E-08  3.70795611E-02  8.69639340E-02
  3.92844334E-02 -9.38561421E-08  5.42797843E-02  6.46335670E-01  3.10328792E-01
 -5.37031871E-07  1.25524964E-01  1.91884942E-03  2.23502540E-03  4.07420635E-08
 -5.89150820E-04 -2.15729558E-08 -2.79784501E-02 -4.41550127E-02 -5.43137629E-02
  6.47496564E-07  1.64677773E-02  1.06026468E-02 -6.64251297E-02  5.56034822E-07
  1.16613484E-02  1.60092422E+00 -2.20476807E-01  5.75703812E-06  9.48441996E-02
 -4.10278690E-03  4.96300256E-03  2.76732173E-07  3.19546858E-03  2.93711392E-08
 -3.49369488E-03 -2.19485323E-03 -7.87000881E-01 -5.62899048E-03  6.96683819E-08
 -1.68327258E-03 -1.22889388E-03 -3.80507430E-02 -5.21280634E-01 -6.76503615E-03
 -2.62572940E-03 -1.83423630E-03 -1.22912438E-03 -3.80499631E-02 -5.21301912E-01
 -6.76485674E-03  2.62556239E-03 -1.83381927E-03 -1.73459746E-02  6.18893245E-02
 -6.69703195E-01 -4.43030742E-03  5.91991527E-03 -4.59838726E-04 -1.73459612E-02
  6.18894597E-02 -6.69704266E-01 -4.43027930E-03 -5.91990042E-03 -4.59786090E-04
  2.89133756E-02  4.72380866E-02 -8.55764694E-03  7.08143992E-07 -4.23671695E-02
 -8.09840858E-02  1.77069477E-02  7.28045522E-07 -6.20400018E-02 -8.39531723E-01
 -9.55332572E-02  3.12949945E-06 -1.70723525E-01 -3.50750180E-03  5.39457697E-04
 -3.16645817E-08  3.76447930E-03 -2.57455951E-08 -3.74888020E-02 -6.07619911E-02
 -1.60506701E-02 -1.26660092E-07 -1.47422651E-02  8.28526787E-02  1.81586602E-02
 -2.61592736E-07 -6.99146763E-03  1.40572121E+00 -2.25536394E-01  4.56001825E-07
 -1.63554144E-01  2.93626669E-04 -3.78910624E-03 -5.47626484E-08 -3.08977509E-03
  4.19149173E-08 -1.15069855E-02  8.11046948E-02 -5.89456310E-01  8.18539604E-03
  5.64725967E-08 -2.49379694E-03 -1.28265496E-02  7.12187429E-02 -9.21821084E-01
  7.42247590E-03  2.85296689E-03  3.96973268E-03 -1.28261619E-02  7.12201529E-02
 -9.21811576E-01  7.42236798E-03 -2.85317211E-03  3.96940212E-03  2.02792562E-02
 -6.01919591E-02  7.93854926E-01  7.15542502E-03 -1.35408262E-04 -2.01206163E-03
  2.02790749E-02 -6.01910999E-02  7.93845483E-01  7.15533567E-03  1.35305839E-04
 -2.01227688E-03  2.45453580E-07  4.02898520E-07  3.34206617E-07 -8.91438101E-02
 -7.38856787E-07 -4.84561833E-07  5.75452228E-07 -8.31143140E-02 -4.17215784E-07
 -8.94864081E-06 -2.54666750E-07 -4.51862575E-01 -8.31140228E-06 -2.15360818E-07
 -3.44806396E-07 -3.98729775E-03 -1.18216023E-07  1.27803729E-02 -2.75577169E-07
 -4.59084988E-07 -2.07736010E-08 -9.51998835E-02  4.20389507E-06  6.28049965E-07
  2.43761966E-07 -4.73562563E-02  2.47234469E-06  1.00393675E-05  3.34581276E-07
 -7.50153092E-01  3.56212094E-05 -1.93959336E-06  3.65050184E-07 -1.25799916E-02
 -1.29511426E-06 -1.88659483E-02 -1.17479509E-06  7.50897162E-06 -1.13733515E-04
  5.04403724E-07  2.95740329E-03 -1.59820783E-06 -1.11030671E-02  9.45169212E-02
 -1.17804278E+00  8.63047516E-03  1.65443359E-02  7.69162081E-03  1.11038068E-02
 -9.45237971E-02  1.17814310E+00 -8.63089134E-03  1.65467421E-02 -7.69105086E-03
 -2.09750131E-02  7.66039182E-02 -1.16265354E+00 -4.71684814E-03  7.17453073E-03
 -3.45608689E-03  2.09750137E-02 -7.65994652E-02  1.16265970E+00  4.71671676E-03
  7.17461358E-03  3.45555437E-03 -7.74867496E-03 -1.27020962E-02 -5.22095694E-03
 -1.83936780E-06  1.63444971E-02  1.77565837E-02 -8.56599690E-03 -1.49322701E-06
  9.11920301E-03  2.78895039E-01  1.61246009E-03 -1.06042555E-05  1.97376716E-01
  9.41035100E-04  1.08340685E-02 -5.39359052E-07  7.84655826E-04  3.39313406E-07
  2.66812469E-03  4.50270825E-03 -1.35534492E-02 -3.53508406E-06 -1.38295502E-01
 -6.44397986E-03 -1.96068212E-02 -1.84890478E-06 -7.85830422E-02 -9.11882234E-02
 -1.31046194E-01 -2.81203320E-05 -1.15271860E+00  1.96269136E-02 -1.91886930E-02
 -3.01694110E-06  1.29071287E-02 -7.57619761E-07  1.78221722E-02 -1.91657733E-01
  2.21171010E+00 -1.05662430E-02 -1.10443341E-06  3.08892779E-02 -6.58500080E-03
  8.27564970E-02 -1.06860110E+00  4.01613331E-03  1.51876229E-02  5.80292141E-03
 -6.58322421E-03  8.27368147E-02 -1.06837197E+00  4.01469264E-03 -1.51851963E-02
  5.80005343E-03  1.95408535E-03 -2.28937476E-02 -1.38915506E-01  1.71820747E-03
 -1.23269728E-03  5.02686185E-03  1.95455454E-03 -2.29014443E-02 -1.38845672E-01
  1.71846937E-03  1.23287465E-03  5.02618045E-03 -1.11645228E-08 -3.11806030E-09
  6.22150587E-08  9.44820800E-02  3.54152847E-07 -1.36600688E-07 -5.71934927E-08
  8.21208871E-02  6.57556020E-07  1.43167437E-06 -1.58538718E-07  6.20097620E-01
 -7.13483000E-07 -2.73937369E-07 -1.15256411E-07  9.03797372E-04 -2.16634116E-07
  3.00251396E-03  6.04822828E-09  4.92371941E-09 -2.23093060E-07 -1.01278749E-01
  9.82756746E-07 -9.25224077E-10 -3.47428697E-07 -6.23300839E-02  4.11617241E-07
 -1.55578704E-06 -3.23309013E-07 -9.68351839E-01  5.86068314E-06 -1.85585375E-06