methylamine Gaussian SP Calculation on bme-nova.bme.utexas.edu          
FOpt      RMP2-FC                                                     6-31G(d)            
Number of atoms                            I                7
Info1-9                                    I   N=           9
          19          18           0           0           0         100
           2           2           1
Charge                                     I                0
Multiplicity                               I                1
Number of electrons                        I               18
Number of alpha electrons                  I                9
Number of beta electrons                   I                9
Number of basis functions                  I               40
Number of independent functions            I               40
Number of point charges in /Mol/           I                0
Number of translation vectors              I                0
Atomic numbers                             I   N=           7
           7           6           1           1           1           1
           1
Nuclear charges                            R   N=           7
  7.00000000E+00  6.00000000E+00  1.00000000E+00  1.00000000E+00  1.00000000E+00
  1.00000000E+00  1.00000000E+00
Current cartesian coordinates              R   N=          21
  1.41936899E+00 -6.12229050E-07 -2.37753415E-01 -1.33482136E+00 -4.91925286E-07
  3.32034547E-02 -2.03841972E+00 -6.84502439E-05  1.99009394E+00 -2.09893814E+00
 -1.66482002E+00 -9.18799923E-01 -2.09892251E+00  1.66489566E+00 -9.18676838E-01
  2.15481435E+00 -1.53559458E+00  6.56218053E-01  2.15481125E+00  1.53559463E+00
  6.56217949E-01
Force Field                                I                0
Int Atom Types                             I   N=           7
           0           0           0           0           0           0
           0
MM charges                                 R   N=           7
  0.00000000E+00  0.00000000E+00  0.00000000E+00  0.00000000E+00  0.00000000E+00
  0.00000000E+00  0.00000000E+00
Integer atomic weights                     I   N=           7
          14          12           1           1           1           1
           1
Real atomic weights                        R   N=           7
  1.40030740E+01  1.20000000E+01  1.00782504E+00  1.00782504E+00  1.00782504E+00
  1.00782504E+00  1.00782504E+00
Atom fragment info                         I   N=           7
           0           0           0           0           0           0
           0
Atom residue num                           I   N=           7
           0           0           0           0           0           0
           0
Nuclear spins                              I   N=           7
           2           0           1           1           1           1
           1
Nuclear ZEff                               R   N=           7
 -4.55000000E+00 -3.60000000E+00 -1.00000000E+00 -1.00000000E+00 -1.00000000E+00
 -1.00000000E+00 -1.00000000E+00
Nuclear QMom                               R   N=           7
  2.04400000E+00  0.00000000E+00  0.00000000E+00  0.00000000E+00  0.00000000E+00
  0.00000000E+00  0.00000000E+00
Nuclear GFac                               R   N=           7
  4.03761000E-01  0.00000000E+00  2.79284600E+00  2.79284600E+00  2.79284600E+00
  2.79284600E+00  2.79284600E+00
MicOpt                                     I   N=           7
          -1          -1          -1          -1          -1          -1
          -1
Number of contracted shells                I               18
Number of primitive shells                 I               42
Pure/Cartesian d shells                    I                1
Pure/Cartesian f shells                    I                0
Highest angular momentum                   I                2
Largest degree of contraction              I                6
Shell types                                I   N=          18
           0          -1          -1           2           0          -1
          -1           2           0           0           0           0
           0           0           0           0           0           0
Number of primitives per shell             I   N=          18
           6           3           1           1           6           3
           1           1           3           1           3           1
           3           1           3           1           3           1
Shell to atom map                          I   N=          18
           1           1           1           1           2           2
           2           2           3           3           4           4
           5           5           6           6           7           7
Primitive exponents                        R   N=          42
  4.17351146E+03  6.27457911E+02  1.42902093E+02  4.02343293E+01  1.28202129E+01
  4.39043701E+00  1.16263619E+01  2.71627981E+00  7.72218397E-01  2.12031498E-01
  8.00000000E-01  3.04752488E+03  4.57369518E+02  1.03948685E+02  2.92101553E+01
  9.28666296E+00  3.16392696E+00  7.86827235E+00  1.88128854E+00  5.44249258E-01
  1.68714478E-01  8.00000000E-01  1.87311370E+01  2.82539436E+00  6.40121692E-01
  1.61277759E-01  1.87311370E+01  2.82539436E+00  6.40121692E-01  1.61277759E-01
  1.87311370E+01  2.82539436E+00  6.40121692E-01  1.61277759E-01  1.87311370E+01
  2.82539436E+00  6.40121692E-01  1.61277759E-01  1.87311370E+01  2.82539436E+00
  6.40121692E-01  1.61277759E-01
Contraction coefficients                   R   N=          42
  1.83477216E-03  1.39946270E-02  6.85865518E-02  2.32240873E-01  4.69069948E-01
  3.60455199E-01 -1.14961182E-01 -1.69117479E-01  1.14585195E+00  1.00000000E+00
  1.00000000E+00  1.83473713E-03  1.40373228E-02  6.88426223E-02  2.32184443E-01
  4.67941348E-01  3.62311985E-01 -1.19332420E-01 -1.60854152E-01  1.14345644E+00
  1.00000000E+00  1.00000000E+00  3.34946043E-02  2.34726953E-01  8.13757326E-01
  1.00000000E+00  3.34946043E-02  2.34726953E-01  8.13757326E-01  1.00000000E+00
  3.34946043E-02  2.34726953E-01  8.13757326E-01  1.00000000E+00  3.34946043E-02
  2.34726953E-01  8.13757326E-01  1.00000000E+00  3.34946043E-02  2.34726953E-01
  8.13757326E-01  1.00000000E+00
P(S=P) Contraction coefficients            R   N=          42
  0.00000000E+00  0.00000000E+00  0.00000000E+00  0.00000000E+00  0.00000000E+00
  0.00000000E+00  6.75797439E-02  3.23907296E-01  7.40895140E-01  1.00000000E+00
  0.00000000E+00  0.00000000E+00  0.00000000E+00  0.00000000E+00  0.00000000E+00
  0.00000000E+00  0.00000000E+00  6.89990666E-02  3.16423961E-01  7.44308291E-01
  1.00000000E+00  0.00000000E+00  0.00000000E+00  0.00000000E+00  0.00000000E+00
  0.00000000E+00  0.00000000E+00  0.00000000E+00  0.00000000E+00  0.00000000E+00
  0.00000000E+00  0.00000000E+00  0.00000000E+00  0.00000000E+00  0.00000000E+00
  0.00000000E+00  0.00000000E+00  0.00000000E+00  0.00000000E+00  0.00000000E+00
  0.00000000E+00  0.00000000E+00
Coordinates of each shell                  R   N=          54
  1.41936899E+00 -6.12229049E-07 -2.37753415E-01  1.41936899E+00 -6.12229049E-07
 -2.37753415E-01  1.41936899E+00 -6.12229049E-07 -2.37753415E-01  1.41936899E+00
 -6.12229049E-07 -2.37753415E-01 -1.33482136E+00 -4.91925287E-07  3.32034547E-02
 -1.33482136E+00 -4.91925287E-07  3.32034547E-02 -1.33482136E+00 -4.91925287E-07
  3.32034547E-02 -1.33482136E+00 -4.91925287E-07  3.32034547E-02 -2.03841972E+00
 -6.84502439E-05  1.99009394E+00 -2.03841972E+00 -6.84502439E-05  1.99009394E+00
 -2.09893814E+00 -1.66482002E+00 -9.18799923E-01 -2.09893814E+00 -1.66482002E+00
 -9.18799923E-01 -2.09892251E+00  1.66489566E+00 -9.18676838E-01 -2.09892251E+00
  1.66489566E+00 -9.18676838E-01  2.15481435E+00 -1.53559458E+00  6.56218053E-01
  2.15481435E+00 -1.53559458E+00  6.56218053E-01  2.15481125E+00  1.53559463E+00
  6.56217949E-01  2.15481125E+00  1.53559463E+00  6.56217949E-01
Constraint Structure                       R   N=          21
  1.38253373E+00  2.18893249E-05 -2.48669445E-01 -1.30688448E+00 -1.35308431E-16
  3.00295645E-02 -1.84379526E+00 -4.70209933E-04  2.02638977E+00 -2.12953644E+00
 -1.67163666E+00 -8.64958947E-01 -2.12951504E+00  1.67206992E+00 -8.64470283E-01
  2.13320148E+00 -1.53927926E+00  6.31573941E-01  2.13321604E+00  1.53917278E+00
  6.31974252E-01
Num ILSW                                   I              100
ILSW                                       I   N=         100
           0           1           0           0           2           0
           0           0           0           0           0  2684354560
           0           0           0           0           0           0
           0           0           0           0           1           0
           1           0           0           0           0           0
           0           0      100000           0          -1           0
           0           0           0           0           0           0
           0           0           0           1           0           0
           0           0           1           0           0           0
           0           0           4          40           0           0
           0           0           0           0           0           0
           0           0           0           0           0           0
           0           0           0           0           0           0
           0           0           0           0           0           0
           0           0           0           0           0           0
           0           0           0           0           0           0
           0           0           0           0
Num RLSW                                   I               40
RLSW                                       R   N=          40
  1.00000000E+00  1.00000000E+00  1.00000000E+00  1.00000000E+00  1.00000000E+00
  0.00000000E+00  0.00000000E+00  1.00000000E+00  0.00000000E+00  0.00000000E+00
  0.00000000E+00  0.00000000E+00  1.00000000E+00  0.00000000E+00  0.00000000E+00
  0.00000000E+00  0.00000000E+00  1.00000000E+00  0.00000000E+00  0.00000000E+00
  0.00000000E+00  0.00000000E+00  1.00000000E+00  0.00000000E+00  0.00000000E+00
  0.00000000E+00  0.00000000E+00  1.00000000E+00  0.00000000E+00  0.00000000E+00
  0.00000000E+00  0.00000000E+00  0.00000000E+00  0.00000000E+00  0.00000000E+00
  0.00000000E+00  0.00000000E+00  0.00000000E+00  1.00000000E+00  1.00000000E+00
MxBond                                     I                4
NBond                                      I   N=           7
           3           4           1           1           1           1
           1
IBond                                      I   N=          28
           2           6           7           0           1           3
           4           5           2           0           0           0
           2           0           0           0           2           0
           0           0           1           0           0           0
           1           0           0           0
RBond                                      R   N=          28
  1.00000000E+00  1.00000000E+00  1.00000000E+00  0.00000000E+00  1.00000000E+00
  1.00000000E+00  1.00000000E+00  1.00000000E+00  1.00000000E+00  0.00000000E+00
  0.00000000E+00  0.00000000E+00  1.00000000E+00  0.00000000E+00  0.00000000E+00
  0.00000000E+00  1.00000000E+00  0.00000000E+00  0.00000000E+00  0.00000000E+00
  1.00000000E+00  0.00000000E+00  0.00000000E+00  0.00000000E+00  1.00000000E+00
  0.00000000E+00  0.00000000E+00  0.00000000E+00
Virial Ratio                               R      2.002235906417893E+00
SCF Energy                                 R     -9.520909958745844E+01
MP2 Energy                                 R     -9.550653025169225E+01
Total Energy                               R     -9.550653025169225E+01
Post-SCF wavefunction norm                 R      1.045454325400846E+00
RMS Force                                  R      1.690585571360224E-04
RMS Density                                R      2.465650265312640E-09
External E-field                           R   N=          35
  0.00000000E+00  0.00000000E+00  0.00000000E+00  0.00000000E+00  0.00000000E+00
  0.00000000E+00  0.00000000E+00  0.00000000E+00  0.00000000E+00  0.00000000E+00
  0.00000000E+00  0.00000000E+00  0.00000000E+00  0.00000000E+00  0.00000000E+00
  0.00000000E+00  0.00000000E+00  0.00000000E+00  0.00000000E+00  0.00000000E+00
  0.00000000E+00  0.00000000E+00  0.00000000E+00  0.00000000E+00  0.00000000E+00
  0.00000000E+00  0.00000000E+00  0.00000000E+00  0.00000000E+00  0.00000000E+00
  0.00000000E+00  0.00000000E+00  0.00000000E+00  0.00000000E+00  0.00000000E+00
IOpCl                                      I                0
IROHF                                      I                0
Alpha Orbital Energies                     R   N=          40
 -1.55410556E+01 -1.12418806E+01 -1.16552333E+00 -8.92527179E-01 -6.57755930E-01
 -6.00581621E-01 -5.51511504E-01 -5.14640508E-01 -3.87520271E-01  2.25781124E-01
  2.85339671E-01  3.05832475E-01  3.28914544E-01  3.34125304E-01  4.16283397E-01
  7.67586155E-01  7.76049501E-01  7.93108333E-01  9.70016668E-01  9.96406545E-01
  1.05428213E+00  1.13281642E+00  1.18861100E+00  1.20505672E+00  1.22107155E+00
  1.24462304E+00  1.28304588E+00  1.63296881E+00  1.80257013E+00  1.83077958E+00
  2.19103948E+00  2.35933485E+00  2.38435565E+00  2.49972568E+00  2.65230690E+00
  2.69984510E+00  2.79680076E+00  3.01247833E+00  4.18050115E+00  4.66919749E+00
Alpha MO coefficients                      R   N=        1600
  9.95034430E-01  2.48067105E-02 -4.15623767E-04 -1.44780063E-09  1.46538868E-03
 -2.38248253E-03  5.46454931E-04  5.88749153E-10 -1.04515584E-03 -3.42967458E-03
 -3.38642328E-03 -3.17383791E-03  1.43124463E-10 -2.26966672E-05 -4.09984608E-10
 -1.64774870E-05  2.09910862E-04  2.49389804E-04 -1.28623062E-09 -2.28036395E-05
  1.45623351E-03  4.73146681E-04  5.78438166E-09  2.03253544E-04 -1.99954642E-04
 -1.06243103E-04 -6.75078388E-05 -2.19300379E-10  3.11047717E-05 -2.12398053E-09
 -1.31492539E-04 -1.92341166E-04 -6.73088671E-05 -1.05592777E-04 -6.73103723E-05
 -1.05607188E-04  2.84780160E-04  5.77639726E-04  2.84780748E-04  5.77637428E-04
 -2.06617513E-04  9.66714571E-05  2.60431908E-05 -3.13615687E-11  2.69932907E-05
  2.35796209E-03 -9.42351867E-04 -1.07109698E-09 -6.22863476E-06 -6.38104301E-04
 -9.06931794E-05 -7.80520040E-05  3.43275626E-10  4.51458751E-05 -6.39984628E-10
  9.95749523E-01  2.78549164E-02  3.30255281E-04  4.56778373E-09 -2.31503759E-05
 -1.35341275E-02 -5.21536962E-05 -1.11872045E-08  1.95107928E-04 -1.78449242E-03
 -1.80775107E-03 -1.82442060E-03  6.17682029E-10 -5.36812688E-06 -2.48540854E-10
  8.98561250E-05  2.46465832E-03  1.23288095E-04  2.59304097E-03  1.23287499E-04
  2.59304374E-03 -5.90344626E-05  2.48687606E-04 -5.90323973E-05  2.48685254E-04
 -1.81978718E-01  3.77297372E-01 -3.92112066E-02  9.68424156E-08  7.06652085E-02
  3.89632705E-01 -1.59518520E-02  1.00402725E-07  4.10950503E-02  9.92187406E-03
  1.29514626E-02 -9.67194697E-06 -1.91602979E-08  4.33203573E-03  2.34352227E-08
 -9.50487237E-02  1.77119805E-01  9.29287749E-02  2.31178944E-07 -5.26193793E-03
  1.06285576E-01  2.98912443E-03 -1.05782811E-07  2.64221837E-03  2.13822898E-02
 -1.72362578E-03 -2.79624384E-03  1.07952251E-08 -1.34220251E-03 -6.55078214E-09
  4.14684622E-02  3.70012635E-03  4.27291018E-02  7.07137057E-03  4.27294078E-02
  7.07165465E-03  1.16989317E-01  4.24490227E-03  1.16989401E-01  4.24488555E-03
  7.64570774E-02 -1.58610346E-01 -1.57836060E-01  1.80593198E-07 -5.64375442E-02
 -2.23065428E-01 -6.72177422E-02  1.79519107E-07 -3.47334101E-02  1.50651511E-02
 -1.36282189E-02 -4.57338232E-03  1.75607819E-08 -1.24433733E-02  2.73411703E-08
 -1.66598085E-01  3.17457753E-01 -9.23042170E-02  6.59242422E-07 -7.56231040E-03
  3.36854712E-01 -3.48739927E-02  6.00892312E-08  9.56693254E-03 -7.16917154E-03
  1.37829241E-02  1.22987998E-02  5.68738017E-08 -1.00420044E-04  2.29535992E-08
  1.30510991E-01  3.66294685E-02  1.37367469E-01  4.41744882E-02  1.37367640E-01
  4.41745683E-02 -9.76731417E-02 -2.44241431E-02 -9.76729043E-02 -2.44241342E-02
  3.66293128E-08 -6.35730283E-08 -4.57166212E-07  4.03070473E-01 -1.68864296E-07
 -3.01659153E-07 -3.61902040E-07  2.28047392E-01 -3.42235097E-07 -1.54652184E-08
  5.59690801E-08 -4.18877003E-08  8.64026149E-03 -3.19033910E-08  3.58660707E-02
  2.83549812E-07 -5.45674557E-07  8.56381181E-07  2.29165809E-01 -3.78933390E-07
 -9.76242491E-07  5.42636551E-07  1.11906944E-01  8.40612223E-07 -5.33124439E-08
  1.40487223E-06 -1.36554547E-06  1.08666978E-03 -8.32291275E-08 -1.31055985E-02
 -4.87235550E-06 -3.92948896E-06 -1.05004846E-01 -6.09321988E-02  1.05009274E-01
  6.09360868E-02 -1.96467973E-01 -1.07139799E-01  1.96467829E-01  1.07139910E-01
  2.95279505E-02 -7.00168480E-02  2.39011398E-01  1.07514433E-06  2.22163149E-01
 -1.01079344E-01  1.34664498E-01  6.19843318E-07  1.43923867E-01 -1.77257052E-02
  7.25904984E-03  1.62659118E-02 -1.16518029E-08  6.62071357E-03  3.21740580E-08
 -5.71616786E-03  4.09039383E-03 -2.08158681E-01  2.48514157E-07  3.16642629E-01
  3.60766834E-02 -7.67453711E-02  6.96628173E-07  1.37767127E-01 -1.90668935E-02
 -5.55566395E-03  2.68815863E-02 -5.96233832E-08 -4.46122674E-03 -1.97307043E-06
  2.30028549E-01  1.85138659E-01 -3.52994443E-02 -2.86792473E-02 -3.52886919E-02
 -2.86717498E-02  9.13982072E-02  5.73398123E-02  9.13991009E-02  5.73400902E-02
 -2.27602035E-03  7.47814371E-03  3.45241609E-01  8.32555119E-07 -6.17168424E-02
 -1.33640972E-03  2.25580864E-01  4.54080014E-07 -4.11873617E-02 -1.32149478E-02
  1.62583888E-02  1.33027016E-03  1.37898592E-08  2.51230849E-02  1.39968070E-07
  6.62916488E-03 -1.79772698E-02 -3.12526371E-01 -5.06262263E-07 -2.53391480E-01
  2.14841096E-02 -1.33079852E-01 -6.50710720E-07 -1.44092393E-01 -2.36125259E-02
  2.96448830E-02 -2.22422461E-03  2.34464026E-07  1.53778292E-02  1.96553678E-06
 -9.81999313E-02 -8.23767492E-02  1.46933426E-01  1.18311277E-01  1.46921948E-01
  1.18302772E-01  7.72102129E-02  6.04693996E-02  7.72108348E-02  6.04703789E-02
  2.12752958E-07 -4.76062612E-07  1.41345991E-06 -2.44756651E-01  4.41094419E-07
 -1.18931525E-06  8.32354105E-07 -1.70131120E-01  1.85973951E-07 -2.65645889E-08
  1.57448668E-07 -7.57404420E-08 -1.96406936E-02  5.55260831E-08 -2.44121670E-02
  1.53720147E-07 -3.33111371E-07 -2.90236865E-07  3.81667565E-01 -2.25616132E-07
 -4.49068540E-07  9.90672146E-08  2.12026848E-01 -1.57781885E-07 -2.94079213E-07
  2.80735750E-06 -2.52601671E-06 -2.90873869E-02 -1.23869100E-07 -2.60742698E-02
 -9.16047101E-06 -8.22681161E-06 -2.15523285E-01 -1.90163612E-01  2.15533552E-01
  1.90172802E-01  1.39474090E-01  1.11031807E-01 -1.39473412E-01 -1.11030903E-01
  5.52460008E-02 -1.31403965E-01 -1.20773912E-01 -2.00034810E-07  5.06236075E-01
 -2.36375084E-01 -1.23154054E-01 -4.64311276E-07  4.59811483E-01 -4.71086126E-03
 -6.24839958E-03  2.31815557E-02  4.67715501E-08 -3.78062306E-03  1.18676330E-07
 -1.06518291E-02  2.58138890E-02  6.69141696E-02 -6.86961384E-07 -1.71315293E-01
 -7.33524864E-03  1.27929128E-02 -4.45914587E-07 -8.54772040E-02  5.82559217E-03
  1.16647384E-02 -1.87458955E-02  1.17061844E-07  3.02804587E-02  1.61605143E-06
 -1.58917655E-01 -1.95948206E-01  6.68104204E-02  7.31317906E-02  6.68007007E-02
  7.31202126E-02  6.59881009E-02  5.46754890E-02  6.59883551E-02  5.46765443E-02
 -1.00831874E-01  8.76260265E-02  7.71981943E-02  3.25992768E-07  1.25879858E-01
  1.58906749E+00  2.36815573E-01 -8.04161058E-07  4.52017571E-01 -2.86612327E-02
 -2.95199073E-02 -2.92192927E-02 -1.37062173E-07  4.95921631E-03  2.92166948E-08
 -5.72593389E-02  3.82613576E-02 -1.30563066E-01  3.03135210E-06  3.04274529E-02
  1.02563681E+00 -5.74520889E-01  1.52714215E-05 -2.35022727E-02  3.13395159E-03
 -1.23177748E-02 -9.51906300E-03 -4.49794744E-08  2.04734108E-03  8.12387468E-08
  5.69479895E-03 -5.96059269E-01  5.80959728E-04 -5.55252950E-01  5.79739934E-04
 -5.55280359E-01 -2.61505039E-02 -1.00013384E+00 -2.61509364E-02 -1.00013730E+00
  7.55634847E-02 -4.33736870E-02  1.45020090E-02 -1.08884779E-07 -9.28965842E-02
 -1.31154882E+00  2.03022647E-01  6.95171922E-07 -3.03636870E-01  3.08687216E-02
  2.23253338E-02  2.07130548E-02  2.57365806E-07  4.88349409E-04  5.66464371E-09
 -1.41447411E-01  9.79307350E-02 -6.23932649E-02 -3.14736259E-06 -1.25560452E-03
  2.59616276E+00 -1.10835800E-01 -1.32235390E-05 -2.07669882E-02 -1.19953616E-02
 -3.91050174E-03 -7.39737099E-03 -2.87710932E-08 -2.64897412E-03 -1.15360065E-07
  3.29098642E-03 -1.05345066E+00  2.19813533E-04 -1.10188806E+00  2.21870423E-04
 -1.10185594E+00  2.30058376E-02  6.13580777E-01  2.30067154E-02  6.13586729E-01
  1.26030840E-06 -1.64101801E-06 -4.51566502E-06  2.59993822E-01  1.77971853E-06
 -2.13035439E-05 -1.72262320E-06  7.95877417E-01  1.76468409E-05  3.04771184E-07
 -6.72819705E-07  1.38276716E-06 -1.59142146E-02  9.96826688E-07  1.35180165E-02
 -4.11552352E-07  3.65007918E-07 -8.17367551E-07  2.20525489E-01 -2.46888061E-05
  1.25321783E-05 -3.70476982E-06  7.22053562E-01 -1.10016529E-04  3.77621203E-07
 -1.30650147E-06  1.12507525E-06  1.39399011E-02  1.02299658E-07  3.75655419E-05
  4.85558558E-06  1.66143810E-04  2.97183507E-02  9.25055552E-01 -2.97227596E-02
 -9.25240188E-01  4.60371628E-02  1.22573275E+00 -4.60359099E-02 -1.22570543E+00
 -3.12565588E-03 -3.96684970E-03 -6.08262054E-02  2.13027548E-05  4.27384555E-02
  7.59322918E-02 -9.53005675E-02  1.19120289E-04  2.95396279E-01  2.13918661E-04
 -7.54797023E-03  7.19206018E-03  3.65001078E-06  1.39823113E-02 -5.39629496E-07
  6.61503742E-03  8.09602020E-04 -3.44529129E-02 -6.56233463E-05 -3.49806484E-01
 -8.33714913E-02 -2.28060719E-01 -3.36950272E-04 -1.50465936E+00  5.86605140E-03
 -1.10211948E-02  7.49025381E-03 -6.28083486E-07 -1.93052854E-03 -4.51736270E-06
  4.00355511E-02  1.86224056E+00 -2.19680887E-02 -9.78551287E-01 -2.19412135E-02
 -9.77731204E-01  1.25303711E-02  3.77113775E-02  1.25326292E-02  3.75449829E-02
  7.85286323E-07 -1.90022549E-06 -1.35082176E-05 -2.04190193E-01  6.53091363E-06
 -1.24781256E-05 -1.59219998E-05 -8.79391423E-01  5.51145493E-05  4.38946942E-07
 -2.08232712E-06  2.68627298E-06 -1.13403726E-02  3.17029209E-06 -6.27862663E-03
  5.79960210E-07  2.07534477E-07 -6.10043866E-06  2.40535668E-01 -7.42669698E-05
  2.65322225E-06 -3.67752636E-05  1.38697292E+00 -3.09819486E-04  1.20919427E-06
 -3.21561937E-06  2.52684361E-06 -2.98293438E-03 -5.05282462E-07  1.63356567E-02
  9.06458048E-06  4.40773835E-04  4.82335622E-02  1.37491691E+00 -4.82429997E-02
 -1.37539458E+00 -6.16632425E-03 -8.84424122E-01  6.17050964E-03  8.84468617E-01
  4.81681786E-02 -4.31942005E-02  3.32870198E-01 -9.51674525E-07  6.56051957E-02
 -9.83092136E-01  1.44711405E+00 -2.10496579E-06  1.80951785E-01 -3.76602361E-03
  7.12973082E-04  1.81729408E-02  1.80981438E-07  1.44052238E-02 -2.24307772E-07
 -5.97953780E-02  2.99639263E-02  1.98069697E-01 -2.23764880E-06 -3.96651226E-02
  1.14426877E+00  1.86801873E+00 -4.56812352E-06 -4.22942139E-01 -2.28165192E-02
  1.62205224E-02  1.82264239E-02 -8.55248516E-08  1.07197986E-02 -1.55888383E-07
  5.17008142E-02  5.46982304E-01  6.83797243E-02  6.49993390E-02  6.83803672E-02
  6.50267074E-02 -2.17991657E-02 -6.31200153E-01 -2.17992295E-02 -6.31189748E-01
  3.67694695E-07 -1.96470855E-06 -3.08849450E-06  1.86652429E-02  6.87951272E-08
 -1.94302675E-06  7.70770313E-06 -1.93659518E-02  6.44576630E-07  2.48281152E-07
 -2.05466486E-06  7.12099115E-07 -4.47437366E-02  1.60694878E-07 -2.44028515E-02
 -1.63678701E-07  2.66326236E-06  3.96942688E-06 -6.71755245E-01  3.12872554E-06
  2.75542958E-06  1.49238518E-06  1.38951976E+00 -3.67038411E-06  1.17310191E-06
 -9.93587233E-06  9.91983309E-06  6.94125345E-02  6.66499031E-07  9.37164618E-02
  1.95373895E-05  3.35374951E-06  4.58071762E-01  1.10855790E-01 -4.58092312E-01
 -1.10859987E-01  2.20605955E-01  5.51119128E-02 -2.20607550E-01 -5.51097816E-02
 -2.55451974E-02  1.25097484E-01 -6.76017120E-03 -8.00637025E-07  5.78281401E-02
 -5.33508716E-01 -3.53270187E-01  5.89979284E-07 -1.12204706E-01 -1.57912250E-01
  8.37725627E-02  5.65824000E-02 -5.67601307E-07  1.82191768E-02 -1.86214427E-07
  2.30947233E-02 -3.42834632E-01 -9.41274231E-01 -4.80123097E-07  7.68477131E-02
  1.68902453E-01  1.14453766E+00  5.93863610E-06 -1.13924134E-01 -3.18010864E-02
 -2.37732865E-02 -2.05128650E-04  5.97151535E-07 -1.54140256E-02 -7.27136820E-07
  1.91953431E-01  1.56774016E-02  7.55414191E-02  4.98156312E-02  7.55389744E-02
  4.98116429E-02  1.67052075E-01 -9.45924258E-02  1.67049464E-01 -9.45929011E-02
 -1.86924330E-02  1.08190021E-01  1.03105743E-01  8.26497930E-06 -2.01351941E-01
  3.70753779E-02 -1.80062604E-01 -6.70001732E-06 -1.43277742E-01  1.32849472E-02
  2.93763298E-02  1.57110081E-02  1.42305453E-07 -1.96922192E-02  1.62567257E-06
  1.89401804E-03 -5.76467315E-02 -1.53188753E-01 -5.22263069E-06 -6.83261641E-01
 -3.00972504E-02  1.02396946E-01  1.02494804E-05  1.58460967E+00 -1.85241606E-02
  8.80084823E-02 -9.67960933E-02  1.02479279E-06  4.19539585E-02  1.20224979E-05
 -5.12721014E-01 -2.93694328E-01  2.59881767E-01  1.39288505E-01  2.59846123E-01
  1.39268724E-01 -7.11068477E-02 -1.65290655E-02 -7.11034871E-02 -1.65435881E-02
 -3.36411625E-08 -5.45724761E-06 -1.49193534E-05  3.24290854E-01  2.10635710E-05
 -2.00672325E-06  2.85101024E-05 -1.22479686E+00 -1.91488645E-05 -3.01364848E-06
 -3.82874049E-06  4.94494330E-07  1.11073636E-01  6.01899784E-07  1.36252391E-01
  2.55904506E-07 -6.25116506E-06 -5.33530796E-06 -5.36360264E-01 -6.37381286E-06
  2.69188694E-05  1.66491606E-05  1.41931372E+00  1.94829098E-06  3.10974973E-06
 -4.32191792E-06  2.00026614E-06 -9.85764230E-02 -9.89387359E-07  4.11267388E-02
  2.42277610E-06  2.48014998E-05 -1.15286625E-01  6.83885604E-01  1.15280659E-01
 -6.83912869E-01 -6.02465130E-01  1.92530099E-01  6.02458814E-01 -1.92533769E-01
 -1.51156713E-02  2.20690365E-02 -5.73802690E-01 -6.83986972E-06  7.31532216E-01
 -2.67315217E-01  1.09357718E+00  3.10278963E-05 -7.31687111E-01 -5.98381005E-02
 -6.41930753E-02  1.71924662E-02 -2.61136324E-06 -5.42005697E-02 -3.33689682E-06
  2.58625624E-02 -1.53675729E-01 -2.12611744E-01  1.56940468E-05 -9.91236778E-02
  7.39428104E-01  5.86816859E-01 -4.26565619E-05  3.49949823E-01  1.55852594E-01
 -2.27614588E-02 -7.33035774E-02  2.52380113E-06  2.97958466E-02  1.95083107E-06
 -1.08110346E-01 -2.30419052E-02  4.84646560E-02  4.06049977E-02  4.84534604E-02
  4.06454047E-02 -2.56663440E-01 -1.15216217E-02 -2.56693491E-01 -1.15125900E-02
  3.11141872E-02 -3.95342763E-01  4.25633374E-01  7.22352546E-06  5.45919252E-01
  6.90715782E-01 -1.04711770E+00 -4.16097337E-06 -1.04956308E+00 -6.02247646E-02
  1.60197401E-02 -1.36493153E-01 -2.80484666E-06  3.34710101E-02  2.51952144E-07
 -4.07538948E-02  2.80038963E-02  2.37358149E-01  1.17744848E-05 -4.66343755E-01
 -2.25968689E-01 -7.59197702E-01 -1.37425739E-05  1.18547858E+00 -1.25647839E-01
  2.72813325E-02  1.64849317E-02  2.79766586E-06 -4.71788790E-02  1.51070781E-06
  9.57755807E-02 -8.82691756E-01 -1.87899480E-01  2.12188065E-01 -1.87905306E-01
  2.12170940E-01  3.95536728E-01  8.10494266E-02  3.95526544E-01  8.10593155E-02
 -1.94480821E-02 -3.03882775E-01  3.94147217E-01 -9.91729255E-06  1.75764987E-01
  7.29005841E-01 -6.91747030E-01  1.18245951E-05 -9.38589622E-02 -1.10648246E-01
 -7.56922015E-02 -1.11430877E-02  3.06452305E-06 -1.08036992E-01 -1.06482735E-06
 -5.41707895E-02 -1.10162014E-01 -4.62508487E-02 -1.94661562E-05  7.23531634E-01
  1.31787359E-01 -5.08238608E-01  2.96689883E-05 -1.01719845E+00 -5.67350358E-02
  8.55958980E-02 -1.20399945E-01 -3.07206075E-06  1.46924853E-01  9.32642164E-06
 -8.78241835E-01  1.18528948E+00  3.06860647E-02 -6.98962330E-01  3.06740501E-02
 -6.98941915E-01 -1.11979579E-01  1.41320127E-01 -1.11976370E-01  1.41306038E-01
  1.51359834E-07  7.41273705E-06  2.97084819E-06  9.83055275E-02  8.71048564E-08
 -1.62288185E-05 -2.17511282E-06 -5.20150650E-01  3.15066984E-06  1.75481203E-06
  1.46429094E-06  1.34646400E-06 -2.90891369E-02 -2.60895487E-06  1.15256633E-01
  3.33275864E-07  3.13240877E-06  4.38652427E-06  7.95825702E-01  2.55264162E-05
 -7.24280233E-06 -2.99766132E-06 -8.79115695E-01 -4.61698920E-05  8.07548066E-07
 -1.55502609E-05  1.54547302E-05  9.55615767E-02  4.84068987E-06  2.07982942E-01
  1.21680061E-05 -9.88427107E-08  6.66722510E-01 -1.17355039E+00 -6.66728148E-01
  1.17355334E+00 -2.90221313E-01 -4.30135358E-02  2.90218312E-01  4.30240103E-02
  1.70392893E-02 -3.84571897E-01 -3.60230972E-01 -6.62054626E-06 -1.17951165E-01
  5.83620885E-01  3.64134706E-01  1.03573098E-05 -3.32174322E-02 -1.33003283E-01
  4.51092253E-02 -1.11934878E-01  1.32678975E-06 -3.15222133E-03  2.34439038E-07
  3.80804529E-02 -8.41584929E-01  3.91949508E-01 -7.80787041E-06  2.56068927E-01
  1.76231284E+00 -3.17572987E-01  8.15287239E-06 -2.06241799E-01 -9.56742275E-02
  7.54994997E-02 -9.64973246E-02 -2.45442942E-07  1.88524520E-02  8.75294859E-06
  9.47881594E-02 -1.68980300E-01  5.97051462E-01 -8.69600457E-01  5.97040515E-01
 -8.69588977E-01  4.23471042E-01 -4.39866220E-01  4.23473163E-01 -4.39878343E-01
 -2.16092748E-07  5.51533650E-06  7.30600179E-06 -1.04534575E+00  5.57767538E-06
 -1.02583206E-05 -1.15001350E-05  1.44640913E+00 -1.22626034E-05  1.20203955E-06
  2.22984823E-07  1.33545419E-06  1.03368019E-01 -3.00482535E-07  7.93235452E-02
 -3.40926023E-08 -8.97572076E-06  2.79845214E-06 -9.80244884E-02 -1.85428140E-05
  1.76568563E-05 -7.49982038E-06  9.28286022E-02  4.24367102E-05 -1.73071595E-06
 -3.66309721E-06  3.20634378E-06 -4.00320434E-02 -2.43271315E-07  1.55112495E-02
  1.40439696E-05 -4.42711582E-05  4.38452484E-02  8.72828352E-02 -4.38522023E-02
 -8.72626952E-02 -4.16765286E-01  1.18220734E+00  4.16755587E-01 -1.18218894E+00
 -2.28673104E-02  5.51283875E-01  4.44873844E-01  1.29121496E-05  2.57757262E-01
 -1.22706346E+00 -5.33326590E-01 -1.91319518E-05 -2.34839724E-01  8.77343214E-02