methanol Gaussian Optimization on bme-nova.bme.utexas.edu               
SP        RMP2-FC                                                     6-311G(d,p)         
Number of atoms                            I                6
Info1-9                                    I   N=           9
          17          17           0           0           0         110
           1           2           1
Charge                                     I                0
Multiplicity                               I                1
Number of electrons                        I               18
Number of alpha electrons                  I                9
Number of beta electrons                   I                9
Number of basis functions                  I               60
Number of independent functions            I               60
Number of point charges in /Mol/           I                0
Number of translation vectors              I                0
Atomic numbers                             I   N=           6
           8           6           1           1           1           1
Nuclear charges                            R   N=           6
  8.00000000E+00  6.00000000E+00  1.00000000E+00  1.00000000E+00  1.00000000E+00
  1.00000000E+00
Current cartesian coordinates              R   N=          18
  1.41893299E+00  2.31880735E-01  1.02560632E-17 -1.25957806E+00 -3.67910781E-02
  1.02560632E-17 -1.95013879E+00 -1.02619121E+00  1.68583413E+00 -1.95013501E+00
 -1.02621956E+00 -1.68581901E+00 -2.03062222E+00  1.87309843E+00 -1.51178091E-05
  2.13689664E+00 -1.45498330E+00  1.02560632E-17
Force Field                                I                0
Int Atom Types                             I   N=           6
           0           0           0           0           0           0
MM charges                                 R   N=           6
  0.00000000E+00  0.00000000E+00  0.00000000E+00  0.00000000E+00  0.00000000E+00
  0.00000000E+00
Integer atomic weights                     I   N=           6
          16          12           1           1           1           1
Real atomic weights                        R   N=           6
  1.59949146E+01  1.20000000E+01  1.00782504E+00  1.00782504E+00  1.00782504E+00
  1.00782504E+00
Atom fragment info                         I   N=           6
           0           0           0           0           0           0
Atom residue num                           I   N=           6
           0           0           0           0           0           0
Nuclear spins                              I   N=           6
           0           0           1           1           1           1
Nuclear ZEff                               R   N=           6
 -5.60000000E+00 -3.60000000E+00 -1.00000000E+00 -1.00000000E+00 -1.00000000E+00
 -1.00000000E+00
Nuclear QMom                               R   N=           6
  0.00000000E+00  0.00000000E+00  0.00000000E+00  0.00000000E+00  0.00000000E+00
  0.00000000E+00
Nuclear GFac                               R   N=           6
  0.00000000E+00  0.00000000E+00  2.79284600E+00  2.79284600E+00  2.79284600E+00
  2.79284600E+00
MicOpt                                     I   N=           6
          -1          -1          -1          -1          -1          -1
Number of contracted shells                I               26
Number of primitive shells                 I               48
Pure/Cartesian d shells                    I                0
Pure/Cartesian f shells                    I                0
Highest angular momentum                   I                2
Largest degree of contraction              I                6
Shell types                                I   N=          26
           0          -1          -1          -1          -2           0
          -1          -1          -1          -2           0           0
           0           1           0           0           0           1
           0           0           0           1           0           0
           0           1
Number of primitives per shell             I   N=          26
           6           3           1           1           1           6
           3           1           1           1           3           1
           1           1           3           1           1           1
           3           1           1           1           3           1
           1           1
Shell to atom map                          I   N=          26
           1           1           1           1           1           2
           2           2           2           2           3           3
           3           3           4           4           4           4
           5           5           5           5           6           6
           6           6
Primitive exponents                        R   N=          48
  8.58850000E+03  1.29723000E+03  2.99296000E+02  8.73771000E+01  2.56789000E+01
  3.74004000E+00  4.21175000E+01  9.62837000E+00  2.85332000E+00  9.05661000E-01
  2.55611000E-01  1.29200000E+00  4.56324000E+03  6.82024000E+02  1.54973000E+02
  4.44553000E+01  1.30290000E+01  1.82773000E+00  2.09642000E+01  4.80331000E+00
  1.45933000E+00  4.83456000E-01  1.45585000E-01  6.26000000E-01  3.38650000E+01
  5.09479000E+00  1.15879000E+00  3.25840000E-01  1.02741000E-01  7.50000000E-01
  3.38650000E+01  5.09479000E+00  1.15879000E+00  3.25840000E-01  1.02741000E-01
  7.50000000E-01  3.38650000E+01  5.09479000E+00  1.15879000E+00  3.25840000E-01
  1.02741000E-01  7.50000000E-01  3.38650000E+01  5.09479000E+00  1.15879000E+00
  3.25840000E-01  1.02741000E-01  7.50000000E-01
Contraction coefficients                   R   N=          48
  1.89515008E-03  1.43859006E-02  7.07320031E-02  2.40001011E-01  5.94797026E-01
  2.80802012E-01  1.13889012E-01  9.20811101E-01 -3.27447036E-03  1.00000000E+00
  1.00000000E+00  1.00000000E+00  1.96665025E-03  1.52306019E-02  7.61269097E-02
  2.60801033E-01  6.16462078E-01  2.21006028E-01  1.14660081E-01  9.19999648E-01
 -3.03068213E-03  1.00000000E+00  1.00000000E+00  1.00000000E+00  2.54938145E-02
  1.90373109E-01  8.52161486E-01  1.00000000E+00  1.00000000E+00  1.00000000E+00
  2.54938145E-02  1.90373109E-01  8.52161486E-01  1.00000000E+00  1.00000000E+00
  1.00000000E+00  2.54938145E-02  1.90373109E-01  8.52161486E-01  1.00000000E+00
  1.00000000E+00  1.00000000E+00  2.54938145E-02  1.90373109E-01  8.52161486E-01
  1.00000000E+00  1.00000000E+00  1.00000000E+00
P(S=P) Contraction coefficients            R   N=          48
  0.00000000E+00  0.00000000E+00  0.00000000E+00  0.00000000E+00  0.00000000E+00
  0.00000000E+00  3.65113974E-02  2.37152983E-01  8.19701941E-01  1.00000000E+00
  1.00000000E+00  0.00000000E+00  0.00000000E+00  0.00000000E+00  0.00000000E+00
  0.00000000E+00  0.00000000E+00  0.00000000E+00  4.02486927E-02  2.37593957E-01
  8.15853851E-01  1.00000000E+00  1.00000000E+00  0.00000000E+00  0.00000000E+00
  0.00000000E+00  0.00000000E+00  0.00000000E+00  0.00000000E+00  0.00000000E+00
  0.00000000E+00  0.00000000E+00  0.00000000E+00  0.00000000E+00  0.00000000E+00
  0.00000000E+00  0.00000000E+00  0.00000000E+00  0.00000000E+00  0.00000000E+00
  0.00000000E+00  0.00000000E+00  0.00000000E+00  0.00000000E+00  0.00000000E+00
  0.00000000E+00  0.00000000E+00  0.00000000E+00
Coordinates of each shell                  R   N=          78
  1.41893328E+00  2.31880065E-01  0.00000000E+00  1.41893328E+00  2.31880065E-01
  0.00000000E+00  1.41893328E+00  2.31880065E-01  0.00000000E+00  1.41893328E+00
  2.31880065E-01  0.00000000E+00  1.41893328E+00  2.31880065E-01  0.00000000E+00
 -1.25957786E+00 -3.67908796E-02  0.00000000E+00 -1.25957786E+00 -3.67908796E-02
  0.00000000E+00 -1.25957786E+00 -3.67908796E-02  0.00000000E+00 -1.25957786E+00
 -3.67908796E-02  0.00000000E+00 -1.25957786E+00 -3.67908796E-02  0.00000000E+00
 -1.95013891E+00 -1.02619079E+00  1.68583413E+00 -1.95013891E+00 -1.02619079E+00
  1.68583413E+00 -1.95013891E+00 -1.02619079E+00  1.68583413E+00 -1.95013891E+00
 -1.02619079E+00  1.68583413E+00 -1.95013513E+00 -1.02621913E+00 -1.68581901E+00
 -1.95013513E+00 -1.02621913E+00 -1.68581901E+00 -1.95013513E+00 -1.02621913E+00
 -1.68581901E+00 -1.95013513E+00 -1.02621913E+00 -1.68581901E+00 -2.03062141E+00
  1.87309888E+00 -1.51178091E-05 -2.03062141E+00  1.87309888E+00 -1.51178091E-05
 -2.03062141E+00  1.87309888E+00 -1.51178091E-05 -2.03062141E+00  1.87309888E+00
 -1.51178091E-05  2.13689638E+00 -1.45498420E+00  0.00000000E+00  2.13689638E+00
 -1.45498420E+00  0.00000000E+00  2.13689638E+00 -1.45498420E+00  0.00000000E+00
  2.13689638E+00 -1.45498420E+00  0.00000000E+00
Constraint Structure                       R   N=          18
  1.41893328E+00  2.31880065E-01  0.00000000E+00 -1.25957786E+00 -3.67908796E-02
  0.00000000E+00 -1.95013891E+00 -1.02619079E+00  1.68583413E+00 -1.95013513E+00
 -1.02621913E+00 -1.68581901E+00 -2.03062141E+00  1.87309888E+00 -1.51178091E-05
  2.13689638E+00 -1.45498420E+00  0.00000000E+00
Num ILSW                                   I              100
ILSW                                       I   N=         100
           0           0           0           0           2           0
           0           0           0           0           0 13421772800
           0           0           0           0           0           0
           0           0           0           0           0           0
           1           0           0           0           0           0
           0           0      100000           0          -1           0
           0           0           0           0           0           0
           0           0           0           1           0           0
           0           0           1           0           0           0
           0           0           4          40           0           0
           0           0           0           0           0           0
           0           0           0           0           0           0
           0           0           0           0           0           0
           0           0           0           0           0           0
           0           0           0           0           0           0
           0           0           0           0           0           0
           0           0           0           0
Num RLSW                                   I               40
RLSW                                       R   N=          40
  1.00000000E+00  1.00000000E+00  1.00000000E+00  1.00000000E+00  1.00000000E+00
  0.00000000E+00  0.00000000E+00  1.00000000E+00  0.00000000E+00  0.00000000E+00
  0.00000000E+00  0.00000000E+00  1.00000000E+00  0.00000000E+00  0.00000000E+00
  0.00000000E+00  0.00000000E+00  1.00000000E+00  0.00000000E+00  0.00000000E+00
  0.00000000E+00  0.00000000E+00  1.00000000E+00  0.00000000E+00  0.00000000E+00
  0.00000000E+00  0.00000000E+00  1.00000000E+00  0.00000000E+00  0.00000000E+00
  0.00000000E+00  0.00000000E+00  0.00000000E+00  0.00000000E+00  0.00000000E+00
  0.00000000E+00  0.00000000E+00  0.00000000E+00  1.00000000E+00  1.00000000E+00
MxBond                                     I                4
NBond                                      I   N=           6
           2           4           1           1           1           1
IBond                                      I   N=          24
           2           6           0           0           1           3
           4           5           2           0           0           0
           2           0           0           0           2           0
           0           0           1           0           0           0
RBond                                      R   N=          24
  1.00000000E+00  1.00000000E+00  0.00000000E+00  0.00000000E+00  1.00000000E+00
  1.00000000E+00  1.00000000E+00  1.00000000E+00  1.00000000E+00  0.00000000E+00
  0.00000000E+00  0.00000000E+00  1.00000000E+00  0.00000000E+00  0.00000000E+00
  0.00000000E+00  1.00000000E+00  0.00000000E+00  0.00000000E+00  0.00000000E+00
  1.00000000E+00  0.00000000E+00  0.00000000E+00  0.00000000E+00
Virial Ratio                               R      2.000892585542482E+00
SCF Energy                                 R     -1.150741509725645E+02
MP2 Energy                                 R     -1.154361913157328E+02
Total Energy                               R     -1.154361913157328E+02
Post-SCF wavefunction norm                 R      1.048690316627757E+00
RMS Density                                R      3.448408071438780E-09
External E-field                           R   N=          35
  0.00000000E+00  0.00000000E+00  0.00000000E+00  0.00000000E+00  0.00000000E+00
  0.00000000E+00  0.00000000E+00  0.00000000E+00  0.00000000E+00  0.00000000E+00
  0.00000000E+00  0.00000000E+00  0.00000000E+00  0.00000000E+00  0.00000000E+00
  0.00000000E+00  0.00000000E+00  0.00000000E+00  0.00000000E+00  0.00000000E+00
  0.00000000E+00  0.00000000E+00  0.00000000E+00  0.00000000E+00  0.00000000E+00
  0.00000000E+00  0.00000000E+00  0.00000000E+00  0.00000000E+00  0.00000000E+00
  0.00000000E+00  0.00000000E+00  0.00000000E+00  0.00000000E+00  0.00000000E+00
IOpCl                                      I                0
IROHF                                      I                0
Alpha Orbital Energies                     R   N=          60
 -2.05459312E+01 -1.12708735E+01 -1.34779467E+00 -9.21260180E-01 -6.83251114E-01
 -6.15332612E-01 -5.86129292E-01 -4.99961826E-01 -4.46750644E-01  1.53234363E-01
  1.87427774E-01  2.25220282E-01  2.31219766E-01  3.41157151E-01  4.54160860E-01
  4.78670688E-01  5.78309176E-01  6.79055154E-01  7.25559198E-01  7.84260046E-01
  7.96745388E-01  8.99700160E-01  1.02369878E+00  1.05237515E+00  1.11347179E+00
  1.31434670E+00  1.38781615E+00  1.59785168E+00  1.61924262E+00  1.71164036E+00
  1.71730167E+00  1.73677528E+00  1.74053831E+00  1.86915798E+00  1.93725532E+00
  2.03930046E+00  2.25395538E+00  2.29055505E+00  2.39328039E+00  2.46947096E+00
  2.61230388E+00  2.64750215E+00  2.70828123E+00  2.79823471E+00  2.81840772E+00
  2.90204837E+00  3.09666154E+00  3.29813187E+00  3.46748708E+00  3.58978788E+00
  3.67159343E+00  4.06184959E+00  4.15831016E+00  4.29757529E+00  4.36641701E+00
  5.40548556E+00  5.78493301E+00  6.18158934E+00  2.50137833E+01  5.15726696E+01
Alpha MO coefficients                      R   N=        3600
  5.51468971E-01  4.71678672E-01 -8.82198832E-04 -1.54141019E-03  6.73629882E-10
  5.52835741E-03  3.12081256E-04  5.95438165E-04 -3.28766495E-10 -7.77996203E-04
  1.54696848E-04 -1.20175772E-04  1.61033097E-10  1.69729781E-04  7.72194145E-11
  7.41120373E-11 -6.85739644E-05  4.38595815E-05 -2.77615173E-06 -3.05811315E-05
  2.15303567E-05  1.58202254E-05 -6.16751082E-11  8.02883940E-05  2.61992607E-04
 -2.26802710E-05  3.88906884E-10  4.95049321E-04  1.86853547E-04  1.53966697E-04
 -5.05604061E-10 -5.69061652E-05 -6.23112069E-11 -3.18394776E-11  1.27006777E-04
 -6.20419775E-06  9.54720359E-06 -4.72436967E-05 -1.74494750E-07 -2.31861359E-05
 -1.12576547E-05 -1.86855274E-05  9.54728557E-06 -4.72429626E-05 -1.74849364E-07
 -2.31863064E-05 -1.12572180E-05  1.86858222E-05  2.95117348E-05 -1.20099663E-04
 -4.55086012E-05  1.48951666E-06 -1.66294025E-05  9.63488938E-11  2.01222749E-04
  1.17917036E-04  6.10323096E-05 -8.71526084E-05  7.39559340E-05  3.17959959E-11
 -6.64544578E-05 -1.19229089E-04 -9.48414046E-05 -1.71347630E-05 -6.22217526E-12
  2.66808349E-04 -5.29505086E-04 -4.10309347E-05  5.50104440E-11  3.77337339E-04
 -1.62336134E-04 -3.61509043E-05  1.30709806E-10 -1.04380135E-04 -9.85402720E-11
 -2.51417606E-11  1.90803923E-04  6.39904529E-05  5.63475406E-01  4.66569930E-01
  9.24774291E-04 -1.47733051E-05  6.45139138E-11  3.98270770E-03 -7.27920124E-04
  1.74121970E-05 -1.01546201E-10 -1.21535489E-03  1.24370637E-04 -3.41307049E-05
  2.92166837E-11  1.11675370E-04 -3.60362750E-10 -2.39326113E-10 -2.54615990E-04
 -5.24353956E-05  3.40661765E-04  1.07942533E-04  2.40244665E-04  3.89341352E-05
 -4.45520379E-07  4.32916039E-06  3.40661878E-04  1.07942683E-04  2.40244470E-04
  3.89340156E-05 -4.45217233E-07 -4.32898648E-06  3.37393197E-04  7.82552143E-05
  2.75301590E-04  2.75994963E-05  2.55025099E-05 -4.15542581E-10 -1.48951744E-05
  8.22816210E-06 -2.34427314E-05 -1.55831179E-05  3.56271030E-05 -2.23271654E-11
 -1.09796429E-01 -1.83458281E-01 -1.86269237E-02 -2.76491426E-02 -3.80544903E-09
  5.21455376E-01 -3.47275886E-02 -4.81403649E-02 -4.42189314E-09  3.96994940E-01
 -2.86878659E-02 -1.84725454E-02  4.92109894E-10 -7.65345130E-03 -6.87100530E-10
  4.44767202E-10  1.24070063E-03 -1.23464423E-03 -3.68939767E-02 -6.03568480E-02
  3.91283558E-02  2.23183046E-03 -2.28786179E-09  1.51063061E-01  7.87142089E-02
  3.55476004E-03 -2.17120858E-08  4.58776215E-03 -4.02135110E-03 -5.02825318E-03
  2.92051515E-09 -1.41972205E-02  1.16831213E-08  2.54125198E-09  2.34007042E-02
  1.98006175E-03  1.46141045E-02  2.96660566E-02 -1.09889896E-03  3.98256538E-03
  4.12690317E-03 -6.56402005E-03  1.46141299E-02  2.96660463E-02 -1.09889715E-03
  3.98254291E-03  4.12700628E-03  6.56395267E-03  1.50342563E-02  3.15062380E-02
  1.20764635E-03  3.69314868E-03 -7.56779880E-03  6.27996050E-08  8.63009932E-02
  7.31424430E-02 -3.80975002E-04 -1.27246641E-02  2.28197432E-02  6.37980108E-10
  3.18772153E-02  5.35920016E-02 -7.95397865E-02  2.64509375E-02 -8.14644767E-09
 -1.55541048E-01 -1.27199139E-01  4.32268011E-02 -1.08941790E-08 -1.49612081E-01
 -7.07883950E-02  1.50702471E-02 -1.27147496E-08 -1.37835326E-03 -6.77847161E-10
  4.58020223E-10  1.16635432E-02  7.00971135E-03 -9.48246766E-02 -1.57645039E-01
 -3.18544983E-02  3.75253662E-03 -9.67570632E-09  4.10985222E-01 -2.96147060E-02
  6.95002965E-03 -2.02717692E-08  2.48776377E-01 -2.50499819E-02 -8.34749092E-03
  3.34830819E-08 -2.55803494E-05 -1.06881920E-08  1.71642059E-09 -2.71003578E-03
  1.55526048E-03  8.35618536E-02  1.16619442E-01  3.96510068E-03  5.05148247E-03
  1.00954218E-02 -1.65121852E-02  8.35618237E-02  1.16619403E-01  3.96512290E-03
  5.05145039E-03  1.00956900E-02  1.65120177E-02  8.70298904E-02  1.25502971E-01
  7.55043785E-03  5.57718752E-03 -1.99579839E-02  1.59135420E-07 -6.76138769E-02
 -8.18442038E-02 -1.32087209E-02  2.42702326E-03 -1.62860009E-02 -3.78717225E-09
 -2.12052835E-02 -3.61043624E-02 -9.57850643E-02  1.65327882E-01  3.75607144E-08
  1.10925965E-01 -1.51788824E-01  2.53952124E-01  5.46368981E-08  1.61405029E-01
 -9.06476577E-02  1.74208608E-01  7.12951909E-08  4.95156739E-03 -5.32763943E-09
 -1.50153542E-09  1.93006803E-02  1.79536716E-03  1.05720361E-02  1.70342120E-02
  7.24796358E-02  9.56804621E-02  4.54097351E-08 -4.02171375E-02  1.25693479E-01
  1.60286096E-01  6.73094265E-08 -5.55679951E-02  4.78702784E-02  9.55691282E-02
 -7.36896537E-08 -2.36727528E-02  3.46675556E-08 -3.30715940E-07  1.47603332E-02
  1.11151015E-02 -6.58858591E-02 -8.92186666E-02 -2.43869627E-02  5.37829813E-04
 -3.19207277E-05  8.05272720E-03 -6.58868440E-02 -8.92201060E-02 -2.43874836E-02
  5.37790711E-04 -3.21209055E-05 -8.05278915E-03  3.44628713E-02  4.14186264E-02
  1.33610368E-02  2.95096387E-03 -1.54889558E-03  5.33666797E-08 -1.33468677E-01
 -2.05615986E-01 -4.08776931E-02  1.41642241E-02 -2.48486348E-02  5.12837237E-09
 -4.96771321E-08 -8.42078941E-08  6.45779860E-07  1.17517990E-07  1.53099454E-01
  2.51089186E-07  9.97136721E-07  1.71057710E-07  2.38259554E-01  3.63363630E-07
  7.89051983E-07  1.97930319E-07  2.07698128E-01  2.30650811E-08 -1.13268250E-02
 -8.29575459E-03 -3.78641684E-08 -6.53201474E-08 -9.97762501E-09 -1.41531873E-08
 -5.32261620E-07  3.85176396E-07  1.62922981E-01  2.27031909E-08 -9.36735193E-07
  6.11855379E-07  2.64031865E-01  2.20630959E-07 -4.41952454E-07  2.47699331E-07
  1.52070072E-01  4.94629107E-07  1.04237068E-03 -2.29882489E-02  1.38550094E-07
 -3.85864544E-09  1.09652241E-01  1.64584825E-01  6.56385016E-02  4.61080804E-03
  8.58233691E-03 -7.39477000E-03 -1.09651273E-01 -1.64583593E-01 -6.56381035E-02
 -4.61081792E-03 -8.58249560E-03 -7.39451897E-03 -5.23518600E-07 -7.65831382E-07
 -2.39488206E-07 -3.81643964E-08  1.13738327E-07  8.88545541E-03  1.92860922E-07
  2.22617264E-07  1.62151829E-07  6.65216641E-08  5.53118649E-08  1.58706598E-02
 -1.39307616E-02 -2.35835744E-02  1.76773283E-01  6.31927898E-02 -7.32501237E-07
  7.12295485E-02  2.74206547E-01  9.69652939E-02 -1.13860153E-06  1.03241910E-01
  2.23740067E-01  9.00495952E-02 -1.00953472E-06  6.47821659E-03  5.07733298E-08
  3.45093587E-08 -8.47152453E-03 -1.78703044E-02  4.36956656E-04  1.59504081E-03
 -1.28986769E-01  9.97243857E-02 -5.92263826E-07 -6.87566529E-03 -2.28200300E-01
  1.61433491E-01 -9.47979153E-07  1.79754406E-02 -1.10172653E-01  1.24779616E-01
 -7.27594789E-07  6.87387497E-03 -2.23307875E-08 -3.17362301E-07 -4.22777137E-02
 -8.97935503E-03 -3.51318261E-03 -4.92401357E-03 -9.54520745E-04 -5.65429177E-03
  3.15577637E-03  2.09006554E-03 -3.51370384E-03 -4.92476035E-03 -9.54869162E-04
 -5.65431526E-03  3.15571953E-03 -2.09015666E-03  1.24175740E-01  1.71896981E-01
  6.33815148E-02 -8.01759507E-04 -1.04605745E-02  9.33123896E-08  3.18800927E-02
  4.02729053E-02  4.26619283E-02  1.63044319E-02  1.18498798E-02 -7.00499322E-08
 -2.53113121E-02 -4.30172641E-02  7.43230347E-02  1.71810414E-01  2.92148021E-07
  1.30215202E-01  1.10583029E-01  2.55377179E-01  4.46937668E-07  2.18804733E-01
  1.31721313E-01  2.40129392E-01  4.46262580E-07  1.02049939E-02 -8.75444112E-09
  3.25106955E-09  5.46536313E-03 -5.83781654E-04  4.55314465E-03  7.91428397E-03
 -3.60441566E-02 -1.38800013E-01 -2.32918157E-08 -2.45843740E-02 -6.92394773E-02
 -2.15058941E-01 -4.28028452E-09  1.62913235E-02 -9.41703009E-03 -1.14209308E-01
  2.45411763E-08  2.33201186E-02 -9.27200181E-09  4.62297558E-07 -4.69927139E-03
  2.99823384E-02  7.19254274E-02  1.21683667E-01  6.33807502E-02  1.18354395E-03
 -4.74393079E-03 -9.95820757E-03  7.19272562E-02  1.21687105E-01  6.33821539E-02
  1.18363305E-03 -4.74359506E-03  9.95843819E-03 -1.13932128E-01 -2.18247476E-01
 -7.90574310E-02 -9.56768440E-03  1.37855981E-02 -1.90755470E-07 -8.46238411E-02
 -1.59625504E-01 -3.56313561E-02  1.99118950E-02 -1.10781140E-02  1.08328945E-08
  3.06554417E-08  5.19182690E-08  7.61871444E-08 -8.71333705E-08  2.49752061E-01
 -1.43570384E-07  1.18692480E-07 -1.14181437E-07  3.74754383E-01 -3.97595356E-07
  7.48575199E-08 -3.43118439E-08  4.16045622E-01 -1.22571248E-08 -3.36529385E-03
 -1.09136348E-02 -1.13296115E-08 -1.40953502E-08 -1.00442228E-08 -1.61635290E-08
 -1.42048235E-08  2.13143406E-07 -1.03721924E-01  2.95465723E-08 -8.74037043E-09
  3.54982095E-07 -1.59215896E-01  1.50763276E-07 -7.55167425E-08  2.07656452E-07
 -7.95366524E-02 -3.30779526E-07  3.63114309E-02  1.77391874E-02 -2.31030013E-07
 -6.35425046E-08 -9.23837434E-02 -1.88156264E-01 -8.18828371E-02 -5.12075845E-03
 -8.15853827E-03  6.93249781E-03  9.23827730E-02  1.88154301E-01  8.18818369E-02
  5.12068330E-03  8.15874054E-03  6.93220148E-03  1.05512807E-06  2.03317885E-06
  9.72052603E-07  6.27106408E-08 -1.77164593E-07 -8.16461682E-03  1.03402998E-07
  3.61663614E-07  9.38771712E-08 -3.81708635E-08  3.00626395E-08  2.57086838E-02
 -1.97814579E-02 -3.29516326E-02  3.40519238E-02 -5.05731084E-02  4.71232769E-08
  8.27952134E-02  2.74443071E-02 -7.09360090E-02  4.21792229E-08  3.59512917E-01
  2.13644330E-01 -1.29293299E-01  2.57938213E-07 -4.65356033E-04  1.12653183E-08
 -1.08598083E-08 -2.20031499E-03  1.56928556E-03 -2.97835572E-02 -4.73488348E-02
 -5.88744401E-02 -2.29544818E-02 -2.58296193E-07  1.68421733E-02 -6.41134358E-02
 -1.74366537E-02 -1.51761006E-07  1.67221719E+00 -2.31114225E-01 -1.63765194E-01
 -1.92717533E-06 -4.94927041E-03 -3.20742929E-08 -7.46997743E-08  6.83563524E-03
 -5.95380842E-03 -3.52001028E-03 -1.25214513E-02 -7.83276630E-01 -6.81983355E-03
  1.67545966E-03 -3.78084007E-04 -3.52009601E-03 -1.25209818E-02 -7.83284577E-01
 -6.81978446E-03  1.67555409E-03  3.78185024E-04 -2.24033034E-03 -4.71008177E-02
 -4.32100204E-01 -9.12134611E-03  4.93277907E-03 -5.06385649E-08 -3.22430485E-02
  9.88384858E-02 -9.31094111E-01 -8.82283133E-03  1.02180232E-02  1.33584189E-08
  2.30683227E-02  3.80494723E-02  4.17823840E-03  6.38840414E-02 -9.91232971E-08
 -7.93719667E-02  2.83324256E-02  8.94018569E-02 -8.45084492E-08 -5.72039204E-01
 -3.18465763E-02  2.04789808E-01 -5.36304793E-07  4.54234029E-04 -1.82719536E-08
  1.49350221E-08  6.00657618E-03 -3.26022881E-03 -3.65574774E-02 -5.93774495E-02
 -7.55853449E-03  2.26569271E-02  4.03902539E-07  8.86523253E-02  1.87138716E-02
  1.23264337E-02  2.36795272E-07  1.28002677E+00 -1.68702094E-01  2.43336515E-01
  3.07642785E-06  5.89119213E-04  3.32311473E-08  5.71967861E-08 -5.94494204E-03
  5.21062793E-03 -1.30868537E-02  7.78002204E-02 -6.08477094E-01  8.07363813E-03
 -1.59326852E-03 -3.88491352E-03 -1.30867350E-02  7.77998368E-02 -6.08464766E-01
  8.07357071E-03 -1.59330544E-03  3.88476799E-03 -1.33600534E-02  7.23013713E-02
 -1.04885911E+00  8.82988899E-03 -6.41793535E-03  5.32623752E-08  3.92906302E-02
 -8.45054982E-02  1.19888960E+00  1.04377908E-02 -5.65948690E-04 -3.11703878E-08
 -1.98555257E-07 -3.28692910E-07 -8.61447276E-08 -4.84943059E-07 -1.52311507E-02
  7.06409533E-07 -2.43078022E-07 -5.83416342E-07 -8.75387930E-03  5.14532367E-06
  1.18808137E-08 -2.29274312E-06 -1.10270150E-01 -5.15108543E-08 -6.94218529E-03
  2.30906154E-03 -4.98366572E-08 -7.64913483E-08  1.03705349E-07  1.74314603E-07
 -3.90236817E-07  1.44315026E-06  1.42913610E-01 -4.18436917E-07 -5.13624248E-07
  8.03830334E-07  8.51196843E-02 -1.77824859E-06 -2.61732344E-06  1.14137622E-05
  1.11045898E+00 -2.94532208E-07  1.85273773E-02  2.52994274E-02 -1.41585480E-07
  1.82147738E-07 -1.36299970E-02  1.83544757E-01 -1.90557592E+00  8.78998373E-03
  1.68180391E-02 -2.43466899E-02  1.36301867E-02 -1.83546048E-01  1.90558428E+00
 -8.79009849E-03 -1.68184727E-02 -2.43465475E-02 -2.01695752E-08 -1.76880918E-07
 -3.84553702E-06 -3.45465579E-08 -3.59665385E-08  3.92271057E-03 -7.26131156E-08
  1.26832604E-06 -9.51184888E-06 -4.59536063E-08 -5.57512780E-08 -7.04284286E-03
  9.37924777E-03  1.55989513E-02  1.17972209E-02  2.77596119E-02 -2.34068512E-07
 -3.55465148E-02  2.07655568E-02  3.23629079E-02 -2.27109682E-07 -2.29093503E-01
  3.65102304E-02  1.29781532E-01 -1.28868038E-06 -7.58342265E-04 -7.74933885E-08
 -3.01339861E-08 -1.22679177E-03  6.37817646E-03 -4.06821048E-03 -6.87492593E-03
  2.43559785E-02 -1.36438459E-01  1.65390017E-06  1.47256040E-02  2.88470737E-02
 -7.89519450E-02  1.01856265E-06  6.34565367E-02  1.97166280E-01 -1.08649655E+00
  1.28149844E-05 -2.07842661E-02  2.40467738E-07 -3.24663265E-07 -1.67286520E-02
 -2.03806337E-02 -1.22868237E-02  1.04001773E-01 -1.09626557E+00  8.34323418E-03
  4.59349333E-03 -1.57211074E-02 -1.22866842E-02  1.04000620E-01 -1.09625267E+00
  8.34313888E-03  4.59362789E-03  1.57208861E-02  1.92322189E-02 -1.50995398E-01
  2.13296992E+00 -9.89269188E-03  3.25711562E-02 -2.30065218E-07  2.15872163E-03
 -4.89625539E-02  2.87957433E-01  1.44958001E-03 -3.13660454E-03  4.90294824E-09
  2.43626918E-02  3.99458572E-02  1.33941513E-01 -2.27685891E-02 -1.08882439E-08
 -6.78730370E-02  1.56585674E-01 -1.67085872E-02 -1.04395380E-08 -1.01388803E+00
  8.08724566E-01 -6.32299406E-02 -2.56628205E-08  4.27924221E-03 -4.81715649E-09
  1.44561489E-08 -7.01197700E-04 -2.39863730E-03 -1.49226285E-02 -2.46601281E-02
  9.81776182E-02  1.80794848E-02  1.00042324E-07  2.16530612E-02  9.84414678E-02
  1.75544742E-02  1.11608198E-07  6.11486314E-01  1.78151283E+00  2.99140578E-01
  4.18583757E-08  8.74199000E-03  3.39330804E-08  3.94496361E-08 -1.45267543E-02
 -6.27575275E-03  1.24591925E-02  1.95013845E-01  3.47780902E-01  6.23315118E-03
  2.01091152E-03  1.17388254E-03  1.24592792E-02  1.95013782E-01  3.47785536E-01
  6.23313190E-03  2.01085555E-03 -1.17393142E-03  1.52926900E-02  1.76795372E-01
 -1.82572110E-01  9.39147474E-04 -1.37442729E-03  4.05140180E-08 -3.03703725E-03
  8.88791618E-02 -8.97178310E-01 -7.65512625E-03  1.59760999E-02 -6.35668855E-08
  4.84672728E-03  8.82820334E-03 -2.16571135E-02 -5.22560477E-02  9.11674812E-07
 -5.15575909E-02 -4.12589520E-02 -5.64052593E-02  1.05845495E-06  1.26822496E-01
  7.31128882E-02 -5.93494396E-01  5.05956146E-06 -3.55979367E-03  7.14096491E-08
  4.03846987E-08 -5.44586075E-03 -1.24208811E-02 -1.68926464E-03 -4.05817097E-03
  1.30484868E-03  8.64133093E-03 -3.05762343E-07  4.32861860E-02  4.22334760E-03
  7.06864334E-02 -9.05666058E-07 -1.21171519E-01 -1.99949269E-01  1.87366697E+00
 -2.26845263E-05 -2.30186091E-02  6.29023257E-07 -4.01857050E-07 -9.48098997E-03
 -3.55028882E-02  2.54220781E-02  7.07588150E-01 -4.51685780E-02  2.25431878E-02
  3.16283929E-02 -2.30092888E-02  2.54215100E-02  7.07576825E-01 -4.51679946E-02
  2.25428595E-02  3.16288594E-02  2.30082683E-02 -5.10384788E-02 -1.40503030E+00
  7.89743071E-03 -4.73776216E-02  6.56270445E-02 -6.27474441E-07  2.47122945E-02
 -4.56881980E-01  4.63817849E-01  4.48043590E-02 -3.21171662E-02 -2.94253501E-07
  8.89150661E-08  1.54988864E-07 -4.19191491E-07 -4.17042720E-07 -7.40917524E-02
 -4.17608295E-07 -8.03382827E-07 -1.94491618E-07 -9.07367428E-02 -2.24046808E-06
 -1.03949905E-06 -2.28036283E-06 -3.78726189E-01 -7.93655505E-08 -8.67798042E-03
  8.07703852E-03 -5.18978404E-08 -1.59681739E-07  4.65046131E-08  7.34331248E-08
 -1.32135216E-07  3.74301576E-07  3.11114041E-02 -1.16139933E-07  9.15852633E-08
  1.41478701E-06  8.70102589E-02 -4.79635156E-07 -3.71257536E-06  2.48439898E-05
  1.80357916E+00 -4.34034407E-08 -4.55161143E-02 -1.63914828E-02  2.25173872E-07
 -5.04218122E-07 -4.91111842E-02 -1.20800749E+00 -2.47549751E-02 -2.60165380E-02
 -1.40976576E-02  5.27912156E-02  4.91116846E-02  1.20801672E+00  2.47538078E-02
  2.60165109E-02  1.40989366E-02  5.27913240E-02 -3.29831423E-07 -8.40036559E-06
 -2.76099973E-07 -1.46462936E-07  6.37693944E-07  2.57789123E-02  5.29005434E-07
  5.75235082E-06 -4.38935285E-09 -1.53126860E-07  2.09036673E-07 -6.05982230E-03