methanol Gaussian SP Calculation on bme-nova.bme.utexas.edu             
FOpt      RMP2-FC                                                     6-31G(d)            
Number of atoms                            I                6
Info1-9                                    I   N=           9
          18          17           0           0           0         100
           2           2           1
Charge                                     I                0
Multiplicity                               I                1
Number of electrons                        I               18
Number of alpha electrons                  I                9
Number of beta electrons                   I                9
Number of basis functions                  I               38
Number of independent functions            I               38
Number of point charges in /Mol/           I                0
Number of translation vectors              I                0
Atomic numbers                             I   N=           6
           8           6           1           1           1           1
Nuclear charges                            R   N=           6
  8.00000000E+00  6.00000000E+00  1.00000000E+00  1.00000000E+00  1.00000000E+00
  1.00000000E+00
Current cartesian coordinates              R   N=          18
  1.41893350E+00  2.31879904E-01  8.20912025E-08 -1.25957833E+00 -3.67907430E-02
 -8.71002093E-08 -1.95013864E+00 -1.02619172E+00  1.68583399E+00 -1.95013458E+00
 -1.02621883E+00 -1.68581930E+00 -2.03062142E+00  1.87309886E+00 -1.57347996E-05
  2.13689667E+00 -1.45498309E+00  9.11946785E-07
Force Field                                I                0
Int Atom Types                             I   N=           6
           0           0           0           0           0           0
MM charges                                 R   N=           6
  0.00000000E+00  0.00000000E+00  0.00000000E+00  0.00000000E+00  0.00000000E+00
  0.00000000E+00
Integer atomic weights                     I   N=           6
          16          12           1           1           1           1
Real atomic weights                        R   N=           6
  1.59949146E+01  1.20000000E+01  1.00782504E+00  1.00782504E+00  1.00782504E+00
  1.00782504E+00
Atom fragment info                         I   N=           6
           0           0           0           0           0           0
Atom residue num                           I   N=           6
           0           0           0           0           0           0
Nuclear spins                              I   N=           6
           0           0           1           1           1           1
Nuclear ZEff                               R   N=           6
 -5.60000000E+00 -3.60000000E+00 -1.00000000E+00 -1.00000000E+00 -1.00000000E+00
 -1.00000000E+00
Nuclear QMom                               R   N=           6
  0.00000000E+00  0.00000000E+00  0.00000000E+00  0.00000000E+00  0.00000000E+00
  0.00000000E+00
Nuclear GFac                               R   N=           6
  0.00000000E+00  0.00000000E+00  2.79284600E+00  2.79284600E+00  2.79284600E+00
  2.79284600E+00
MicOpt                                     I   N=           6
          -1          -1          -1          -1          -1          -1
Number of contracted shells                I               16
Number of primitive shells                 I               38
Pure/Cartesian d shells                    I                1
Pure/Cartesian f shells                    I                0
Highest angular momentum                   I                2
Largest degree of contraction              I                6
Shell types                                I   N=          16
           0          -1          -1           2           0          -1
          -1           2           0           0           0           0
           0           0           0           0
Number of primitives per shell             I   N=          16
           6           3           1           1           6           3
           1           1           3           1           3           1
           3           1           3           1
Shell to atom map                          I   N=          16
           1           1           1           1           2           2
           2           2           3           3           4           4
           5           5           6           6
Primitive exponents                        R   N=          38
  5.48467166E+03  8.25234946E+02  1.88046958E+02  5.29645000E+01  1.68975704E+01
  5.79963534E+00  1.55396162E+01  3.59993359E+00  1.01376175E+00  2.70005823E-01
  8.00000000E-01  3.04752488E+03  4.57369518E+02  1.03948685E+02  2.92101553E+01
  9.28666296E+00  3.16392696E+00  7.86827235E+00  1.88128854E+00  5.44249258E-01
  1.68714478E-01  8.00000000E-01  1.87311370E+01  2.82539436E+00  6.40121692E-01
  1.61277759E-01  1.87311370E+01  2.82539436E+00  6.40121692E-01  1.61277759E-01
  1.87311370E+01  2.82539436E+00  6.40121692E-01  1.61277759E-01  1.87311370E+01
  2.82539436E+00  6.40121692E-01  1.61277759E-01
Contraction coefficients                   R   N=          38
  1.83107443E-03  1.39501722E-02  6.84450781E-02  2.32714336E-01  4.70192898E-01
  3.58520853E-01 -1.10777550E-01 -1.48026263E-01  1.13076702E+00  1.00000000E+00
  1.00000000E+00  1.83473713E-03  1.40373228E-02  6.88426223E-02  2.32184443E-01
  4.67941348E-01  3.62311985E-01 -1.19332420E-01 -1.60854152E-01  1.14345644E+00
  1.00000000E+00  1.00000000E+00  3.34946043E-02  2.34726953E-01  8.13757326E-01
  1.00000000E+00  3.34946043E-02  2.34726953E-01  8.13757326E-01  1.00000000E+00
  3.34946043E-02  2.34726953E-01  8.13757326E-01  1.00000000E+00  3.34946043E-02
  2.34726953E-01  8.13757326E-01  1.00000000E+00
P(S=P) Contraction coefficients            R   N=          38
  0.00000000E+00  0.00000000E+00  0.00000000E+00  0.00000000E+00  0.00000000E+00
  0.00000000E+00  7.08742682E-02  3.39752839E-01  7.27158577E-01  1.00000000E+00
  0.00000000E+00  0.00000000E+00  0.00000000E+00  0.00000000E+00  0.00000000E+00
  0.00000000E+00  0.00000000E+00  6.89990666E-02  3.16423961E-01  7.44308291E-01
  1.00000000E+00  0.00000000E+00  0.00000000E+00  0.00000000E+00  0.00000000E+00
  0.00000000E+00  0.00000000E+00  0.00000000E+00  0.00000000E+00  0.00000000E+00
  0.00000000E+00  0.00000000E+00  0.00000000E+00  0.00000000E+00  0.00000000E+00
  0.00000000E+00  0.00000000E+00  0.00000000E+00
Coordinates of each shell                  R   N=          48
  1.41893350E+00  2.31879904E-01  8.20912016E-08  1.41893350E+00  2.31879904E-01
  8.20912016E-08  1.41893350E+00  2.31879904E-01  8.20912016E-08  1.41893350E+00
  2.31879904E-01  8.20912016E-08 -1.25957833E+00 -3.67907430E-02 -8.71002093E-08
 -1.25957833E+00 -3.67907430E-02 -8.71002093E-08 -1.25957833E+00 -3.67907430E-02
 -8.71002093E-08 -1.25957833E+00 -3.67907430E-02 -8.71002093E-08 -1.95013864E+00
 -1.02619172E+00  1.68583399E+00 -1.95013864E+00 -1.02619172E+00  1.68583399E+00
 -1.95013458E+00 -1.02621883E+00 -1.68581930E+00 -1.95013458E+00 -1.02621883E+00
 -1.68581930E+00 -2.03062142E+00  1.87309886E+00 -1.57347996E-05 -2.03062142E+00
  1.87309886E+00 -1.57347996E-05  2.13689667E+00 -1.45498309E+00  9.11946793E-07
  2.13689667E+00 -1.45498309E+00  9.11946793E-07
Constraint Structure                       R   N=          18
 -1.40354527E+00  2.46159046E-01 -6.61767176E-05  1.25684176E+00 -3.75720776E-02
  3.02612981E-05  1.84133899E+00 -1.06706645E+00 -1.69214048E+00  1.84111893E+00
 -1.06619748E+00  1.69249171E+00  2.13151743E+00  1.83254232E+00 -2.94193501E-04
 -2.12666378E+00 -1.44311829E+00  2.90811783E-04
Num ILSW                                   I              100
ILSW                                       I   N=         100
           0           1           0           0           2           0
           0           0           0           0           0 13421772800
           0           0           0           0           0           0
           0           0           0           0           1           0
           1           0           0           0           0           0
           0           0      100000           0          -1           0
           0           0           0           0           0           0
           0           0           0           1           0           0
           0           0           1           0           0           0
           0           0           4          40           0           0
           0           0           0           0           0           0
           0           0           0           0           0           0
           0           0           0           0           0           0
           0           0           0           0           0           0
           0           0           0           0           0           0
           0           0           0           0           0           0
           0           0           0           0
Num RLSW                                   I               40
RLSW                                       R   N=          40
  1.00000000E+00  1.00000000E+00  1.00000000E+00  1.00000000E+00  1.00000000E+00
  0.00000000E+00  0.00000000E+00  1.00000000E+00  0.00000000E+00  0.00000000E+00
  0.00000000E+00  0.00000000E+00  1.00000000E+00  0.00000000E+00  0.00000000E+00
  0.00000000E+00  0.00000000E+00  1.00000000E+00  0.00000000E+00  0.00000000E+00
  0.00000000E+00  0.00000000E+00  1.00000000E+00  0.00000000E+00  0.00000000E+00
  0.00000000E+00  0.00000000E+00  1.00000000E+00  0.00000000E+00  0.00000000E+00
  0.00000000E+00  0.00000000E+00  0.00000000E+00  0.00000000E+00  0.00000000E+00
  0.00000000E+00  0.00000000E+00  0.00000000E+00  1.00000000E+00  1.00000000E+00
MxBond                                     I                4
NBond                                      I   N=           6
           2           4           1           1           1           1
IBond                                      I   N=          24
           2           6           0           0           1           3
           4           5           2           0           0           0
           2           0           0           0           2           0
           0           0           1           0           0           0
RBond                                      R   N=          24
  1.00000000E+00  1.00000000E+00  0.00000000E+00  0.00000000E+00  1.00000000E+00
  1.00000000E+00  1.00000000E+00  1.00000000E+00  1.00000000E+00  0.00000000E+00
  0.00000000E+00  0.00000000E+00  1.00000000E+00  0.00000000E+00  0.00000000E+00
  0.00000000E+00  1.00000000E+00  0.00000000E+00  0.00000000E+00  0.00000000E+00
  1.00000000E+00  0.00000000E+00  0.00000000E+00  0.00000000E+00
Virial Ratio                               R      2.002679089395517E+00
SCF Energy                                 R     -1.150341129132291E+02
MP2 Energy                                 R     -1.153461354512202E+02
Total Energy                               R     -1.153461354512202E+02
Post-SCF wavefunction norm                 R      1.044434853997055E+00
RMS Force                                  R      5.297393340820819E-05
RMS Density                                R      2.813912809864268E-09
External E-field                           R   N=          35
  0.00000000E+00  0.00000000E+00  0.00000000E+00  0.00000000E+00  0.00000000E+00
  0.00000000E+00  0.00000000E+00  0.00000000E+00  0.00000000E+00  0.00000000E+00
  0.00000000E+00  0.00000000E+00  0.00000000E+00  0.00000000E+00  0.00000000E+00
  0.00000000E+00  0.00000000E+00  0.00000000E+00  0.00000000E+00  0.00000000E+00
  0.00000000E+00  0.00000000E+00  0.00000000E+00  0.00000000E+00  0.00000000E+00
  0.00000000E+00  0.00000000E+00  0.00000000E+00  0.00000000E+00  0.00000000E+00
  0.00000000E+00  0.00000000E+00  0.00000000E+00  0.00000000E+00  0.00000000E+00
IOpCl                                      I                0
IROHF                                      I                0
Alpha Orbital Energies                     R   N=          38
 -2.05598395E+01 -1.12722955E+01 -1.34779143E+00 -9.21841916E-01 -6.83537721E-01
 -6.15479522E-01 -5.86200440E-01 -4.99631009E-01 -4.45297911E-01  2.22664053E-01
  2.76464831E-01  3.19235754E-01  3.26922949E-01  3.79376674E-01  7.62175082E-01
  7.76977787E-01  7.86947874E-01  1.04797650E+00  1.12216870E+00  1.14507369E+00
  1.17243621E+00  1.20529316E+00  1.25514677E+00  1.26675197E+00  1.40521860E+00
  1.72357421E+00  1.77629257E+00  1.85832387E+00  2.03806605E+00  2.36704197E+00
  2.44399835E+00  2.45556848E+00  2.67807098E+00  2.73272959E+00  2.78304097E+00
  3.15181521E+00  4.11459452E+00  4.63693721E+00
Alpha MO coefficients                      R   N=        1444
  9.94663075E-01  2.11423406E-02 -6.41451137E-04 -1.15280820E-03  8.44694232E-10
  3.91690245E-03  3.03873318E-04  5.29363893E-04 -3.73471645E-10 -4.19158682E-03
 -4.05967875E-03 -3.83249818E-03  3.78513628E-05  1.61967867E-11  2.00274835E-10
 -1.99415843E-05  2.52712601E-04  3.61691695E-04  5.50143676E-05  4.50437297E-11
  7.24798739E-05 -1.24606386E-04 -2.64124930E-04  6.94887874E-11  5.43172953E-05
 -7.40111270E-05 -4.10393445E-05 -4.75739402E-06  2.59926124E-11  5.02147779E-10
 -4.35930472E-05 -1.14100598E-04 -4.35936875E-05 -1.14101673E-04  1.36632294E-05
  1.38932794E-05  3.87468470E-04 -2.19136773E-04 -1.45999280E-04  1.39482116E-04
 -1.10028000E-04 -5.34183253E-05 -9.16013253E-11  1.25645104E-03  1.12293845E-04
  1.57317221E-04  5.48404970E-10 -8.00491804E-04 -6.65089149E-06  5.39405540E-05
 -5.35978489E-05 -2.83512946E-10  4.68780916E-12  9.95769082E-01  2.73767845E-02
  7.21174408E-04  9.83529905E-06 -2.47466604E-10 -1.19669231E-02  4.66112417E-04
 -2.45992400E-05  4.92814472E-10 -1.61214176E-03 -1.76663486E-03 -1.79935754E-03
  1.85972873E-05 -9.16408788E-11  1.41134344E-10  5.98421816E-05  2.43137970E-03
  5.98417864E-05  2.43137996E-03  7.67676680E-05  2.46316582E-03  2.38227588E-05
  3.25095827E-04 -2.03149485E-01  4.58675731E-01 -4.58859189E-02 -7.09870158E-02
  1.96175255E-08  4.31435164E-01 -2.59443872E-02 -4.21123819E-02  3.83284556E-09
  1.67789503E-02  2.12124875E-02 -1.14039106E-03 -4.70199403E-03  4.88819469E-09
 -1.16126137E-08 -6.89969608E-02  1.26196594E-01  9.37598665E-02  5.58193083E-03
 -1.75715811E-08  5.06430049E-02  1.64443020E-03 -4.67649241E-03  4.86611408E-08
  2.43556307E-02 -4.82457878E-03 -5.56551992E-03  1.73737734E-03  1.54019515E-09
  4.59618782E-09  2.37301646E-02  2.08208265E-03  2.37302097E-02  2.08214326E-03
  2.48391714E-02  6.40139747E-03  1.20615509E-01 -2.28192419E-03  5.97290481E-02
 -1.34254977E-01 -1.79478446E-01  6.21654475E-02 -8.16884508E-08 -1.86747922E-01
 -9.22291815E-02  3.58587213E-02 -5.16753280E-08  1.61432524E-02 -1.52461377E-02
 -4.72965783E-04  1.27668095E-02 -1.86811064E-09  1.00810718E-08 -1.77538292E-01
  3.44287173E-01 -7.22577477E-02  8.98089576E-03 -1.44112856E-07  3.33268876E-01
 -3.83338078E-02 -8.83644880E-03 -7.19951305E-09 -4.28876200E-03  1.36803644E-02
  1.15608203E-02  7.27825978E-04 -1.80621695E-08  3.81356001E-09  1.35804852E-01
  3.71499808E-02  1.35804919E-01  3.71499922E-02  1.42595864E-01  4.38400616E-02
 -1.00122583E-01 -2.51104871E-02 -3.99757307E-02  9.15393099E-02 -2.17586615E-01
  3.66926581E-01 -8.99580225E-08  1.59135217E-01 -1.29812485E-01  2.25922495E-01
 -2.83493527E-08  1.71510675E-02 -3.72038671E-02  5.18116919E-03  5.83964545E-03
 -9.81464652E-09  1.43016287E-08  2.00197191E-02 -3.36415667E-02  1.68536147E-01
  2.24168318E-01  9.01309070E-08 -7.90499977E-02  4.98409866E-02  1.04300395E-01
 -1.24153047E-07  1.90552510E-02  2.16343794E-04 -2.11495123E-02  4.72383814E-03
  2.80677759E-08 -3.15400073E-07 -1.08405840E-01 -6.42531128E-02 -1.08407429E-01
 -6.42543408E-02  5.76851740E-02  3.32991918E-02 -2.13073666E-01 -1.04118153E-01
 -4.98048499E-08  1.23709793E-07  8.84295009E-07  2.35636303E-07  3.37343310E-01
  1.97099122E-07  6.01930997E-07  1.79864625E-07  2.26789442E-01 -3.48211259E-08
  2.69143856E-09  3.36183222E-08 -6.88208449E-08 -1.30548249E-02 -1.52992792E-02
 -5.41543745E-08  7.90981227E-08 -9.20195808E-07  7.39512989E-07  3.79642473E-01
  3.73849041E-07 -3.89310750E-07  2.11015931E-07  1.74992766E-01 -3.79649368E-08
 -4.10010515E-07  4.56534932E-07 -4.52237251E-09 -6.40206519E-03 -2.38534727E-02
  1.84700930E-01  1.42963142E-01 -1.84699392E-01 -1.42962184E-01 -1.04905203E-06
 -7.02657822E-07  2.24249754E-07  1.25046381E-07 -2.55604053E-02  6.15558200E-02
  3.92718231E-01  1.34458826E-01 -1.07921368E-06  9.65798394E-02  2.72237236E-01
  9.22010278E-02 -7.35921844E-07 -1.44213193E-02  2.86797750E-03  7.15313089E-03
 -2.83180801E-02  5.35832539E-08  3.56352214E-08  1.13801802E-03 -3.91815315E-03
 -2.99682174E-01  2.31963513E-01 -1.04734572E-06  4.30464708E-02 -1.16764572E-01
  1.40247319E-01 -6.39741265E-07 -2.86752584E-02  2.84246116E-02  1.96674277E-03
 -1.33390368E-02  1.75680137E-08 -3.44199927E-07 -7.13582583E-03 -2.77128370E-03
 -7.13699050E-03 -2.77221089E-03  2.06682820E-01  1.43150826E-01  4.80202831E-02
  4.51041615E-02 -4.96172152E-02  1.09469140E-01  1.64929421E-01  3.78018739E-01
  3.30731268E-07  2.33269871E-01  1.33298676E-01  2.92759751E-01  2.48302920E-07
 -5.54213497E-03 -2.90308706E-02  8.91984873E-03 -4.37950351E-03 -1.14940044E-08
  2.76046514E-08  8.43902721E-03 -2.13229982E-02 -8.89034822E-02 -3.18074420E-01
  7.70551732E-08  2.06156259E-03 -1.98342599E-02 -1.47208201E-01  5.78505315E-08
 -1.15998731E-02 -1.28658619E-02  2.40676261E-02  2.98969439E-02 -3.40550597E-08
  5.52079671E-07  1.23082241E-01  1.24270241E-01  1.23085196E-01  1.24273033E-01
 -1.98760052E-01 -1.80228644E-01 -1.39003444E-01 -1.00357022E-01  4.92887993E-08
 -1.01534573E-07  7.89429101E-08  1.09585120E-07  5.48082476E-01 -3.06404686E-07
  3.13710116E-08  1.07157208E-07  4.55345674E-01  9.03422740E-09  2.62743283E-08
 -1.59348326E-09 -1.91392086E-08 -7.00139424E-03 -2.16852226E-02 -9.72036577E-09
  1.30035558E-08  5.22892847E-08  2.57721176E-07 -2.38159876E-01  6.39424350E-08
 -4.23508872E-09  1.67531206E-07 -1.00660371E-01 -4.97478300E-08  4.22409571E-07
 -3.89589936E-07 -4.53068049E-08  3.53998539E-02  2.20528713E-02 -1.65804653E-01
 -1.79896969E-01  1.65803078E-01  1.79895149E-01  1.66522119E-06  1.75753618E-06
  1.41368634E-07  2.04348210E-07  7.98122042E-02 -5.86310181E-02 -3.10517272E-02
  1.92097403E-01 -2.99928179E-07 -1.09585318E+00 -6.64689245E-02  4.65805110E-01
 -8.42120734E-07  3.98243315E-02  2.69013230E-02  5.08900453E-02 -1.10603804E-03
 -4.39292297E-09  4.55059977E-08  5.30609367E-02 -2.96752245E-02  1.55374750E-01
  4.69608420E-02  7.74973986E-07 -1.02187923E+00  5.91656776E-01  9.01576553E-02
  3.45587866E-06 -2.05253193E-03  1.55535666E-02  9.20258413E-03  2.57555535E-03
 -3.26622079E-08 -2.06381471E-09 -1.19677670E-03  6.23457056E-01 -1.19654091E-03
  6.23464590E-01  5.33047553E-03  4.47469116E-01  6.29652587E-02  1.24605339E+00
  5.78299769E-02 -1.83580771E-02  4.56907071E-02  1.31901273E-01 -4.08790406E-07
 -8.86645814E-01  1.65395284E-01  3.09046271E-01 -9.87669052E-07  4.10516328E-02
  2.54497301E-02  3.94647362E-02 -4.24105427E-03 -1.02715120E-08  3.15785558E-08
 -1.39821869E-01  1.19293908E-01 -5.82269365E-02  4.52233501E-03  9.27410168E-07
  2.43338654E+00 -1.82514551E-01  2.36621753E-02  3.61259681E-06 -1.16988801E-02
 -7.46281939E-04 -7.01400475E-03  2.53056098E-03 -2.81994026E-08  1.19057166E-08
 -5.89256830E-04 -1.07668000E+00 -5.88928416E-04 -1.07667210E+00  9.97635568E-04
 -1.12162019E+00  4.80923385E-02  7.62076803E-01  7.79209332E-03 -8.51051225E-03
  7.94231719E-02  4.38381722E-02 -7.39639185E-08 -1.21285347E-01  1.55351527E-01
  1.78641873E-01  1.11644065E-07 -3.58496518E-03  3.03725402E-03  2.09222756E-04
  8.95072006E-03  1.66859776E-08 -1.96302183E-07 -1.00021588E-02  1.08266931E-03
  6.23098106E-02 -3.34322418E-01 -6.96505792E-08  1.00783507E-01  3.65952653E-01
 -1.44918229E+00  1.75879726E-07 -6.54705342E-03  1.50148426E-02 -8.53210124E-03
 -4.99160432E-03  3.29854559E-08 -2.87698889E-07 -2.44804713E-02 -8.72052511E-01
 -2.44808858E-02 -8.72078445E-01  6.36125950E-02  1.91662156E+00 -2.22997015E-02
 -1.61189347E-01  4.65880999E-07 -2.83348373E-07  3.31637953E-07  6.92247316E-07
  8.15646506E-02 -7.52723675E-06  1.99300134E-06  1.83460262E-06  2.51441831E-01
  1.83509120E-07  3.65009648E-08  4.33606735E-07 -4.60773010E-08  7.42318176E-03
 -1.18392321E-02 -3.63019916E-07  2.38153355E-07  6.82522760E-07  8.87220194E-08
 -3.69860497E-01  7.02945179E-06  4.51945152E-06  7.08238067E-07 -1.48973023E+00
 -1.36187062E-08 -2.22627163E-07  2.87132565E-07  4.17861392E-08  2.17398164E-03
 -1.10545745E-02  3.00507396E-02  1.65247000E+00 -3.00501095E-02 -1.65245819E+00
 -3.14595610E-07 -1.76346445E-05 -3.16517815E-08  5.13521335E-06  5.08338499E-02
 -3.98811753E-02  3.10089243E-01 -1.04865291E-01 -7.54318153E-08 -8.40175040E-01
  9.70658912E-01 -2.67086053E-01 -2.37426208E-07 -7.62296423E-03  2.99415437E-02
  2.79346759E-02 -1.22576380E-02 -3.56978665E-08  7.36712363E-08 -6.13795666E-02
  4.52811315E-02  1.99272665E-01  5.29329113E-02  9.30339792E-07  9.11743656E-01
  1.53811907E+00  4.88231674E-01  2.45574374E-06 -1.25836900E-02  1.12742235E-02
  2.25137610E-02 -7.26888924E-03 -8.87355834E-09  1.18201621E-07  6.05165692E-02
  3.24221129E-01  6.05168158E-02  3.24232309E-01  4.43125315E-02 -3.35362978E-01
 -2.72168032E-02 -9.16350827E-01  5.12380128E-03 -5.11568838E-02 -1.74819964E-01
 -5.85432038E-02  9.42961746E-07 -1.89400365E-01  6.75342682E-02 -1.48568037E-01
  1.18837171E-06 -8.18218451E-02  3.73933723E-03  2.53102097E-05 -9.93739709E-03
 -9.84608253E-08  2.41217707E-07  1.10241768E-02 -1.27497248E-01 -2.36598421E-01
 -6.99673932E-01  4.16522097E-06  1.73312877E-01  2.49274981E-01  1.54364726E+00
 -9.44190306E-06  3.36207831E-02 -9.58108474E-02  7.39600497E-02  5.31644287E-02
 -3.55072467E-07  1.81540546E-06  2.61655532E-01  1.21610091E-01  2.61656923E-01
  1.21610815E-01 -4.66994083E-01 -2.73391349E-01  1.31240299E-01  8.97493576E-02
 -9.71231897E-09  1.72063140E-07 -5.27485335E-07 -8.44467004E-07 -1.93173840E-01
 -5.06969639E-07 -4.51224552E-07 -6.94588309E-07 -1.95326751E-01 -2.12275652E-07
  4.56034270E-07 -1.96304808E-07 -1.53737261E-07  4.55132476E-03  1.83813819E-02
  1.11819510E-07 -4.71424380E-07 -1.05783029E-06 -3.91402823E-06 -7.18445679E-01
 -7.40220164E-07  3.60216645E-08  9.60623481E-06  1.67326713E+00  3.23915925E-09
  1.68648382E-06 -1.71153747E-06  1.64243689E-07  2.98655298E-02  1.08577818E-01
 -4.33711503E-01 -3.15951551E-01  4.33711118E-01  3.15951290E-01  1.19429513E-06
  9.29938221E-07  1.21827632E-06 -4.55152569E-07 -1.90936233E-02  2.60781748E-01
 -2.24801859E-01 -2.95897018E-02  1.16513969E-07 -7.35193584E-01  1.06451130E-02
  1.15397548E-01 -9.87609207E-08 -9.72559105E-02  1.19610795E-01  1.10782265E-01
 -1.13920900E-02  5.19936862E-08 -1.31029675E-07  3.74872463E-02 -4.05048722E-01
 -9.66658179E-01  1.99002370E-01 -6.95392945E-07  3.97178617E-01  1.23685939E+00
 -4.99465238E-01  5.40677521E-07  4.53798186E-02 -4.28924365E-03 -5.62760326E-02
  5.38811967E-03  5.53068170E-09 -7.64924264E-07  3.67500990E-02 -2.93260847E-02
  3.67479461E-02 -2.93279589E-02  2.27023655E-01  1.86340658E-01  8.21517222E-02
 -2.48809763E-01 -2.65443897E-02  2.38660075E-02 -1.48770996E-01 -2.38308214E-01
 -8.53613865E-07 -1.85540579E-02  4.11950446E-01 -2.55933501E-01  9.58584775E-07
 -5.17703332E-02 -1.10891549E-01  7.27268591E-02  1.43578807E-01 -4.14615475E-07
  3.19853720E-07 -2.00423812E-03 -7.60327897E-02 -1.17165946E-01 -5.31348694E-01
  2.14952952E-06  3.17754795E-01  7.82524077E-02  1.00023013E+00 -2.30171660E-06
  1.10778162E-01 -7.50600278E-03 -7.22853833E-02 -1.38020500E-01  6.36764417E-07
 -9.64056456E-07 -3.27325208E-01  4.87743737E-01 -3.27326430E-01  4.87751076E-01
  3.16115261E-01 -9.74752318E-01 -8.83097935E-01  4.98371768E-01  6.33398739E-08
  4.32240994E-06  8.14469632E-07  1.23614138E-06  1.89636233E-01 -7.51960277E-06
 -1.02147490E-06 -2.22539185E-06 -2.75690223E-01  1.67370601E-06  1.36366432E-06
  1.27657066E-06  7.08410546E-07  1.05331067E-01  2.05328340E-02  3.89922127E-07
  2.32043667E-06  1.25276434E-06 -5.08507120E-06 -8.90667848E-01 -7.28888831E-06
 -1.98066538E-07  8.82559412E-06  1.37803323E+00  4.21210352E-08 -2.19279736E-06
  2.77947847E-06 -6.53133530E-07 -1.41802852E-01 -1.49949122E-01  6.58887898E-01
 -1.35092124E+00 -6.58880947E-01  1.35091861E+00 -2.36083856E-07  4.79900732E-06
 -1.68766808E-06  2.97003715E-06 -1.56433894E-02 -6.58166046E-01 -2.09123534E-01
 -5.11087599E-01  1.95774313E-07  1.15310997E+00  4.49651946E-01  4.97453899E-01
 -5.97217900E-07 -2.60051720E-01 -2.41711482E-01 -2.01191746E-01 -9.22814038E-03
  6.12949447E-07 -1.39598354E-07 -5.37639153E-02 -3.55844338E-01 -6.85886100E-02
  5.06952212E-01 -5.70520429E-06  1.23663045E+00 -8.12906193E-02 -9.53689939E-01
  8.51254121E-06  7.37391707E-02 -1.11582816E-01 -2.47386230E-02  5.86998223E-02
 -7.13139078E-07  2.08222859E-08 -1.74633977E-01 -5.42928971E-01 -1.74637745E-01
 -5.42922972E-01 -6.45657703E-01  6.83329038E-01 -7.95679619E-02 -3.12030426E-01
 -6.72800818E-04 -6.20643304E-01  1.29707247E-01  2.33622516E-01 -3.43743792E-07
  1.10661680E+00 -2.48705986E-01 -4.14458184E-02  2.47862262E-07 -2.58573804E-01
 -5.26135363E-02 -2.18428312E-01 -7.72536211E-03  7.28389363E-08 -4.94963871E-08
 -7.61969142E-02 -4.29433159E-01 -5.14333122E-02 -4.45121201E-01 -5.44970973E-07
  1.15018966E+00 -2.83576842E-01  4.59890024E-01  1.03657659E-07 -7.20465425E-02
  7.38261520E-02 -1.61298655E-01 -5.74190801E-02  3.13675515E-07 -3.21662823E-06
 -5.92118712E-01  2.64326268E-01 -5.92126051E-01  2.64337974E-01  1.39093125E-01
 -9.62322086E-01  6.22150890E-01 -7.22144639E-01 -6.43684809E-03 -2.14399306E-01
 -2.58515916E-01 -9.67118908E-02 -8.54862555E-07  2.19527417E-01  3.98221406E-01
  1.47435989E-01  9.81097581E-07 -1.26557521E-01 -4.71146092E-02 -6.95515447E-02
  8.55335337E-03 -7.34544067E-09 -1.06346812E-07  3.16150625E-02 -1.42873424E+00
  4.74327127E-01 -5.55656528E-02  8.32602926E-07  3.19231474E+00 -5.22503155E-01
  1.48129277E-03 -1.45921450E-06 -9.65146141E-02 -1.37968005E-02 -8.43280327E-02
 -1.28115391E-02  2.04011772E-08 -8.87506755E-07  3.97926227E-01 -9.67454322E-01
  3.97925196E-01 -9.67453963E-01  5.86255878E-01 -1.19667415E+00  8.15794131E-02
 -1.76975897E-01  2.66675751E-08  3.62583563E-06  6.81510550E-06  3.35031070E-06
 -9.26478652E-01 -9.85619135E-06 -6.01212899E-06 -6.32623073E-06  1.18948051E+00
  5.99230124E-07  4.51035217E-07  2.96675814E-06  4.30039112E-07  7.86120705E-02
 -2.89369779E-02 -9.19743633E-07 -1.27596192E-05 -1.31469667E-07  2.23414812E-06
 -1.39592891E-02  3.12842696E-05 -3.39167822E-06  7.03497442E-07 -5.32104556E-01
 -2.24590653E-06 -4.49984964E-06  3.25908096E-06 -2.83941693E-07 -1.53655464E-02
 -1.22210931E-01  1.88256860E-01  1.86455351E-02 -1.88256726E-01 -1.86625347E-02
 -7.68669319E-06 -3.36724763E-06 -5.01162719E-06  3.90570653E-06 -7.87338142E-04
  2.49120175E-01  5.81697013E-01  1.43709197E-01  1.13748163E-05 -7.13912636E-01
 -5.52213395E-01 -3.63574602E-01 -1.47580676E-05  2.17180276E-02  4.69612734E-02
  2.01811986E-01  3.50691399E-02 -1.11027428E-06  6.90268165E-07 -8.09558478E-02
 -1.18467792E+00  1.23858106E-02  1.60761044E-01 -6.62972986E-07  2.88642684E+00
 -4.23754421E-01  6.98669249E-02  7.37578270E-06 -1.98196459E-01 -1.69201969E-01
  5.41879184E-02 -3.78119539E-02  1.12198670E-07  3.98849163E-06 -8.00957494E-02
 -7.89993012E-01 -8.00885951E-02 -7.89993762E-01 -4.82676029E-01 -4.17811430E-01
 -4.17940019E-01  3.86660709E-01  1.74278611E-02  4.52506965E-01  4.64643941E-01
 -7.82007793E-01 -1.27304141E-06 -9.67002199E-01 -9.68864006E-01  1.29578203E+00
  2.40989576E-06  1.34080617E-01  2.04153991E-01  6.42340642E-02 -2.32452306E-02
  5.44679220E-07 -5.62474977E-07  5.12390697E-03  1.75387929E-01  6.12877697E-02
 -2.37693925E-01  1.95053895E-06 -6.27792631E-01 -3.58392526E-01 -1.65880386E-03
 -6.55214084E-06 -1.14425414E-01  1.71624232E-01 -8.78086213E-02  6.38170331E-02
 -1.90298860E-07 -2.92994268E-06 -6.82293445E-03  8.93065370E-02 -6.82499611E-03
  8.93009124E-02  2.41162055E-01 -2.76065689E-01  1.33100046E-01  1.03615662E+00
  9.12915011E-02  1.20926453E+00 -3.44781628E-01  9.03224454E-04  1.29928185E-07
 -3.66751864E+00  1.49639924E+00  9.88828248E-02 -4.21373189E-07  5.98468298E-01
  2.85221855E-01  1.75664184E-01 -2.69459307E-01 -7.83132552E-07 -1.35735640E-06
 -7.34488726E-02 -9.06697992E-01  1.46542729E-01 -9.39350174E-02 -4.25194526E-07
  3.81328187E+00  9.57048935E-01  2.32528517E-01 -4.96788202E-07  1.46702250E-01
  5.91033316E-02 -2.46790203E-01  2.74171611E-01  1.87658229E-06 -4.71197879E-06
 -3.74784439E-01 -3.26009435E-01 -3.74786218E-01 -3.26008098E-01 -2.65213833E-01
 -5.42980024E-01  1.18576966E-01 -5.87181787E-02 -4.04088520E-07 -5.09948117E-06
  1.60798155E-06 -3.37038281E-07 -6.98553602E-03  1.59890818E-05 -7.27297813E-06
 -5.29964282E-07 -1.32491825E-01 -2.13607653E-06 -3.76811868E-06  1.46251504E-06
 -1.27351348E-06 -5.06376262E-01 -1.64127652E-01  3.93198252E-07  4.63427258E-06
 -4.66046133E-07 -7.18770941E-07 -1.88250658E-01 -1.90238791E-05 -4.47487932E-06
 -4.97523244E-07  1.34395606E-01 -1.47522947E-06 -6.69278991E-06  8.38629964E-06
  2.58781733E-06  6.35069166E-01 -3.85109455E-01  1.30793343E-01 -1.54308078E-01
 -1.30788990E-01  1.54311038E-01  1.32869968E-06  3.14375219E-06 -3.88060454E-07
  9.16710669E-07 -5.42758321E-02 -6.83336267E-01  1.20246954E-01  7.19544774E-02
  6.38093724E-07  2.01730575E+00 -5.22584603E-01 -5.27099678E-01 -7.74036665E-07
 -1.94616719E-01 -5.58023688E-01  1.80962715E-01 -4.37024340E-01  4.07285393E-06
 -2.21271268E-06  2.65285791E-02  2.56784677E-01 -1.10697703E-01 -9.66819713E-02
  5.49545809E-07 -1.40465227E+00 -4.09966976E-01 -5.78225969E-02  4.56917888E-06
 -1.61180297E-01  3.07663867E-01 -1.43157051E-01  5.05870246E-01 -3.97379015E-06
 -5.45343332E-06  4.36556911E-02  1.36425017E-01  4.36581105E-02  1.36429441E-01