
    -----------------------------------------------------------------------
          Psi4: An Open-Source Ab Initio Electronic Structure Package
                               Psi4 1.3.2 release

                         Git: Rev {HEAD} ecbda83 


    R. M. Parrish, L. A. Burns, D. G. A. Smith, A. C. Simmonett,
    A. E. DePrince III, E. G. Hohenstein, U. Bozkaya, A. Yu. Sokolov,
    R. Di Remigio, R. M. Richard, J. F. Gonthier, A. M. James,
    H. R. McAlexander, A. Kumar, M. Saitow, X. Wang, B. P. Pritchard,
    P. Verma, H. F. Schaefer III, K. Patkowski, R. A. King, E. F. Valeev,
    F. A. Evangelista, J. M. Turney, T. D. Crawford, and C. D. Sherrill,
    J. Chem. Theory Comput. 13(7) pp 3185--3197 (2017).
    (doi: 10.1021/acs.jctc.7b00174)


                         Additional Contributions by
    P. Kraus, H. Kruse, M. H. Lechner, M. C. Schieber, R. A. Shaw,
    A. Alenaizan, R. Galvelis, Z. L. Glick, S. Lehtola, and J. P. Misiewicz

    -----------------------------------------------------------------------


    Psi4 started on: Thursday, 27 May 2021 11:46AM

    Process ID: 229127
    Host:       daniele-Precision-5750
    PSIDATADIR: /home/daniele/anaconda3/envs/poltype/share/psi4
    Memory:     500.0 MiB
    Threads:    1
    
  ==> Input File <==

--------------------------------------------------------------------------
molecule { 
0 1
 O   -2.278000    0.537728   -0.335591
 C    0.075725    0.073476   -0.367616
 C    1.216024   -0.377997    0.549769
 C   -1.288094   -0.429322    0.086979
 C    2.581373    0.135953    0.086813
 H    0.026398    1.165476   -0.363511
 H    0.272271   -0.230951   -1.398521
 H    1.237263   -1.472141    0.605372
 H    1.016636   -0.021133    1.565213
 H   -1.502485   -1.419191   -0.332539
 H   -1.296738   -0.514315    1.181223
 H    2.812919   -0.224042   -0.918157
 H    3.378902   -0.193461    0.755094
 H    2.594248    1.227788    0.058606
 H   -3.165381    0.266819   -0.064866
}
memory 700MB
set_num_threads(8)
psi4_io.set_default_path("/home/daniele/PSI4_sctatch/Psi4-1butanol_3D")
set freeze_core True
E, wfn = energy('wb97x-d/6-311+G*',return_wfn=True)
oeprop(wfn,"WIBERG_LOWDIN_INDICES")
clean()
--------------------------------------------------------------------------

  Memory set to 667.572 MiB by Python driver.
  Threads set to 8 by Python driver.

*** tstart() called on daniele-Precision-5750
*** at Thu May 27 11:46:44 2021

   => Loading Basis Set <=

    Name: 6-311+G*
    Role: ORBITAL
    Keyword: BASIS
    atoms 1    entry O          line   172 file /home/daniele/anaconda3/envs/poltype/share/psi4/basis/6-311pgs.gbs 
    atoms 2-5  entry C          line   130 file /home/daniele/anaconda3/envs/poltype/share/psi4/basis/6-311pgs.gbs 
    atoms 6-15 entry H          line    47 file /home/daniele/anaconda3/envs/poltype/share/psi4/basis/6-311pgs.gbs 


         ---------------------------------------------------------
                                   SCF
               by Justin Turney, Rob Parrish, Andy Simmonett
                          and Daniel G. A. Smith
                              RKS Reference
                        8 Threads,    667 MiB Core
         ---------------------------------------------------------

  ==> Geometry <==

    Molecular point group: c1
    Full point group: C1

    Geometry (in Angstrom), charge = 0, multiplicity = 1:

       Center              X                  Y                   Z               Mass       
    ------------   -----------------  -----------------  -----------------  -----------------
         O           -2.278000073955     0.537727880573    -0.335591237198    15.994914619570
         C            0.075724926045     0.073475880573    -0.367616237198    12.000000000000
         C            1.216023926045    -0.377997119427     0.549768762802    12.000000000000
         C           -1.288094073955    -0.429322119427     0.086978762802    12.000000000000
         C            2.581372926045     0.135952880573     0.086812762802    12.000000000000
         H            0.026397926045     1.165475880573    -0.363511237198     1.007825032230
         H            0.272270926045    -0.230951119427    -1.398521237198     1.007825032230
         H            1.237262926045    -1.472141119427     0.605371762802     1.007825032230
         H            1.016635926045    -0.021133119427     1.565212762802     1.007825032230
         H           -1.502485073955    -1.419191119427    -0.332539237198     1.007825032230
         H           -1.296738073955    -0.514315119427     1.181222762802     1.007825032230
         H            2.812918926045    -0.224042119427    -0.918157237198     1.007825032230
         H            3.378901926045    -0.193461119427     0.755093762802     1.007825032230
         H            2.594247926045     1.227787880573     0.058605762802     1.007825032230
         H           -3.165381073955     0.266818880573    -0.064866237198     1.007825032230

  Running in c1 symmetry.

  Rotational constants: A =      0.58876  B =      0.06613  C =      0.06316 [cm^-1]
  Rotational constants: A =  17650.44204  B =   1982.61110  C =   1893.45440 [MHz]
  Nuclear repulsion =  184.513755867616510

  Charge       = 0
  Multiplicity = 1
  Electrons    = 42
  Nalpha       = 21
  Nbeta        = 21

  ==> Algorithm <==

  SCF Algorithm Type is DF.
  DIIS enabled.
  MOM disabled.
  Fractional occupation disabled.
  Guess Type is SAD.
  Energy threshold   = 1.00e-06
  Density threshold  = 1.00e-06
  Integral threshold = 0.00e+00

  ==> Primary Basis <==

  Basis Set: 6-311+G*
    Blend: 6-311+G*
    Number of shells: 80
    Number of basis function: 140
    Number of Cartesian functions: 145
    Spherical Harmonics?: true
    Max angular momentum: 2

  ==> DFT Potential <==

   => Composite Functional: WB97X-D <= 

    wB97X-D Hyb-GGA Exchange-Correlation Functional

    J.-D. Chai and M. Head-Gordon, Phys. Chem. Chem. Phys. 10, 6615 (2008)

    Deriv               =              1
    GGA                 =           TRUE
    Meta                =          FALSE

    Exchange Hybrid     =           TRUE
    MP2 Hybrid          =          FALSE

   => Exchange-Correlation Functionals <=

    1.0000   wB97D range-separated functional

   => Exact (HF) Exchange <=

    0.7780            HF,LR [omega = 0.2000]
    0.2220               HF 

   => Molecular Quadrature <=

    Radial Scheme          =       TREUTLER
    Pruning Scheme         =           FLAT
    Nuclear Scheme         =       TREUTLER

    BS radius alpha        =              1
    Pruning alpha          =              1
    Radial Points          =             75
    Spherical Points       =            302
    Total Points           =         339750
    Total Blocks           =           2580
    Max Points             =            256
    Max Functions          =            132

   => WB97X-D: Empirical Dispersion <=

    Chai and Head-Gordon Dispersion Correction
    Chai, J.-D.; Head-Gordon, M. (2010), J. Chem. Phys., 132: 6615-6620

        s6 =       1.000000

   => Loading Basis Set <=

    Name: (6-311+G* AUX)
    Role: JKFIT
    Keyword: DF_BASIS_SCF
    atoms 1    entry O          line   324 file /home/daniele/anaconda3/envs/poltype/share/psi4/basis/heavy-aug-cc-pvtz-jkfit.gbs 
    atoms 2-5  entry C          line   200 file /home/daniele/anaconda3/envs/poltype/share/psi4/basis/heavy-aug-cc-pvtz-jkfit.gbs 
    atoms 6-15 entry H          line   116 file /home/daniele/anaconda3/envs/poltype/share/psi4/basis/heavy-aug-cc-pvtz-jkfit.gbs 

  ==> Pre-Iterations <==

   -------------------------------------------------------
    Irrep   Nso     Nmo     Nalpha   Nbeta   Ndocc  Nsocc
   -------------------------------------------------------
     A        140     140       0       0       0       0
   -------------------------------------------------------
    Total     140     140      21      21      21       0
   -------------------------------------------------------

  ==> Integral Setup <==

  ==> DiskDFJK: Density-Fitted J/K Matrices <==

    J tasked:                  Yes
    K tasked:                  Yes
    wK tasked:                 Yes
    Omega:               2.000E-01
    OpenMP threads:              8
    Integrals threads:           8
    Memory [MiB]:               76
    Algorithm:                Disk
    Integral Cache:           NONE
    Schwarz Cutoff:          1E-12
    Fitting Condition:       1E-10

   => Auxiliary Basis Set <=

  Basis Set: (6-311+G* AUX)
    Blend: HEAVY-AUG-CC-PVTZ-JKFIT
    Number of shells: 250
    Number of basis function: 820
    Number of Cartesian functions: 1005
    Spherical Harmonics?: true
    Max angular momentum: 4

  Cached 50.0% of DFT collocation blocks in 0.521 [GiB].

  Minimum eigenvalue in the overlap matrix is 2.1366468773E-05.
  Using Symmetric Orthogonalization.

  SCF Guess: Superposition of Atomic Densities via on-the-fly atomic UHF.

  ==> Iterations <==

                           Total Energy        Delta E     RMS |[F,P]|

   @DF-RKS iter SAD:  -232.91208095927854   -2.32912e+02   0.00000e+00 
   @DF-RKS iter   1:  -233.25120266920445   -3.39122e-01   6.40241e-03 DIIS
   @DF-RKS iter   2:  -233.36416492744755   -1.12962e-01   5.78420e-03 DIIS
   @DF-RKS iter   3:  -233.64077674470306   -2.76612e-01   7.02812e-04 DIIS
   @DF-RKS iter   4:  -233.64391516863819   -3.13842e-03   2.86232e-04 DIIS
   @DF-RKS iter   5:  -233.64458272552184   -6.67557e-04   3.82818e-05 DIIS
   @DF-RKS iter   6:  -233.64460044994667   -1.77244e-05   1.41515e-05 DIIS
   @DF-RKS iter   7:  -233.64460240718441   -1.95724e-06   3.23977e-06 DIIS
   @DF-RKS iter   8:  -233.64460253605614   -1.28872e-07   5.37581e-07 DIIS
  Energy and wave function converged.


  ==> Post-Iterations <==

    Orbital Energies [Eh]
    ---------------------

    Doubly Occupied:                                                      

       1A    -19.244944     2A    -10.328117     3A    -10.279220  
       4A    -10.273103     5A    -10.268401     6A     -1.116390  
       7A     -0.896656     8A     -0.820311     9A     -0.724285  
      10A     -0.676774    11A     -0.602285    12A     -0.567280  
      13A     -0.525131    14A     -0.518637    15A     -0.482680  
      16A     -0.453248    17A     -0.440771    18A     -0.419034  
      19A     -0.410409    20A     -0.406598    21A     -0.359441  

    Virtual:                                                              

      22A      0.064244    23A      0.074438    24A      0.087523  
      25A      0.091334    26A      0.104998    27A      0.114591  
      28A      0.119466    29A      0.132885    30A      0.139248  
      31A      0.142816    32A      0.156080    33A      0.160394  
      34A      0.187596    35A      0.202485    36A      0.205557  
      37A      0.231922    38A      0.235186    39A      0.246486  
      40A      0.249730    41A      0.262077    42A      0.262668  
      43A      0.270599    44A      0.280963    45A      0.293341  
      46A      0.306905    47A      0.314251    48A      0.325492  
      49A      0.335005    50A      0.344163    51A      0.357898  
      52A      0.362287    53A      0.374030    54A      0.427013  
      55A      0.429908    56A      0.486798    57A      0.488514  
      58A      0.502990    59A      0.535113    60A      0.557958  
      61A      0.584590    62A      0.604310    63A      0.614994  
      64A      0.669971    65A      0.679111    66A      0.704056  
      67A      0.715949    68A      0.728567    69A      0.739437  
      70A      0.743073    71A      0.752312    72A      0.761010  
      73A      0.763884    74A      0.780677    75A      0.815303  
      76A      0.829195    77A      0.847887    78A      0.952043  
      79A      1.068666    80A      1.083948    81A      1.111182  
      82A      1.143868    83A      1.170826    84A      1.190948  
      85A      1.242043    86A      1.346479    87A      1.442960  
      88A      1.491996    89A      1.596445    90A      1.603138  
      91A      1.633085    92A      1.661792    93A      1.669394  
      94A      1.685948    95A      1.706782    96A      1.746614  
      97A      1.771613    98A      1.801496    99A      1.869824  
     100A      1.902991   101A      1.934545   102A      1.998569  
     103A      2.030546   104A      2.222678   105A      2.276900  
     106A      2.332458   107A      2.543490   108A      2.589177  
     109A      2.592379   110A      2.601914   111A      2.605252  
     112A      2.652342   113A      2.664564   114A      2.692553  
     115A      2.721865   116A      2.895062   117A      2.940475  
     118A      3.029024   119A      3.043001   120A      3.090463  
     121A      3.134823   122A      3.185875   123A      3.220239  
     124A      3.258459   125A      3.310992   126A      3.316869  
     127A      3.358039   128A      3.467888   129A      3.720622  
     130A      3.879947   131A      4.039698   132A      4.195406  
     133A      5.132514   134A      5.264086   135A      5.524761  
     136A     23.557257   137A     23.715943   138A     23.809327  
     139A     23.864484   140A     50.002969  

    Final Occupation by Irrep:
              A 
    DOCC [    21 ]

  @DF-RKS Final Energy:  -233.64460253605614

   => Energetics <=

    Nuclear Repulsion Energy =            184.5137558676165099
    One-Electron Energy =                -680.9733150308228460
    Two-Electron Energy =                 286.0617557655642713
    DFT Exchange-Correlation Energy =     -23.2399099442375743
    Empirical Dispersion Energy =          -0.0068891941764820
    VV10 Nonlocal Energy =                  0.0000000000000000
    Total Energy =                       -233.6446025360561407

Computation Completed


Properties will be evaluated at   0.000000,   0.000000,   0.000000 [a0]

Properties computed using the SCF density matrix

  Nuclear Dipole Moment: [e a0]
     X:     5.0270      Y:    -1.3241      Z:     1.0183

  Electronic Dipole Moment: [e a0]
     X:    -5.1250      Y:     0.7339      Z:    -0.6434

  Dipole Moment: [e a0]
     X:    -0.0980      Y:    -0.5901      Z:     0.3748     Total:     0.7060

  Dipole Moment: [D]
     X:    -0.2491      Y:    -1.5000      Z:     0.9528     Total:     1.7944


*** tstop() called on daniele-Precision-5750 at Thu May 27 11:46:51 2021
Module time:
	user time   =      53.37 seconds =       0.89 minutes
	system time =       1.67 seconds =       0.03 minutes
	total time  =          7 seconds =       0.12 minutes
Total time:
	user time   =      53.37 seconds =       0.89 minutes
	system time =       1.67 seconds =       0.03 minutes
	total time  =          7 seconds =       0.12 minutes


Properties will be evaluated at   0.000000,   0.000000,   0.000000 [a0]
OEProp: No title given, name of density matrix used for the following properties is 'SCF density'


  Wiberg Bond Indices using Orthogonal Lowdin Orbitals:

  Irrep: 1 Size: 15 x 15

                 1                   2                   3                   4                   5

    1     0.00000000000000     0.12634780578283     0.02035703360697     1.31753712183319     0.00277341290894
    2     0.12634780578283     0.00000000000000     1.14994458023537     1.14691255479196     0.11423725428811
    3     0.02035703360697     1.14994458023537     0.00000000000000     0.11973682279477     1.20379322225423
    4     1.31753712183319     1.14691255479196     0.11973682279477     0.00000000000000     0.02126333204883
    5     0.00277341290894     0.11423725428811     1.20379322225423     0.02126333204883     0.00000000000000
    6     0.02144449752923     0.84958424290426     0.03876244216061     0.03825249710919     0.01297024922918
    7     0.00522530161697     0.86150012121383     0.03790535803000     0.04054242457896     0.01375077988755
    8     0.00084145631344     0.04023983947285     0.86581429041902     0.01368353421457     0.03940443439055
    9     0.00094221141879     0.03934259028111     0.86602517723434     0.01499000077731     0.03905699821162
   10     0.05051638210520     0.04282897198285     0.00857434930341     0.87037026791791     0.00090172287260
   11     0.05143693160548     0.03886490773978     0.02159949751500     0.86431830006129     0.00251759277378
   12     0.00013822307235     0.01447279967697     0.04144089001520     0.00156652704315     0.91020690452363
   13     0.00041996357142     0.01188147474985     0.04784518723617     0.00156433198876     0.91505403432156
   14     0.00011451060048     0.01435748296111     0.04138953825288     0.00177734244887     0.90981495216127
   15     0.86324790988961     0.01170867551075     0.00165870120321     0.03743478610936     0.00046322160489

                 6                   7                   8                   9                  10

    1     0.02144449752923     0.00522530161697     0.00084145631344     0.00094221141879     0.05051638210520
    2     0.84958424290426     0.86150012121383     0.04023983947285     0.03934259028111     0.04282897198285
    3     0.03876244216061     0.03790535803000     0.86581429041902     0.86602517723434     0.00857434930341
    4     0.03825249710919     0.04054242457896     0.01368353421457     0.01499000077731     0.87037026791791
    5     0.01297024922918     0.01375077988755     0.03940443439055     0.03905699821162     0.00090172287260
    6     0.00000000000000     0.00700147576088     0.00926897058663     0.00469428997368     0.00633496813026
    7     0.00700147576088     0.00000000000000     0.00394994958276     0.00869667368109     0.00702194945203
    8     0.00926897058663     0.00394994958276     0.00000000000000     0.00709932318050     0.00027677646952
    9     0.00469428997368     0.00869667368109     0.00709932318050     0.00000000000000     0.00018304854861
   10     0.00633496813026     0.00702194945203     0.00027677646952     0.00018304854861     0.00000000000000
   11     0.00175363193800     0.00720536056112     0.00090935611075     0.00230171066527     0.00885329235968
   12     0.00046714743791     0.00115863455733     0.00371628625533     0.00995711088754     0.00003024204091
   13     0.00034612199095     0.00036985337681     0.00319082659389     0.00303176977870     0.00015079520378
   14     0.00105624843160     0.00050338608168     0.01000888509872     0.00388525684432     0.00015299387516
   15     0.00102223327532     0.00004288539280     0.00014890078978     0.00002409128926     0.00311342085108

                11                  12                  13                  14                  15

    1     0.05143693160548     0.00013822307235     0.00041996357142     0.00011451060048     0.86324790988961
    2     0.03886490773978     0.01447279967697     0.01188147474985     0.01435748296111     0.01170867551075
    3     0.02159949751500     0.04144089001520     0.04784518723617     0.04138953825288     0.00165870120321
    4     0.86431830006129     0.00156652704315     0.00156433198876     0.00177734244887     0.03743478610936
    5     0.00251759277378     0.91020690452363     0.91505403432156     0.90981495216127     0.00046322160489
    6     0.00175363193800     0.00046714743791     0.00034612199095     0.00105624843160     0.00102223327532
    7     0.00720536056112     0.00115863455733     0.00036985337681     0.00050338608168     0.00004288539280
    8     0.00090935611075     0.00371628625533     0.00319082659389     0.01000888509872     0.00014890078978
    9     0.00230171066527     0.00995711088754     0.00303176977870     0.00388525684432     0.00002409128926
   10     0.00885329235968     0.00003024204091     0.00015079520378     0.00015299387516     0.00311342085108
   11     0.00000000000000     0.00029102549687     0.00007256749685     0.00004669673695     0.00313486953763
   12     0.00029102549687     0.00000000000000     0.00953604990436     0.00810712419019     0.00004596164144
   13     0.00007256749685     0.00953604990436     0.00000000000000     0.00951692527240     0.00005489069246
   14     0.00004669673695     0.00810712419019     0.00951692527240     0.00000000000000     0.00004388546819
   15     0.00313486953763     0.00004596164144     0.00005489069246     0.00004388546819     0.00000000000000



  Atomic Valences: 

 #  #
 Irrep: 1
      1:  2.4613428
      2:  4.4622233
      3:  4.4648471
      4:  4.4899498
      5:  4.1862081
      6:  0.9929590
      7:  0.9948742
      8:  0.9985528
      9:  1.0002303
     10:  0.9993092
     11:  1.0033057
     12:  1.0011349
     13:  1.0030348
     14:  1.0007752
     15:  0.9221444


    Psi4 stopped on: Thursday, 27 May 2021 11:46AM
    Psi4 wall time for execution: 0:00:07.63

*** Psi4 exiting successfully. Buy a developer a beer!
