
    -----------------------------------------------------------------------
          Psi4: An Open-Source Ab Initio Electronic Structure Package
                               Psi4 1.3.2 release

                         Git: Rev {HEAD} ecbda83 


    R. M. Parrish, L. A. Burns, D. G. A. Smith, A. C. Simmonett,
    A. E. DePrince III, E. G. Hohenstein, U. Bozkaya, A. Yu. Sokolov,
    R. Di Remigio, R. M. Richard, J. F. Gonthier, A. M. James,
    H. R. McAlexander, A. Kumar, M. Saitow, X. Wang, B. P. Pritchard,
    P. Verma, H. F. Schaefer III, K. Patkowski, R. A. King, E. F. Valeev,
    F. A. Evangelista, J. M. Turney, T. D. Crawford, and C. D. Sherrill,
    J. Chem. Theory Comput. 13(7) pp 3185--3197 (2017).
    (doi: 10.1021/acs.jctc.7b00174)


                         Additional Contributions by
    P. Kraus, H. Kruse, M. H. Lechner, M. C. Schieber, R. A. Shaw,
    A. Alenaizan, R. Galvelis, Z. L. Glick, S. Lehtola, and J. P. Misiewicz

    -----------------------------------------------------------------------


    Psi4 started on: Thursday, 27 May 2021 11:09AM

    Process ID: 226251
    Host:       daniele-Precision-5750
    PSIDATADIR: /home/daniele/anaconda3/envs/poltype/share/psi4
    Memory:     500.0 MiB
    Threads:    1
    
  ==> Input File <==

--------------------------------------------------------------------------
molecule { 
0 1
 O   -2.286118    0.403698   -0.503376
 C    0.051268   -0.152618   -0.505822
 C    1.303991   -0.685518    0.252785
 C   -1.241987   -0.093403    0.337115
 C    2.475661    0.315481    0.323528
 H    0.241630    0.850726   -0.908527
 H   -0.142587   -0.789004   -1.379645
 H    1.654579   -1.605024   -0.234326
 H    1.033204   -0.987282    1.272883
 H   -1.489922   -1.091684    0.719805
 H   -1.096171    0.558481    1.207546
 H    2.820965    0.591572   -0.678634
 H    3.325315   -0.118074    0.862020
 H    2.181341    1.231746    0.846738
 H   -3.106095    0.449813    0.023331
}
set optking { 
  frozen_dihedral = ("
    4 2 3 5
    2 4 1 15
    3 2 4 1
    12 5 3 2
  ")
}
set {
  geom_maxiter 400
  g_convergence GAU_LOOSE
  dynamic_level 1
}
memory 700MB
set_num_threads(8)
psi4_io.set_default_path("/home/daniele/PSI4_sctatch/Psi4-1butanol_3D")
for _ in range(1):
  try:
    set opt_coordinates both
    optimize('wb97x-d/6-311G')
    break
  except OptimizationConvergenceError:
    break
  else:
    try:
      set opt_coordinates cartesian
      optimize('wb97x-d/6-311G')
      break
    except OptimizationConvergenceError:
      pass
clean()
--------------------------------------------------------------------------

  Memory set to 667.572 MiB by Python driver.
  Threads set to 8 by Python driver.
gradient() will perform analytic gradient computation.

*** tstart() called on daniele-Precision-5750
*** at Thu May 27 11:09:09 2021

   => Loading Basis Set <=

    Name: 6-311G
    Role: ORBITAL
    Keyword: BASIS
    atoms 1    entry O          line   126 file /home/daniele/anaconda3/envs/poltype/share/psi4/basis/6-311g.gbs 
    atoms 2-5  entry C          line    92 file /home/daniele/anaconda3/envs/poltype/share/psi4/basis/6-311g.gbs 
    atoms 6-15 entry H          line    21 file /home/daniele/anaconda3/envs/poltype/share/psi4/basis/6-311g.gbs 


         ---------------------------------------------------------
                                   SCF
               by Justin Turney, Rob Parrish, Andy Simmonett
                          and Daniel G. A. Smith
                              RKS Reference
                        8 Threads,    667 MiB Core
         ---------------------------------------------------------

  ==> Geometry <==

    Molecular point group: c1
    Full point group: C1

    Geometry (in Angstrom), charge = 0, multiplicity = 1:

       Center              X                  Y                   Z               Mass       
    ------------   -----------------  -----------------  -----------------  -----------------
         O           -2.285653893075     0.428692501057    -0.484267237504    15.994914619570
         C            0.051732106925    -0.127623498943    -0.486713237504    12.000000000000
         C            1.304455106925    -0.660523498943     0.271893762496    12.000000000000
         C           -1.241522893075    -0.068408498943     0.356223762496    12.000000000000
         C            2.476125106925     0.340475501057     0.342636762496    12.000000000000
         H            0.242094106925     0.875720501057    -0.889418237504     1.007825032230
         H           -0.142122893075    -0.764009498943    -1.360536237504     1.007825032230
         H            1.655043106925    -1.580029498943    -0.215217237504     1.007825032230
         H            1.033668106925    -0.962287498943     1.291991762496     1.007825032230
         H           -1.489457893075    -1.066689498943     0.738913762496     1.007825032230
         H           -1.095706893075     0.583475501057     1.226654762496     1.007825032230
         H            2.821429106925     0.616566501057    -0.659525237504     1.007825032230
         H            3.325779106925    -0.093079498943     0.881128762496     1.007825032230
         H            2.181805106925     1.256740501057     0.865846762496     1.007825032230
         H           -3.105630893075     0.474807501057     0.042439762496     1.007825032230

  Running in c1 symmetry.

  Rotational constants: A =      0.51596  B =      0.06589  C =      0.06482 [cm^-1]
  Rotational constants: A =  15468.02637  B =   1975.19734  C =   1943.10497 [MHz]
  Nuclear repulsion =  183.537634043399947

  Charge       = 0
  Multiplicity = 1
  Electrons    = 42
  Nalpha       = 21
  Nbeta        = 21

  ==> Algorithm <==

  SCF Algorithm Type is DF.
  DIIS enabled.
  MOM disabled.
  Fractional occupation disabled.
  Guess Type is SAD.
  Energy threshold   = 1.00e-08
  Density threshold  = 1.00e-08
  Integral threshold = 0.00e+00

  ==> Primary Basis <==

  Basis Set: 6-311G
    Blend: 6-311G
    Number of shells: 65
    Number of basis function: 95
    Number of Cartesian functions: 95
    Spherical Harmonics?: true
    Max angular momentum: 1

  ==> DFT Potential <==

   => Composite Functional: WB97X-D <= 

    wB97X-D Hyb-GGA Exchange-Correlation Functional

    J.-D. Chai and M. Head-Gordon, Phys. Chem. Chem. Phys. 10, 6615 (2008)

    Deriv               =              1
    GGA                 =           TRUE
    Meta                =          FALSE

    Exchange Hybrid     =           TRUE
    MP2 Hybrid          =          FALSE

   => Exchange-Correlation Functionals <=

    1.0000   wB97D range-separated functional

   => Exact (HF) Exchange <=

    0.7780            HF,LR [omega = 0.2000]
    0.2220               HF 

   => Molecular Quadrature <=

    Radial Scheme          =       TREUTLER
    Pruning Scheme         =           FLAT
    Nuclear Scheme         =       TREUTLER

    BS radius alpha        =              1
    Pruning alpha          =              1
    Radial Points          =             75
    Spherical Points       =            302
    Total Points           =         336141
    Total Blocks           =           2555
    Max Points             =            256
    Max Functions          =             89

   => WB97X-D: Empirical Dispersion <=

    Chai and Head-Gordon Dispersion Correction
    Chai, J.-D.; Head-Gordon, M. (2010), J. Chem. Phys., 132: 6615-6620

        s6 =       1.000000

   => Loading Basis Set <=

    Name: (6-311G AUX)
    Role: JKFIT
    Keyword: DF_BASIS_SCF
    atoms 1    entry O          line   229 file /home/daniele/anaconda3/envs/poltype/share/psi4/basis/cc-pvtz-jkfit.gbs 
    atoms 2-5  entry C          line   125 file /home/daniele/anaconda3/envs/poltype/share/psi4/basis/cc-pvtz-jkfit.gbs 
    atoms 6-15 entry H          line    51 file /home/daniele/anaconda3/envs/poltype/share/psi4/basis/cc-pvtz-jkfit.gbs 

  ==> Pre-Iterations <==

   -------------------------------------------------------
    Irrep   Nso     Nmo     Nalpha   Nbeta   Ndocc  Nsocc
   -------------------------------------------------------
     A         95      95       0       0       0       0
   -------------------------------------------------------
    Total      95      95      21      21      21       0
   -------------------------------------------------------

  ==> Integral Setup <==

  ==> DiskDFJK: Density-Fitted J/K Matrices <==

    J tasked:                  Yes
    K tasked:                  Yes
    wK tasked:                 Yes
    Omega:               2.000E-01
    OpenMP threads:              8
    Integrals threads:           8
    Memory [MiB]:               34
    Algorithm:                Disk
    Integral Cache:           NONE
    Schwarz Cutoff:          1E-12
    Fitting Condition:       1E-10

   => Auxiliary Basis Set <=

  Basis Set: (6-311G AUX)
    Blend: CC-PVTZ-JKFIT
    Number of shells: 225
    Number of basis function: 695
    Number of Cartesian functions: 830
    Spherical Harmonics?: true
    Max angular momentum: 4

  Cached 100.0% of DFT collocation blocks in 0.665 [GiB].

  Minimum eigenvalue in the overlap matrix is 2.9188535022E-03.
  Using Symmetric Orthogonalization.

  SCF Guess: Superposition of Atomic Densities via on-the-fly atomic UHF.

  ==> Iterations <==

                           Total Energy        Delta E     RMS |[F,P]|

   @DF-RKS iter SAD:  -232.82952739871976   -2.32830e+02   0.00000e+00 
   @DF-RKS iter   1:  -233.27834819092612   -4.48821e-01   8.21922e-03 DIIS
   @DF-RKS iter   2:  -233.37577904524764   -9.74309e-02   7.28851e-03 DIIS
   @DF-RKS iter   3:  -233.57385546652176   -1.98076e-01   8.33218e-04 DIIS
   @DF-RKS iter   4:  -233.57595093786676   -2.09547e-03   3.31435e-04 DIIS
   @DF-RKS iter   5:  -233.57639085406637   -4.39916e-04   3.15232e-05 DIIS
   @DF-RKS iter   6:  -233.57639690933911   -6.05527e-06   1.42652e-05 DIIS
   @DF-RKS iter   7:  -233.57639783360048   -9.24261e-07   2.23100e-06 DIIS
   @DF-RKS iter   8:  -233.57639787226901   -3.86685e-08   3.64579e-07 DIIS
   @DF-RKS iter   9:  -233.57639787360569   -1.33667e-09   9.05097e-08 DIIS
   @DF-RKS iter  10:  -233.57639787367103   -6.53415e-11   4.02342e-08 DIIS
   @DF-RKS iter  11:  -233.57639787368052   -9.49285e-12   6.76988e-09 DIIS
  Energy and wave function converged.


  ==> Post-Iterations <==

    Orbital Energies [Eh]
    ---------------------

    Doubly Occupied:                                                      

       1A    -19.238698     2A    -10.331118     3A    -10.283411  
       4A    -10.277595     5A    -10.271260     6A     -1.126111  
       7A     -0.890129     8A     -0.818291     9A     -0.728586  
      10A     -0.676214    11A     -0.598138    12A     -0.561759  
      13A     -0.534534    14A     -0.508548    15A     -0.477942  
      16A     -0.465785    17A     -0.427417    18A     -0.417589  
      19A     -0.407178    20A     -0.398207    21A     -0.351897  

    Virtual:                                                              

      22A      0.118268    23A      0.122917    24A      0.154105  
      25A      0.157987    26A      0.170783    27A      0.200089  
      28A      0.202737    29A      0.207070    30A      0.214647  
      31A      0.235139    32A      0.280753    33A      0.295903  
      34A      0.307199    35A      0.326704    36A      0.384963  
      37A      0.408395    38A      0.414721    39A      0.442196  
      40A      0.463269    41A      0.475598    42A      0.502644  
      43A      0.541810    44A      0.603718    45A      0.616086  
      46A      0.620772    47A      0.643043    48A      0.649900  
      49A      0.664656    50A      0.678873    51A      0.684632  
      52A      0.688994    53A      0.699319    54A      0.707213  
      55A      0.720087    56A      0.734076    57A      0.752953  
      58A      0.851877    59A      0.917138    60A      0.971539  
      61A      1.003174    62A      1.101064    63A      1.153283  
      64A      1.216360    65A      1.597310    66A      2.265760  
      67A      2.327539    68A      2.341939    69A      2.349979  
      70A      2.354331    71A      2.363111    72A      2.373495  
      73A      2.410261    74A      2.414261    75A      2.427465  
      76A      2.848328    77A      2.887839    78A      2.914411  
      79A      2.918842    80A      2.961311    81A      2.979851  
      82A      2.982172    83A      3.006489    84A      3.100687  
      85A      3.183440    86A      3.219717    87A      3.285761  
      88A      4.953385    89A      5.013065    90A      5.171991  
      91A     23.432209    92A     23.527833    93A     23.665219  
      94A     23.700790    95A     49.964169  

    Final Occupation by Irrep:
              A 
    DOCC [    21 ]

  @DF-RKS Final Energy:  -233.57639787368052

   => Energetics <=

    Nuclear Repulsion Energy =            183.5376340433999474
    One-Electron Energy =                -678.9469402963972016
    Two-Electron Energy =                 285.0567054557906772
    DFT Exchange-Correlation Energy =     -23.2169750872911500
    Empirical Dispersion Energy =          -0.0068219891828717
    VV10 Nonlocal Energy =                  0.0000000000000000
    Total Energy =                       -233.5763978736805768

Computation Completed


Properties will be evaluated at   0.000000,   0.000000,   0.000000 [a0]

Properties computed using the SCF density matrix

  Nuclear Dipole Moment: [e a0]
     X:     5.0766      Y:    -0.6155      Z:     1.7998

  Electronic Dipole Moment: [e a0]
     X:    -5.1499      Y:     0.4076      Z:    -1.0751

  Dipole Moment: [e a0]
     X:    -0.0734      Y:    -0.2079      Z:     0.7246     Total:     0.7574

  Dipole Moment: [D]
     X:    -0.1864      Y:    -0.5285      Z:     1.8418     Total:     1.9252


*** tstop() called on daniele-Precision-5750 at Thu May 27 11:09:13 2021
Module time:
	user time   =      29.84 seconds =       0.50 minutes
	system time =       0.73 seconds =       0.01 minutes
	total time  =          4 seconds =       0.07 minutes
Total time:
	user time   =      29.84 seconds =       0.50 minutes
	system time =       0.73 seconds =       0.01 minutes
	total time  =          4 seconds =       0.07 minutes

*** tstart() called on daniele-Precision-5750
*** at Thu May 27 11:09:13 2021


         ------------------------------------------------------------
                                   SCF GRAD                          
                          Rob Parrish, Justin Turney,                
                       Andy Simmonett, and Alex Sokolov              
         ------------------------------------------------------------

  ==> Geometry <==

    Molecular point group: c1
    Full point group: C1

    Geometry (in Angstrom), charge = 0, multiplicity = 1:

       Center              X                  Y                   Z               Mass       
    ------------   -----------------  -----------------  -----------------  -----------------
         O           -2.285653893075     0.428692501057    -0.484267237504    15.994914619570
         C            0.051732106925    -0.127623498943    -0.486713237504    12.000000000000
         C            1.304455106925    -0.660523498943     0.271893762496    12.000000000000
         C           -1.241522893075    -0.068408498943     0.356223762496    12.000000000000
         C            2.476125106925     0.340475501057     0.342636762496    12.000000000000
         H            0.242094106925     0.875720501057    -0.889418237504     1.007825032230
         H           -0.142122893075    -0.764009498943    -1.360536237504     1.007825032230
         H            1.655043106925    -1.580029498943    -0.215217237504     1.007825032230
         H            1.033668106925    -0.962287498943     1.291991762496     1.007825032230
         H           -1.489457893075    -1.066689498943     0.738913762496     1.007825032230
         H           -1.095706893075     0.583475501057     1.226654762496     1.007825032230
         H            2.821429106925     0.616566501057    -0.659525237504     1.007825032230
         H            3.325779106925    -0.093079498943     0.881128762496     1.007825032230
         H            2.181805106925     1.256740501057     0.865846762496     1.007825032230
         H           -3.105630893075     0.474807501057     0.042439762496     1.007825032230

  Nuclear repulsion =  183.537634043399947

  ==> Basis Set <==

  Basis Set: 6-311G
    Blend: 6-311G
    Number of shells: 65
    Number of basis function: 95
    Number of Cartesian functions: 95
    Spherical Harmonics?: true
    Max angular momentum: 1

  ==> DFJKGrad: Density-Fitted SCF Gradients <==

    Gradient:                    1
    J tasked:                  Yes
    K tasked:                  Yes
    wK tasked:                 Yes
    Omega:               2.000E-01
    OpenMP threads:              8
    Integrals threads:           8
    Memory [MiB]:              500
    Schwarz Cutoff:          0E+00
    Fitting Condition:       1E-10

   => Auxiliary Basis Set <=

  Basis Set: (6-311G AUX)
    Blend: CC-PVTZ-JKFIT
    Number of shells: 225
    Number of basis function: 695
    Number of Cartesian functions: 830
    Spherical Harmonics?: true
    Max angular momentum: 4

  ==> DFT Potential <==

   => Composite Functional: WB97X-D <= 

    wB97X-D Hyb-GGA Exchange-Correlation Functional

    J.-D. Chai and M. Head-Gordon, Phys. Chem. Chem. Phys. 10, 6615 (2008)

    Deriv               =              1
    GGA                 =           TRUE
    Meta                =          FALSE

    Exchange Hybrid     =           TRUE
    MP2 Hybrid          =          FALSE

   => Exchange-Correlation Functionals <=

    1.0000   wB97D range-separated functional

   => Exact (HF) Exchange <=

    0.7780            HF,LR [omega = 0.2000]
    0.2220               HF 

   => Molecular Quadrature <=

    Radial Scheme          =       TREUTLER
    Pruning Scheme         =           FLAT
    Nuclear Scheme         =       TREUTLER

    BS radius alpha        =              1
    Pruning alpha          =              1
    Radial Points          =             75
    Spherical Points       =            302
    Total Points           =         336141
    Total Blocks           =           2555
    Max Points             =            256
    Max Functions          =             89


  -Total Gradient:
     Atom            X                  Y                   Z
    ------   -----------------  -----------------  -----------------
       1        0.014303085221    -0.002796084784    -0.002724867127
       2        0.003361359177     0.001571553712    -0.000835395460
       3        0.001434032038    -0.000441178588     0.000935104451
       4       -0.021635711573     0.005340918273    -0.000873543019
       5        0.002882981718     0.002165491317    -0.000579810761
       6        0.000695353528     0.001867641411    -0.003130869334
       7        0.001809728030    -0.002451640279    -0.003531669079
       8        0.000761713367    -0.002890975602    -0.001261885688
       9        0.000695452031    -0.001800850868     0.000824034123
      10       -0.001515786801     0.001138557157     0.001540120854
      11       -0.002187553908    -0.001223320046     0.000599490387
      12        0.001565163903     0.000364804427    -0.001711476429
      13        0.001598220675    -0.000890432386     0.001090104844
      14        0.000145426253     0.001361070705     0.001517860726
      15       -0.003803010101    -0.001441523937     0.008197022605


*** tstop() called on daniele-Precision-5750 at Thu May 27 11:09:14 2021
Module time:
	user time   =      12.72 seconds =       0.21 minutes
	system time =       0.14 seconds =       0.00 minutes
	total time  =          1 seconds =       0.02 minutes
Total time:
	user time   =      42.57 seconds =       0.71 minutes
	system time =       0.87 seconds =       0.01 minutes
	total time  =          5 seconds =       0.08 minutes

			-----------------------------------------
			 OPTKING 2.0: for geometry optimizations 
			  - R.A. King,  Bethel University        
			-----------------------------------------
	At level 1: Red. Int., RFO, no backsteps, dynamic trust

	Internal coordinates to be generated automatically.
	Detected frag 1 with atoms:  1 2 3 4 5 6 7 8 9 10 11 12 13 14 15
	---Fragment 1 Bond Connectivity---
	 1 : 4 15
	 2 : 3 4 6 7
	 3 : 2 5 8 9
	 4 : 1 2 10 11
	 5 : 3 12 13 14
	 6 : 2
	 7 : 2
	 8 : 3
	 9 : 3
	 10 : 4
	 11 : 4
	 12 : 5
	 13 : 5
	 14 : 5
	 15 : 1

	Assuming in current code that numbering for constraints corresponds to unified fragment.
	Frozen dihedral atom list: 
	     4     2     3     5
	     2     4     1    15
	     3     2     4     1
	    12     5     3     2
	---Fragment 1 Geometry and Gradient---
	 O          -4.3192598755        0.8101114190       -0.9151324504
	 C           0.0977595140       -0.2411734602       -0.9197547205
	 C           2.4650628950       -1.2482085124        0.5138047463
	 C          -2.3461382464       -0.1292733277        0.6731653505
	 C           4.6791983045        0.6434054494        0.6474896416
	 H           0.4574915587        1.6548719094       -1.6807568799
	 H          -0.2685733441       -1.4437687103       -2.5710408726
	 H           3.1275781979       -2.9858230231       -0.4067016364
	 H           1.9533496267       -1.8184598270        2.4415105875
	 H          -2.8146674933       -2.0157510139        1.3963446414
	 H          -2.0705859417        1.1026088979        2.3180415516
	 H           5.3317282945        1.1651418251       -1.2463220717
	 H           6.2848116659       -0.1758947609        1.6650920424
	 H           4.1230141112        2.3748953578        1.6362132477
	 H          -5.8687918347        0.8972561393        0.0801995279
	             0.0143030852       -0.0027960848       -0.0027248671
	             0.0033613592        0.0015715537       -0.0008353955
	             0.0014340320       -0.0004411786        0.0009351045
	            -0.0216357116        0.0053409183       -0.0008735430
	             0.0028829817        0.0021654913       -0.0005798108
	             0.0006953535        0.0018676414       -0.0031308693
	             0.0018097280       -0.0024516403       -0.0035316691
	             0.0007617134       -0.0028909756       -0.0012618857
	             0.0006954520       -0.0018008509        0.0008240341
	            -0.0015157868        0.0011385572        0.0015401209
	            -0.0021875539       -0.0012233200        0.0005994904
	             0.0015651639        0.0003648044       -0.0017114764
	             0.0015982207       -0.0008904324        0.0010901048
	             0.0001454263        0.0013610707        0.0015178607
	            -0.0038030101       -0.0014415239        0.0081970226

	Previous optimization step data not found.  Starting new optimization.

	---Fragment 1 Intrafragment Coordinates---
	 - Coordinate -           - BOHR/RAD -       - ANG/DEG -
	 R(1,4)           =         2.701544	       1.429596
	 R(1,15)          =         1.843727	       0.975658
	 R(2,3)           =         2.945053	       1.558455
	 R(2,4)           =         2.919341	       1.544849
	 R(2,6)           =         2.074493	       1.097774
	 R(2,7)           =         2.075375	       1.098241
	 R(3,5)           =         2.915214	       1.542665
	 R(3,8)           =         2.074985	       1.098035
	 R(3,9)           =         2.074388	       1.097719
	 R(4,10)          =         2.073959	       1.097492
	 R(4,11)          =         2.073422	       1.097208
	 R(5,12)          =         2.069910	       1.095349
	 R(5,13)          =         2.069967	       1.095379
	 R(5,14)          =         2.070018	       1.095406
	 B(1,4,2)         =         1.879635	     107.695171
	 B(1,4,10)        =         1.935097	     110.872884
	 B(1,4,11)        =         1.935722	     110.908678
	 B(2,3,5)         =         1.994300	     114.264962
	 B(2,3,8)         =         1.903982	     109.090113
	 B(2,3,9)         =         1.926297	     110.368712
	 B(2,4,10)        =         1.922520	     110.152282
	 B(2,4,11)        =         1.922382	     110.144366
	 B(3,2,4)         =         2.004702	     114.860960
	 B(3,2,6)         =         1.930187	     110.591563
	 B(3,2,7)         =         1.908208	     109.332272
	 B(3,5,12)        =         1.940169	     111.163482
	 B(3,5,13)        =         1.933546	     110.784035
	 B(3,5,14)        =         1.939701	     111.136687
	 B(4,1,15)        =         1.889013	     108.232474
	 B(4,2,6)         =         1.886300	     108.077037
	 B(4,2,7)         =         1.884506	     107.974226
	 B(5,3,8)         =         1.897812	     108.736595
	 B(5,3,9)         =         1.899820	     108.851653
	 B(6,2,7)         =         1.842472	     105.565883
	 B(8,3,9)         =         1.834656	     105.118069
	 B(10,4,11)       =         1.869017	     107.086786
	 B(12,5,13)       =         1.880754	     107.759268
	 B(12,5,14)       =         1.886905	     108.111694
	 B(13,5,14)       =         1.880395	     107.738716
	*D(1,4,2,3)       =        -3.134799	    -179.610746
	 D(1,4,2,6)       =         0.984418	      56.402998
	 D(1,4,2,7)       =        -1.000796	     -57.341363
	*D(2,3,5,12)      =        -1.045257	     -59.888824
	 D(2,3,5,13)      =        -3.135941	    -179.676186
	 D(2,3,5,14)      =         1.057320	      60.579957
	*D(2,4,1,15)      =        -3.135256	    -179.636913
	 D(3,2,4,10)      =        -1.022453	     -58.582257
	 D(3,2,4,11)      =         1.035361	      59.321819
	*D(4,2,3,5)       =        -2.093786	    -119.965075
	 D(4,2,3,8)       =         2.061346	     118.106414
	 D(4,2,3,9)       =         0.053919	       3.089334
	 D(5,3,2,6)       =         0.046752	       2.678674
	 D(5,3,2,7)       =         2.068251	     118.502047
	 D(6,2,3,8)       =        -2.081302	    -119.249838
	 D(6,2,3,9)       =         2.194456	     125.733082
	 D(6,2,4,10)      =         3.096764	     177.431488
	 D(6,2,4,11)      =        -1.128607	     -64.664437
	 D(7,2,3,8)       =        -0.059803	      -3.426465
	 D(7,2,3,9)       =        -2.067230	    -118.443545
	 D(7,2,4,10)      =         1.111550	      63.687127
	 D(7,2,4,11)      =        -3.113821	    -178.408798
	 D(8,3,5,12)      =         1.086177	      62.233343
	 D(8,3,5,13)      =        -1.004507	     -57.554019
	 D(8,3,5,14)      =        -3.094432	    -177.297876
	 D(9,3,5,12)      =         3.075951	     176.238983
	 D(9,3,5,13)      =         0.985267	      56.451622
	 D(9,3,5,14)      =        -1.104658	     -63.292236
	 D(10,4,1,15)     =         1.043477	      59.786821
	 D(11,4,1,15)     =        -1.030600	     -59.049007

	Current energy   :      -233.5763978737

	Generating empirical Hessian (Schlegel '84) for each fragment.
	Taking RFO optimization step.
	Going to follow RFO solution 1.
	Using RFO vector 1.
	Norm of target step-size    0.15846
	Projected energy change by RFO approximation:        -0.0050710951

	Back-transformation to cartesian coordinates...
	Successfully converged to displaced geometry.

	Back-transformation to cartesian coordinates to adjust frozen coordinates...
	Successfully converged to displaced geometry.

	--- Internal Coordinate Step in ANG or DEG, aJ/ANG or AJ/DEG ---
	 ---------------------------------------------------------------------------
	   Coordinate                Previous        Force       Change         New 
	   ----------                --------       ------       ------       ------
	    1 R(1,4)          =      1.429596     0.101632     0.015768     1.445364
	    2 R(1,15)         =      0.975658    -0.062239    -0.007602     0.968057
	    3 R(2,3)          =      1.558455    -0.068771    -0.016182     1.542273
	    4 R(2,4)          =      1.544849    -0.133095    -0.030052     1.514796
	    5 R(2,6)          =      1.097774    -0.024538    -0.004597     1.093177
	    6 R(2,7)          =      1.098241    -0.032242    -0.006050     1.092191
	    7 R(3,5)          =      1.542665    -0.054986    -0.012333     1.530332
	    8 R(3,8)          =      1.098035    -0.026459    -0.004962     1.093073
	    9 R(3,9)          =      1.097719    -0.008980    -0.001682     1.096037
	   10 R(4,10)         =      1.097492     0.001344     0.000252     1.097743
	   11 R(4,11)         =      1.097208     0.004465     0.000835     1.098043
	   12 R(5,12)         =      1.095349    -0.017772    -0.003304     1.092046
	   13 R(5,13)         =      1.095379    -0.017413    -0.003237     1.092142
	   14 R(5,14)         =      1.095406    -0.015121    -0.002811     1.092595
	   15 B(1,4,2)        =    107.695171    -0.000054    -0.345905   107.349266
	   16 B(1,4,10)       =    110.872884     0.000067     0.443907   111.316791
	   17 B(1,4,11)       =    110.908678     0.000123     0.665572   111.574250
	   18 B(2,3,5)        =    114.264962    -0.000303    -1.236752   113.028210
	   19 B(2,3,8)        =    109.090113     0.000121     0.662521   109.752634
	   20 B(2,3,9)        =    110.368712     0.000027    -0.454692   109.914020
	   21 B(2,4,10)       =    110.152282    -0.000131    -0.943291   109.208991
	   22 B(2,4,11)       =    110.144366    -0.000139    -0.902563   109.241802
	   23 B(3,2,4)        =    114.860960    -0.000514    -2.072616   112.788344
	   24 B(3,2,6)        =    110.591563     0.000132    -0.005842   110.585721
	   25 B(3,2,7)        =    109.332272     0.000281     1.733292   111.065564
	   26 B(3,5,12)       =    111.163482    -0.000071    -0.432010   110.731472
	   27 B(3,5,13)       =    110.784035     0.000045     0.393704   111.177739
	   28 B(3,5,14)       =    111.136687    -0.000047    -0.323147   110.813539
	   29 B(4,1,15)       =    108.232474     0.000723     3.327269   111.559743
	   30 B(4,2,6)        =    108.077037     0.000136    -0.307894   107.769142
	   31 B(4,2,7)        =    107.974226     0.000025    -0.262452   107.711773
	   32 B(5,3,8)        =    108.736595     0.000077     0.414883   109.151479
	   33 B(5,3,9)        =    108.851653     0.000109    -0.000314   108.851340
	   34 B(6,2,7)        =    105.565883    -0.000026     1.091740   106.657622
	   35 B(8,3,9)        =    105.118069    -0.000006     0.770517   105.888585
	   36 B(10,4,11)      =    107.086786     0.000130     1.027535   108.114321
	   37 B(12,5,13)      =    107.759268     0.000037     0.326699   108.085967
	   38 B(12,5,14)      =    108.111694     0.000010    -0.295059   107.816635
	   39 B(13,5,14)      =    107.738716     0.000031     0.349492   108.088209
	   40 *D(1,4,2,3)     =   -179.610746     0.000000    -0.000000  -179.610746
	   41 D(1,4,2,6)      =     56.402998     0.000019     1.634184    58.037182
	   42 D(1,4,2,7)      =    -57.341363     0.000008     0.648825   -56.692537
	   43 *D(2,3,5,12)    =    -59.888824     0.000000    -0.000000   -59.888824
	   44 D(2,3,5,13)     =   -179.676186    -0.000007    -0.385979  -180.062165
	   45 D(2,3,5,14)     =     60.579957    -0.000015    -0.873199    59.706758
	   46 *D(2,4,1,15)    =   -179.636913     0.000000    -0.000000  -179.636913
	   47 D(3,2,4,10)     =    -58.582257    -0.000007    -0.221173   -58.803430
	   48 D(3,2,4,11)     =     59.321819    -0.000008    -0.068801    59.253019
	   49 *D(4,2,3,5)     =   -119.965075    -0.000000    -0.000000  -119.965075
	   50 D(4,2,3,8)      =    118.106414     0.000004    -0.171049   117.935365
	   51 D(4,2,3,9)      =      3.089334    -0.000013    -1.224055     1.865278
	   52 D(5,3,2,6)      =      2.678674    -0.000022    -1.887043     0.791630
	   53 D(5,3,2,7)      =    118.502047     0.000026     0.505945   119.007991
	   54 D(6,2,3,8)      =   -119.249838    -0.000018    -2.058092  -121.307930
	   55 D(6,2,3,9)      =    125.733082    -0.000036    -3.111099   122.621983
	   56 D(6,2,4,10)     =    177.431488     0.000013     1.413010   178.844498
	   57 D(6,2,4,11)     =    -64.664437     0.000011     1.565383   -63.099054
	   58 D(7,2,3,8)      =     -3.426465     0.000030     0.334896    -3.091569
	   59 D(7,2,3,9)      =   -118.443545     0.000013    -0.718111  -119.161656
	   60 D(7,2,4,10)     =     63.687127     0.000001     0.427652    64.114779
	   61 D(7,2,4,11)     =   -178.408798     0.000000     0.580024  -177.828773
	   62 D(8,3,5,12)     =     62.233343     0.000001     0.313663    62.547006
	   63 D(8,3,5,13)     =    -57.554019    -0.000006    -0.072316   -57.626335
	   64 D(8,3,5,14)     =   -177.297876    -0.000014    -0.559535  -177.857412
	   65 D(9,3,5,12)     =    176.238983     0.000022     1.446479   177.685462
	   66 D(9,3,5,13)     =     56.451622     0.000015     1.060500    57.512121
	   67 D(9,3,5,14)     =    -63.292236     0.000007     0.573280   -62.718956
	   68 D(10,4,1,15)    =     59.786821     0.000035     1.109414    60.896235
	   69 D(11,4,1,15)    =    -59.049007    -0.000030    -0.931131   -59.980138
	 ---------------------------------------------------------------------------
	Successfully symmetrized geometry.

  ==> Convergence Check <==

  Measures of convergence in internal coordinates in au.
  Criteria marked as inactive (o), active & met (*), and active & unmet ( ).
  --------------------------------------------------------------------------------------------- ~
   Step     Total Energy     Delta E     MAX Force     RMS Force      MAX Disp      RMS Disp    ~
  --------------------------------------------------------------------------------------------- ~
    Convergence Criteria             o    2.50e-03 *    1.70e-03 *    1.00e-02 *    6.70e-03 *  ~
  --------------------------------------------------------------------------------------------- ~
      1    -233.57639787   -2.34e+02 o    1.62e-02      3.52e-03      5.81e-02      1.91e-02    ~
  ---------------------------------------------------------------------------------------------

	Writing optimization data to binary file.
	Structure for next step:
	Cartesian Geometry (in Angstrom)
	    O    -2.2471898400   0.4423247479  -0.5098212097
	    C     0.0688668597  -0.1279238259  -0.4979777152
	    C     1.2798207325  -0.6715685120   0.2872913162
	    C    -1.1939751102  -0.0708286034   0.3366350784
	    C     2.4363390223   0.3271197103   0.3709699490
	    H     0.2712399614   0.8812391330  -0.8663126769
	    H    -0.1397905045  -0.7451606549  -1.3745405220
	    H     1.6363157923  -1.5950620982  -0.1762601490
	    H     0.9735875022  -0.9447645684   1.3035993326
	    H    -1.4311000211  -1.0783554608   0.7022879794
	    H    -1.0236602655   0.5768566573   1.2068045156
	    H     2.7934236309   0.5895899866  -0.6271099236
	    H     3.2758019539  -0.0875357241   0.9332305516
	    H     2.1188443952   1.2482634036   0.8653939754
	    H    -3.0864885276   0.5096333278  -0.0321380720
			--------------------------
			 OPTKING Finished Execution 
			--------------------------

    Structure for next step:
    Molecular point group: c1
    Full point group: C1

    Geometry (in Angstrom), charge = 0, multiplicity = 1:

    O           -2.255011102050     0.443591249527    -0.506561906058
    C            0.061045606708    -0.126657326538    -0.494718411551
    C            1.271999484294    -0.670302014751     0.290550622971
    C           -1.201796368136    -0.069562103748     0.339894385331
    C            2.428517778644     0.328386211481     0.374229256142
    H            0.263418709258     0.882505636356    -0.863053374714
    H           -0.147611758251    -0.743894157927    -1.371281221750
    H            1.628494545531    -1.593795604548    -0.173000844053
    H            0.965766252772    -0.943498072234     1.306858643403
    H           -1.438921279956    -1.077088965128     0.705547287748
    H           -1.031481522764     0.578123159522     1.210063825985
    H            2.785602388686     0.590856488864    -0.623850620445
    H            3.267980713565    -0.086269224507     0.936489860947
    H            2.111023150323     1.249529908364     0.868653284466
    H           -3.094309792962     0.510899829720    -0.028878766480

gradient() will perform analytic gradient computation.

*** tstart() called on daniele-Precision-5750
*** at Thu May 27 11:09:14 2021

   => Loading Basis Set <=

    Name: 6-311G
    Role: ORBITAL
    Keyword: BASIS
    atoms 1    entry O          line   126 file /home/daniele/anaconda3/envs/poltype/share/psi4/basis/6-311g.gbs 
    atoms 2-5  entry C          line    92 file /home/daniele/anaconda3/envs/poltype/share/psi4/basis/6-311g.gbs 
    atoms 6-15 entry H          line    21 file /home/daniele/anaconda3/envs/poltype/share/psi4/basis/6-311g.gbs 


         ---------------------------------------------------------
                                   SCF
               by Justin Turney, Rob Parrish, Andy Simmonett
                          and Daniel G. A. Smith
                              RKS Reference
                        8 Threads,    667 MiB Core
         ---------------------------------------------------------

  ==> Geometry <==

    Molecular point group: c1
    Full point group: C1

    Geometry (in Angstrom), charge = 0, multiplicity = 1:

       Center              X                  Y                   Z               Mass       
    ------------   -----------------  -----------------  -----------------  -----------------
         O           -2.255011102050     0.443591249527    -0.506561906058    15.994914619570
         C            0.061045606708    -0.126657326538    -0.494718411551    12.000000000000
         C            1.271999484294    -0.670302014751     0.290550622971    12.000000000000
         C           -1.201796368136    -0.069562103748     0.339894385331    12.000000000000
         C            2.428517778644     0.328386211481     0.374229256142    12.000000000000
         H            0.263418709258     0.882505636356    -0.863053374714     1.007825032230
         H           -0.147611758251    -0.743894157927    -1.371281221750     1.007825032230
         H            1.628494545531    -1.593795604548    -0.173000844053     1.007825032230
         H            0.965766252772    -0.943498072234     1.306858643403     1.007825032230
         H           -1.438921279956    -1.077088965128     0.705547287748     1.007825032230
         H           -1.031481522764     0.578123159522     1.210063825985     1.007825032230
         H            2.785602388686     0.590856488864    -0.623850620445     1.007825032230
         H            3.267980713565    -0.086269224507     0.936489860947     1.007825032230
         H            2.111023150323     1.249529908364     0.868653284466     1.007825032230
         H           -3.094309792962     0.510899829720    -0.028878766480     1.007825032230

  Running in c1 symmetry.

  Rotational constants: A =      0.51663  B =      0.06794  C =      0.06677 [cm^-1]
  Rotational constants: A =  15488.12604  B =   2036.93925  C =   2001.68538 [MHz]
  Nuclear repulsion =  185.175634656959204

  Charge       = 0
  Multiplicity = 1
  Electrons    = 42
  Nalpha       = 21
  Nbeta        = 21

  ==> Algorithm <==

  SCF Algorithm Type is DF.
  DIIS enabled.
  MOM disabled.
  Fractional occupation disabled.
  Guess Type is READ.
  Energy threshold   = 1.00e-08
  Density threshold  = 1.00e-08
  Integral threshold = 0.00e+00

  ==> Primary Basis <==

  Basis Set: 6-311G
    Blend: 6-311G
    Number of shells: 65
    Number of basis function: 95
    Number of Cartesian functions: 95
    Spherical Harmonics?: true
    Max angular momentum: 1

  ==> DFT Potential <==

   => Composite Functional: WB97X-D <= 

    wB97X-D Hyb-GGA Exchange-Correlation Functional

    J.-D. Chai and M. Head-Gordon, Phys. Chem. Chem. Phys. 10, 6615 (2008)

    Deriv               =              1
    GGA                 =           TRUE
    Meta                =          FALSE

    Exchange Hybrid     =           TRUE
    MP2 Hybrid          =          FALSE

   => Exchange-Correlation Functionals <=

    1.0000   wB97D range-separated functional

   => Exact (HF) Exchange <=

    0.7780            HF,LR [omega = 0.2000]
    0.2220               HF 

   => Molecular Quadrature <=

    Radial Scheme          =       TREUTLER
    Pruning Scheme         =           FLAT
    Nuclear Scheme         =       TREUTLER

    BS radius alpha        =              1
    Pruning alpha          =              1
    Radial Points          =             75
    Spherical Points       =            302
    Total Points           =         336129
    Total Blocks           =           2568
    Max Points             =            256
    Max Functions          =             89

   => WB97X-D: Empirical Dispersion <=

    Chai and Head-Gordon Dispersion Correction
    Chai, J.-D.; Head-Gordon, M. (2010), J. Chem. Phys., 132: 6615-6620

        s6 =       1.000000

   => Loading Basis Set <=

    Name: (6-311G AUX)
    Role: JKFIT
    Keyword: DF_BASIS_SCF
    atoms 1    entry O          line   229 file /home/daniele/anaconda3/envs/poltype/share/psi4/basis/cc-pvtz-jkfit.gbs 
    atoms 2-5  entry C          line   125 file /home/daniele/anaconda3/envs/poltype/share/psi4/basis/cc-pvtz-jkfit.gbs 
    atoms 6-15 entry H          line    51 file /home/daniele/anaconda3/envs/poltype/share/psi4/basis/cc-pvtz-jkfit.gbs 

   => Loading Basis Set <=

    Name: 6-311G
    Role: ORBITAL
    Keyword: BASIS
    atoms 1    entry O          line   126 file /home/daniele/anaconda3/envs/poltype/share/psi4/basis/6-311g.gbs 
    atoms 2-5  entry C          line    92 file /home/daniele/anaconda3/envs/poltype/share/psi4/basis/6-311g.gbs 
    atoms 6-15 entry H          line    21 file /home/daniele/anaconda3/envs/poltype/share/psi4/basis/6-311g.gbs 

  Reading orbitals from file 180, no projection.

  ==> Pre-Iterations <==

   -------------------------------------------------------
    Irrep   Nso     Nmo     Nalpha   Nbeta   Ndocc  Nsocc
   -------------------------------------------------------
     A         95      95       0       0       0       0
   -------------------------------------------------------
    Total      95      95      21      21      21       0
   -------------------------------------------------------

  ==> Integral Setup <==

  ==> DiskDFJK: Density-Fitted J/K Matrices <==

    J tasked:                  Yes
    K tasked:                  Yes
    wK tasked:                 Yes
    Omega:               2.000E-01
    OpenMP threads:              8
    Integrals threads:           8
    Memory [MiB]:               34
    Algorithm:                Disk
    Integral Cache:           NONE
    Schwarz Cutoff:          1E-12
    Fitting Condition:       1E-10

   => Auxiliary Basis Set <=

  Basis Set: (6-311G AUX)
    Blend: CC-PVTZ-JKFIT
    Number of shells: 225
    Number of basis function: 695
    Number of Cartesian functions: 830
    Spherical Harmonics?: true
    Max angular momentum: 4

  Cached 100.0% of DFT collocation blocks in 0.670 [GiB].

  Minimum eigenvalue in the overlap matrix is 2.6533881441E-03.
  Using Symmetric Orthogonalization.

  SCF Guess: Orbitals guess was supplied from a previous computation.

  ==> Iterations <==

                           Total Energy        Delta E     RMS |[F,P]|

   @DF-RKS iter   0:  -233.59284393626265   -2.33593e+02   8.86433e-04 
   @DF-RKS iter   1:  -233.57788314404618    1.49608e-02   1.19410e-04 DIIS
   @DF-RKS iter   2:  -233.57795245890293   -6.93149e-05   7.90824e-05 DIIS
   @DF-RKS iter   3:  -233.57797277152551   -2.03126e-05   2.77085e-05 DIIS
   @DF-RKS iter   4:  -233.57797564340055   -2.87188e-06   7.24124e-06 DIIS
   @DF-RKS iter   5:  -233.57797590324489   -2.59844e-07   2.10756e-06 DIIS
   @DF-RKS iter   6:  -233.57797592830147   -2.50566e-08   2.10708e-07 DIIS
   @DF-RKS iter   7:  -233.57797592879601   -4.94538e-10   1.03791e-07 DIIS
   @DF-RKS iter   8:  -233.57797592885527   -5.92593e-11   2.38915e-08 DIIS
   @DF-RKS iter   9:  -233.57797592885973   -4.46221e-12   3.86650e-09 DIIS
  Energy and wave function converged.


  ==> Post-Iterations <==

    Orbital Energies [Eh]
    ---------------------

    Doubly Occupied:                                                      

       1A    -19.235767     2A    -10.329834     3A    -10.280565  
       4A    -10.272633     5A    -10.269250     6A     -1.119224  
       7A     -0.898324     8A     -0.823185     9A     -0.727550  
      10A     -0.677004    11A     -0.598518    12A     -0.565882  
      13A     -0.536302    14A     -0.510364    15A     -0.477389  
      16A     -0.464642    17A     -0.424320    18A     -0.419182  
      19A     -0.407225    20A     -0.398844    21A     -0.352593  

    Virtual:                                                              

      22A      0.120983    23A      0.123657    24A      0.153700  
      25A      0.157475    26A      0.170577    27A      0.201668  
      28A      0.204823    29A      0.207934    30A      0.216827  
      31A      0.237548    32A      0.278401    33A      0.300080  
      34A      0.312712    35A      0.328642    36A      0.385710  
      37A      0.410849    38A      0.419466    39A      0.441662  
      40A      0.462075    41A      0.476499    42A      0.505224  
      43A      0.546307    44A      0.604224    45A      0.621845  
      46A      0.630615    47A      0.652380    48A      0.653963  
      49A      0.667486    50A      0.682599    51A      0.687420  
      52A      0.693707    53A      0.697378    54A      0.708805  
      55A      0.721530    56A      0.735853    57A      0.756133  
      58A      0.855438    59A      0.919500    60A      0.974337  
      61A      1.003362    62A      1.099968    63A      1.153828  
      64A      1.226216    65A      1.592028    66A      2.266301  
      67A      2.328946    68A      2.342371    69A      2.350222  
      70A      2.353542    71A      2.369134    72A      2.375459  
      73A      2.411846    74A      2.417460    75A      2.432257  
      76A      2.838219    77A      2.894442    78A      2.924427  
      79A      2.929141    80A      2.955691    81A      2.974259  
      82A      2.987556    83A      3.003176    84A      3.109594  
      85A      3.185577    86A      3.229331    87A      3.306944  
      88A      4.955754    89A      5.017705    90A      5.190458  
      91A     23.429264    92A     23.531025    93A     23.677984  
      94A     23.718139    95A     49.963098  

    Final Occupation by Irrep:
              A 
    DOCC [    21 ]

  @DF-RKS Final Energy:  -233.57797592885973

   => Energetics <=

    Nuclear Repulsion Energy =            185.1756346569592040
    One-Electron Energy =                -682.2142648133395824
    Two-Electron Energy =                 286.7076451751896116
    DFT Exchange-Correlation Energy =     -23.2400428201003137
    Empirical Dispersion Energy =          -0.0069481275686508
    VV10 Nonlocal Energy =                  0.0000000000000000
    Total Energy =                       -233.5779759288597006

Computation Completed


Properties will be evaluated at   0.000000,   0.000000,   0.000000 [a0]

Properties computed using the SCF density matrix

  Nuclear Dipole Moment: [e a0]
     X:     4.9671      Y:    -0.5909      Z:     1.8421

  Electronic Dipole Moment: [e a0]
     X:    -5.0500      Y:     0.3872      Z:    -1.1352

  Dipole Moment: [e a0]
     X:    -0.0829      Y:    -0.2037      Z:     0.7069     Total:     0.7403

  Dipole Moment: [D]
     X:    -0.2106      Y:    -0.5178      Z:     1.7968     Total:     1.8818


*** tstop() called on daniele-Precision-5750 at Thu May 27 11:09:18 2021
Module time:
	user time   =      24.30 seconds =       0.41 minutes
	system time =       0.38 seconds =       0.01 minutes
	total time  =          4 seconds =       0.07 minutes
Total time:
	user time   =      67.43 seconds =       1.12 minutes
	system time =       1.26 seconds =       0.02 minutes
	total time  =          9 seconds =       0.15 minutes

*** tstart() called on daniele-Precision-5750
*** at Thu May 27 11:09:18 2021


         ------------------------------------------------------------
                                   SCF GRAD                          
                          Rob Parrish, Justin Turney,                
                       Andy Simmonett, and Alex Sokolov              
         ------------------------------------------------------------

  ==> Geometry <==

    Molecular point group: c1
    Full point group: C1

    Geometry (in Angstrom), charge = 0, multiplicity = 1:

       Center              X                  Y                   Z               Mass       
    ------------   -----------------  -----------------  -----------------  -----------------
         O           -2.255011102050     0.443591249527    -0.506561906058    15.994914619570
         C            0.061045606708    -0.126657326538    -0.494718411551    12.000000000000
         C            1.271999484294    -0.670302014751     0.290550622971    12.000000000000
         C           -1.201796368136    -0.069562103748     0.339894385331    12.000000000000
         C            2.428517778644     0.328386211481     0.374229256142    12.000000000000
         H            0.263418709258     0.882505636356    -0.863053374714     1.007825032230
         H           -0.147611758251    -0.743894157927    -1.371281221750     1.007825032230
         H            1.628494545531    -1.593795604548    -0.173000844053     1.007825032230
         H            0.965766252772    -0.943498072234     1.306858643403     1.007825032230
         H           -1.438921279956    -1.077088965128     0.705547287748     1.007825032230
         H           -1.031481522764     0.578123159522     1.210063825985     1.007825032230
         H            2.785602388686     0.590856488864    -0.623850620445     1.007825032230
         H            3.267980713565    -0.086269224507     0.936489860947     1.007825032230
         H            2.111023150323     1.249529908364     0.868653284466     1.007825032230
         H           -3.094309792962     0.510899829720    -0.028878766480     1.007825032230

  Nuclear repulsion =  185.175634656959204

  ==> Basis Set <==

  Basis Set: 6-311G
    Blend: 6-311G
    Number of shells: 65
    Number of basis function: 95
    Number of Cartesian functions: 95
    Spherical Harmonics?: true
    Max angular momentum: 1

  ==> DFJKGrad: Density-Fitted SCF Gradients <==

    Gradient:                    1
    J tasked:                  Yes
    K tasked:                  Yes
    wK tasked:                 Yes
    Omega:               2.000E-01
    OpenMP threads:              8
    Integrals threads:           8
    Memory [MiB]:              500
    Schwarz Cutoff:          0E+00
    Fitting Condition:       1E-10

   => Auxiliary Basis Set <=

  Basis Set: (6-311G AUX)
    Blend: CC-PVTZ-JKFIT
    Number of shells: 225
    Number of basis function: 695
    Number of Cartesian functions: 830
    Spherical Harmonics?: true
    Max angular momentum: 4

  ==> DFT Potential <==

   => Composite Functional: WB97X-D <= 

    wB97X-D Hyb-GGA Exchange-Correlation Functional

    J.-D. Chai and M. Head-Gordon, Phys. Chem. Chem. Phys. 10, 6615 (2008)

    Deriv               =              1
    GGA                 =           TRUE
    Meta                =          FALSE

    Exchange Hybrid     =           TRUE
    MP2 Hybrid          =          FALSE

   => Exchange-Correlation Functionals <=

    1.0000   wB97D range-separated functional

   => Exact (HF) Exchange <=

    0.7780            HF,LR [omega = 0.2000]
    0.2220               HF 

   => Molecular Quadrature <=

    Radial Scheme          =       TREUTLER
    Pruning Scheme         =           FLAT
    Nuclear Scheme         =       TREUTLER

    BS radius alpha        =              1
    Pruning alpha          =              1
    Radial Points          =             75
    Spherical Points       =            302
    Total Points           =         336129
    Total Blocks           =           2568
    Max Points             =            256
    Max Functions          =             89


  -Total Gradient:
     Atom            X                  Y                   Z
    ------   -----------------  -----------------  -----------------
       1        0.001360082513    -0.000468472987    -0.001067447656
       2        0.000748407953    -0.000205183308     0.003040582766
       3       -0.000438545193     0.000668451476     0.000054547198
       4       -0.001158406792     0.001363566961    -0.001900144762
       5       -0.000644021244     0.000519593862    -0.000696724364
       6       -0.000458874027     0.000407205889     0.000336950438
       7       -0.000483158336    -0.000710659278     0.000109141581
       8        0.000075537046    -0.000007226863    -0.000628759052
       9       -0.000061381212     0.000108441391     0.000000701789
      10        0.001689640841    -0.000753709740     0.000137863015
      11        0.001739221806    -0.000400400956     0.000421312647
      12       -0.000132440593    -0.000210826125     0.000015982719
      13       -0.000183935369    -0.000649046092     0.000156141399
      14       -0.000048090032    -0.000218513244     0.000083927791
      15       -0.001900504676     0.000465547852     0.000005646211


*** tstop() called on daniele-Precision-5750 at Thu May 27 11:09:19 2021
Module time:
	user time   =      14.04 seconds =       0.23 minutes
	system time =       0.16 seconds =       0.00 minutes
	total time  =          1 seconds =       0.02 minutes
Total time:
	user time   =      81.48 seconds =       1.36 minutes
	system time =       1.42 seconds =       0.02 minutes
	total time  =         10 seconds =       0.17 minutes

			-----------------------------------------
			 OPTKING 2.0: for geometry optimizations 
			  - R.A. King,  Bethel University        
			-----------------------------------------
	At level 1: Red. Int., RFO, no backsteps, dynamic trust

	Previous internal coordinate definitions found.
	---Fragment 1 Geometry and Gradient---
	 O          -4.2613533927        0.8382659733       -0.9572632680
	 C           0.1153594778       -0.2393476589       -0.9348823071
	 C           2.4037306570       -1.2666872292        0.5490611030
	 C          -2.2710659943       -0.1314533248        0.6423072999
	 C           4.5892334924        0.6205600031        0.7071908022
	 H           0.4977892168        1.6676939569       -1.6309345099
	 H          -0.2789457960       -1.4057562248       -2.5913459501
	 H           3.0774086879       -3.0118371926       -0.3269242147
	 H           1.8250337189       -1.7829529564        2.4696049207
	 H          -2.7191671352       -2.0354031568        1.3332911424
	 H          -1.9492175815        1.0924944383        2.2866892254
	 H           5.2640256090        1.1165569434       -1.1789068158
	 H           6.1755885319       -0.1630252074        1.7697093565
	 H           3.9892555986        2.3612693124        1.6415168056
	 H          -5.8473980560        0.9654607557       -0.0545729595
	             0.0013600825       -0.0004684730       -0.0010674477
	             0.0007484080       -0.0002051833        0.0030405828
	            -0.0004385452        0.0006684515        0.0000545472
	            -0.0011584068        0.0013635670       -0.0019001448
	            -0.0006440212        0.0005195939       -0.0006967244
	            -0.0004588740        0.0004072059        0.0003369504
	            -0.0004831583       -0.0007106593        0.0001091416
	             0.0000755370       -0.0000072269       -0.0006287591
	            -0.0000613812        0.0001084414        0.0000007018
	             0.0016896408       -0.0007537097        0.0001378630
	             0.0017392218       -0.0004004010        0.0004213126
	            -0.0001324406       -0.0002108261        0.0000159827
	            -0.0001839354       -0.0006490461        0.0001561414
	            -0.0000480900       -0.0002185132        0.0000839278
	            -0.0019005047        0.0004655479        0.0000056462

	---Fragment 1 Intrafragment Coordinates---
	 - Coordinate -           - BOHR/RAD -       - ANG/DEG -
	 R(1,4)           =         2.731341	       1.445364
	 R(1,15)          =         1.829362	       0.968057
	 R(2,3)           =         2.914474	       1.542273
	 R(2,4)           =         2.862550	       1.514796
	 R(2,6)           =         2.065805	       1.093177
	 R(2,7)           =         2.063942	       1.092191
	 R(3,5)           =         2.891908	       1.530332
	 R(3,8)           =         2.065609	       1.093073
	 R(3,9)           =         2.071210	       1.096037
	 R(4,10)          =         2.074434	       1.097743
	 R(4,11)          =         2.075000	       1.098043
	 R(5,12)          =         2.063667	       1.092046
	 R(5,13)          =         2.063849	       1.092142
	 R(5,14)          =         2.064705	       1.092595
	 B(1,4,2)         =         1.873598	     107.349266
	 B(1,4,10)        =         1.942845	     111.316791
	 B(1,4,11)        =         1.947338	     111.574250
	 B(2,3,5)         =         1.972714	     113.028210
	 B(2,3,8)         =         1.915545	     109.752634
	 B(2,3,9)         =         1.918362	     109.914020
	 B(2,4,10)        =         1.906056	     109.208991
	 B(2,4,11)        =         1.906629	     109.241802
	 B(3,2,4)         =         1.968528	     112.788344
	 B(3,2,6)         =         1.930085	     110.585721
	 B(3,2,7)         =         1.938460	     111.065564
	 B(3,5,12)        =         1.932629	     110.731472
	 B(3,5,13)        =         1.940418	     111.177739
	 B(3,5,14)        =         1.934061	     110.813539
	 B(4,1,15)        =         1.947085	     111.559743
	 B(4,2,6)         =         1.880926	     107.769142
	 B(4,2,7)         =         1.879925	     107.711773
	 B(5,3,8)         =         1.905053	     109.151479
	 B(5,3,9)         =         1.899814	     108.851340
	 B(6,2,7)         =         1.861527	     106.657622
	 B(8,3,9)         =         1.848104	     105.888585
	 B(10,4,11)       =         1.886951	     108.114321
	 B(12,5,13)       =         1.886456	     108.085967
	 B(12,5,14)       =         1.881755	     107.816635
	 B(13,5,14)       =         1.886495	     108.088209
	*D(1,4,2,3)       =        -3.134799	    -179.610746
	 D(1,4,2,6)       =         1.012940	      58.037182
	 D(1,4,2,7)       =        -0.989471	     -56.692537
	*D(2,3,5,12)      =        -1.045257	     -59.888824
	 D(2,3,5,13)      =         3.140508	     179.937835
	 D(2,3,5,14)      =         1.042080	      59.706758
	*D(2,4,1,15)      =        -3.135256	    -179.636913
	 D(3,2,4,10)      =        -1.026313	     -58.803430
	 D(3,2,4,11)      =         1.034160	      59.253019
	*D(4,2,3,5)       =        -2.093786	    -119.965075
	 D(4,2,3,8)       =         2.058360	     117.935365
	 D(4,2,3,9)       =         0.032555	       1.865278
	 D(5,3,2,6)       =         0.013817	       0.791630
	 D(5,3,2,7)       =         2.077081	     119.007991
	 D(6,2,3,8)       =        -2.117223	    -121.307930
	 D(6,2,3,9)       =         2.140157	     122.621983
	 D(6,2,4,10)      =         3.121425	     178.844498
	 D(6,2,4,11)      =        -1.101286	     -63.099054
	 D(7,2,3,8)       =        -0.053958	      -3.091569
	 D(7,2,3,9)       =        -2.079763	    -119.161656
	 D(7,2,4,10)      =         1.119014	      64.114779
	 D(7,2,4,11)      =        -3.103698	    -177.828773
	 D(8,3,5,12)      =         1.091651	      62.547006
	 D(8,3,5,13)      =        -1.005769	     -57.626335
	 D(8,3,5,14)      =        -3.104197	    -177.857412
	 D(9,3,5,12)      =         3.101196	     177.685462
	 D(9,3,5,13)      =         1.003776	      57.512121
	 D(9,3,5,14)      =        -1.094652	     -62.718956
	 D(10,4,1,15)     =         1.062840	      60.896235
	 D(11,4,1,15)     =        -1.046851	     -59.980138

	Current energy   :      -233.5779759289

	Energy change for the previous step:
		Projected    :        -0.0050710951
		Actual       :        -0.0015780552

	Performing BFGS update.
	Previous computed or guess Hessian on step 1.
	Steps to be used in Hessian update: 1
	Taking RFO optimization step.
	Going to follow RFO solution 1.
	Using RFO vector 1.
	Norm of target step-size    0.04515
	Projected energy change by RFO approximation:        -0.0001461199

	Back-transformation to cartesian coordinates...
	Successfully converged to displaced geometry.

	Back-transformation to cartesian coordinates to adjust frozen coordinates...
	Successfully converged to displaced geometry.

	--- Internal Coordinate Step in ANG or DEG, aJ/ANG or AJ/DEG ---
	 ---------------------------------------------------------------------------
	   Coordinate                Previous        Force       Change         New 
	   ----------                --------       ------       ------       ------
	    1 R(1,4)          =      1.445364    -0.008562    -0.000562     1.444802
	    2 R(1,15)         =      0.968057    -0.013877    -0.001828     0.966228
	    3 R(2,3)          =      1.542273     0.014686     0.002466     1.544739
	    4 R(2,4)          =      1.514796     0.022599     0.003391     1.518187
	    5 R(2,6)          =      1.093177    -0.001470    -0.000434     1.092742
	    6 R(2,7)          =      1.092191    -0.003380    -0.000817     1.091374
	    7 R(3,5)          =      1.530332     0.009555     0.001436     1.531767
	    8 R(3,8)          =      1.093073    -0.002386    -0.000604     1.092469
	    9 R(3,9)          =      1.096037     0.000064    -0.000057     1.095980
	   10 R(4,10)         =      1.097743    -0.002990    -0.000495     1.097249
	   11 R(4,11)         =      1.098043    -0.003044    -0.000480     1.097563
	   12 R(5,12)         =      1.092046     0.000839     0.000007     1.092053
	   13 R(5,13)         =      1.092142    -0.001439    -0.000372     1.091770
	   14 R(5,14)         =      1.092595     0.001076     0.000067     1.092662
	   15 B(1,4,2)        =    107.349266     0.000069     0.154380   107.503646
	   16 B(1,4,10)       =    111.316791    -0.000112    -0.650672   110.666119
	   17 B(1,4,11)       =    111.574250    -0.000106    -0.736742   110.837507
	   18 B(2,3,5)        =    113.028210    -0.000003    -0.024832   113.003378
	   19 B(2,3,8)        =    109.752634     0.000020     0.248035   110.000670
	   20 B(2,3,9)        =    109.914020    -0.000003    -0.107441   109.806579
	   21 B(2,4,10)       =    109.208991     0.000094     0.668324   109.877316
	   22 B(2,4,11)       =    109.241802     0.000085     0.542369   109.784171
	   23 B(3,2,4)        =    112.788344    -0.000089    -0.322964   112.465380
	   24 B(3,2,6)        =    110.585721     0.000002    -0.185326   110.400394
	   25 B(3,2,7)        =    111.065564     0.000020     0.192974   111.258539
	   26 B(3,5,12)       =    110.731472     0.000009    -0.001200   110.730272
	   27 B(3,5,13)       =    111.177739     0.000071     0.374307   111.552045
	   28 B(3,5,14)       =    110.813539    -0.000004    -0.070313   110.743226
	   29 B(4,1,15)       =    111.559743    -0.000141    -0.452912   111.106831
	   30 B(4,2,6)        =    107.769142     0.000060     0.194484   107.963626
	   31 B(4,2,7)        =    107.711773     0.000046     0.324648   108.036421
	   32 B(5,3,8)        =    109.151479    -0.000001     0.125841   109.277319
	   33 B(5,3,9)        =    108.851340     0.000001    -0.110024   108.741315
	   34 B(6,2,7)        =    106.657622    -0.000034    -0.186701   106.470921
	   35 B(8,3,9)        =    105.888585    -0.000014    -0.141648   105.746938
	   36 B(10,4,11)      =    108.114321    -0.000021     0.058650   108.172971
	   37 B(12,5,13)      =    108.085967    -0.000033    -0.047799   108.038168
	   38 B(12,5,14)      =    107.816635    -0.000018    -0.199433   107.617202
	   39 B(13,5,14)      =    108.088209    -0.000030    -0.075064   108.013144
	   40 *D(1,4,2,3)     =   -179.610746     0.000000    -0.000000  -179.610746
	   41 D(1,4,2,6)      =     58.037182     0.000003     0.306042    58.343224
	   42 D(1,4,2,7)      =    -56.692537     0.000000     0.262113   -56.430425
	   43 *D(2,3,5,12)    =    -59.888824    -0.000000    -0.000000   -59.888824
	   44 D(2,3,5,13)     =    179.937835    -0.000003    -0.188264   179.749571
	   45 D(2,3,5,14)     =     59.706758    -0.000004    -0.295891    59.410868
	   46 *D(2,4,1,15)    =   -179.636913     0.000000    -0.000000  -179.636913
	   47 D(3,2,4,10)     =    -58.803430    -0.000009    -0.308516   -59.111946
	   48 D(3,2,4,11)     =     59.253019     0.000009     0.483906    59.736925
	   49 *D(4,2,3,5)     =   -119.965075    -0.000000    -0.000000  -119.965075
	   50 D(4,2,3,8)      =    117.935365    -0.000002    -0.326288   117.609078
	   51 D(4,2,3,9)      =      1.865278    -0.000001    -0.236132     1.629147
	   52 D(5,3,2,6)      =      0.791630     0.000004    -0.102314     0.689317
	   53 D(5,3,2,7)      =    119.007991    -0.000003    -0.331215   118.676776
	   54 D(6,2,3,8)      =   -121.307930     0.000001    -0.428601  -121.736531
	   55 D(6,2,3,9)      =    122.621983     0.000003    -0.338445   122.283538
	   56 D(6,2,4,10)     =    178.844498    -0.000006    -0.002474   178.842024
	   57 D(6,2,4,11)     =    -63.099054     0.000012     0.789948   -62.309106
	   58 D(7,2,3,8)      =     -3.091569    -0.000005    -0.657503    -3.749072
	   59 D(7,2,3,9)      =   -119.161656    -0.000003    -0.567347  -119.729003
	   60 D(7,2,4,10)     =     64.114779    -0.000009    -0.046404    64.068375
	   61 D(7,2,4,11)     =   -177.828773     0.000009     0.746019  -177.082754
	   62 D(8,3,5,12)     =     62.547006     0.000005     0.393220    62.940226
	   63 D(8,3,5,13)     =    -57.626335     0.000002     0.204956   -57.421379
	   64 D(8,3,5,14)     =   -177.857412     0.000001     0.097329  -177.760083
	   65 D(9,3,5,12)     =    177.685462     0.000001     0.232873   177.918335
	   66 D(9,3,5,13)     =     57.512121    -0.000001     0.044610    57.556731
	   67 D(9,3,5,14)     =    -62.718956    -0.000003    -0.063017   -62.781973
	   68 D(10,4,1,15)    =     60.896235    -0.000021    -0.532346    60.363889
	   69 D(11,4,1,15)    =    -59.980138     0.000020     0.328872   -59.651266
	 ---------------------------------------------------------------------------
	Successfully symmetrized geometry.

  ==> Convergence Check <==

  Measures of convergence in internal coordinates in au.
  Criteria marked as inactive (o), active & met (*), and active & unmet ( ).
  ---------------------------------------------------------------------------------------------
   Step     Total Energy     Delta E     MAX Force     RMS Force      MAX Disp      RMS Disp   
  ---------------------------------------------------------------------------------------------
    Convergence Criteria             o    2.50e-03 *    1.70e-03 *    1.00e-02 *    6.70e-03 *
  ---------------------------------------------------------------------------------------------
      2    -233.57797593   -1.58e-03 o    2.74e-03      7.30e-04 *    1.38e-02      5.44e-03 *  ~
  ---------------------------------------------------------------------------------------------

	Writing optimization data to binary file.
	Structure for next step:
	Cartesian Geometry (in Angstrom)
	    O    -2.2573624700   0.4439696858  -0.5052804159
	    C     0.0634671896  -0.1265837388  -0.5016182067
	    C     1.2721026037  -0.6728219339   0.2902431335
	    C    -1.2012145058  -0.0694894211   0.3363630450
	    C     2.4309003797   0.3251056987   0.3776465165
	    H     0.2716868509   0.8821096285  -0.8666771980
	    H    -0.1418306746  -0.7380448271  -1.3819965952
	    H     1.6282864289  -1.6002271389  -0.1642248711
	    H     0.9602139355  -0.9401564370   1.3063284140
	    H    -1.4514594103  -1.0729510173   0.7029651687
	    H    -1.0422707550   0.5824824979   1.2048756123
	    H     2.7922814589   0.5861223490  -0.6192752287
	    H     3.2695953760  -0.0828947545   0.9451740993
	    H     2.1102538070   1.2487375069   0.8654984577
	    H    -3.0899334310   0.5074669190  -0.0190799172
			--------------------------
			 OPTKING Finished Execution 
			--------------------------

    Structure for next step:
    Molecular point group: c1
    Full point group: C1

    Geometry (in Angstrom), charge = 0, multiplicity = 1:

    O           -2.257701301807     0.444732175160    -0.504453236824
    C            0.063128366928    -0.125821251692    -0.500791027581
    C            1.271763785836    -0.672059448907     0.291070315751
    C           -1.201553333426    -0.068726933722     0.337190227392
    C            2.430561566321     0.325868187642     0.378473699065
    H            0.271348029067     0.882872119568    -0.865850020350
    H           -0.142169498035    -0.737282342406    -1.381169419491
    H            1.627947612388    -1.599464657612    -0.163397690626
    H            0.959875116394    -0.939393953077     1.307155600252
    H           -1.451798238884    -1.072188533854     0.703792352510
    H           -1.042609581964     0.583244987836     1.205702798144
    H            2.791942646975     0.586884838927    -0.618448050003
    H            3.269256565904    -0.082132267168     0.946001284087
    H            2.109914992381     1.249499999393     0.866325642159
    H           -3.090272266016     0.508229408622    -0.018252736152

gradient() will perform analytic gradient computation.

*** tstart() called on daniele-Precision-5750
*** at Thu May 27 11:09:20 2021

   => Loading Basis Set <=

    Name: 6-311G
    Role: ORBITAL
    Keyword: BASIS
    atoms 1    entry O          line   126 file /home/daniele/anaconda3/envs/poltype/share/psi4/basis/6-311g.gbs 
    atoms 2-5  entry C          line    92 file /home/daniele/anaconda3/envs/poltype/share/psi4/basis/6-311g.gbs 
    atoms 6-15 entry H          line    21 file /home/daniele/anaconda3/envs/poltype/share/psi4/basis/6-311g.gbs 


         ---------------------------------------------------------
                                   SCF
               by Justin Turney, Rob Parrish, Andy Simmonett
                          and Daniel G. A. Smith
                              RKS Reference
                        8 Threads,    667 MiB Core
         ---------------------------------------------------------

  ==> Geometry <==

    Molecular point group: c1
    Full point group: C1

    Geometry (in Angstrom), charge = 0, multiplicity = 1:

       Center              X                  Y                   Z               Mass       
    ------------   -----------------  -----------------  -----------------  -----------------
         O           -2.257701301807     0.444732175160    -0.504453236824    15.994914619570
         C            0.063128366928    -0.125821251692    -0.500791027581    12.000000000000
         C            1.271763785836    -0.672059448907     0.291070315751    12.000000000000
         C           -1.201553333426    -0.068726933722     0.337190227392    12.000000000000
         C            2.430561566321     0.325868187642     0.378473699065    12.000000000000
         H            0.271348029067     0.882872119568    -0.865850020350     1.007825032230
         H           -0.142169498035    -0.737282342406    -1.381169419491     1.007825032230
         H            1.627947612388    -1.599464657612    -0.163397690626     1.007825032230
         H            0.959875116394    -0.939393953077     1.307155600252     1.007825032230
         H           -1.451798238884    -1.072188533854     0.703792352510     1.007825032230
         H           -1.042609581964     0.583244987836     1.205702798144     1.007825032230
         H            2.791942646975     0.586884838927    -0.618448050003     1.007825032230
         H            3.269256565904    -0.082132267168     0.946001284087     1.007825032230
         H            2.109914992381     1.249499999393     0.866325642159     1.007825032230
         H           -3.090272266016     0.508229408622    -0.018252736152     1.007825032230

  Running in c1 symmetry.

  Rotational constants: A =      0.51582  B =      0.06781  C =      0.06667 [cm^-1]
  Rotational constants: A =  15463.93143  B =   2032.95287  C =   1998.69382 [MHz]
  Nuclear repulsion =  185.054427803899273

  Charge       = 0
  Multiplicity = 1
  Electrons    = 42
  Nalpha       = 21
  Nbeta        = 21

  ==> Algorithm <==

  SCF Algorithm Type is DF.
  DIIS enabled.
  MOM disabled.
  Fractional occupation disabled.
  Guess Type is READ.
  Energy threshold   = 1.00e-08
  Density threshold  = 1.00e-08
  Integral threshold = 0.00e+00

  ==> Primary Basis <==

  Basis Set: 6-311G
    Blend: 6-311G
    Number of shells: 65
    Number of basis function: 95
    Number of Cartesian functions: 95
    Spherical Harmonics?: true
    Max angular momentum: 1

  ==> DFT Potential <==

   => Composite Functional: WB97X-D <= 

    wB97X-D Hyb-GGA Exchange-Correlation Functional

    J.-D. Chai and M. Head-Gordon, Phys. Chem. Chem. Phys. 10, 6615 (2008)

    Deriv               =              1
    GGA                 =           TRUE
    Meta                =          FALSE

    Exchange Hybrid     =           TRUE
    MP2 Hybrid          =          FALSE

   => Exchange-Correlation Functionals <=

    1.0000   wB97D range-separated functional

   => Exact (HF) Exchange <=

    0.7780            HF,LR [omega = 0.2000]
    0.2220               HF 

   => Molecular Quadrature <=

    Radial Scheme          =       TREUTLER
    Pruning Scheme         =           FLAT
    Nuclear Scheme         =       TREUTLER

    BS radius alpha        =              1
    Pruning alpha          =              1
    Radial Points          =             75
    Spherical Points       =            302
    Total Points           =         336132
    Total Blocks           =           2572
    Max Points             =            256
    Max Functions          =             89

   => WB97X-D: Empirical Dispersion <=

    Chai and Head-Gordon Dispersion Correction
    Chai, J.-D.; Head-Gordon, M. (2010), J. Chem. Phys., 132: 6615-6620

        s6 =       1.000000

   => Loading Basis Set <=

    Name: (6-311G AUX)
    Role: JKFIT
    Keyword: DF_BASIS_SCF
    atoms 1    entry O          line   229 file /home/daniele/anaconda3/envs/poltype/share/psi4/basis/cc-pvtz-jkfit.gbs 
    atoms 2-5  entry C          line   125 file /home/daniele/anaconda3/envs/poltype/share/psi4/basis/cc-pvtz-jkfit.gbs 
    atoms 6-15 entry H          line    51 file /home/daniele/anaconda3/envs/poltype/share/psi4/basis/cc-pvtz-jkfit.gbs 

   => Loading Basis Set <=

    Name: 6-311G
    Role: ORBITAL
    Keyword: BASIS
    atoms 1    entry O          line   126 file /home/daniele/anaconda3/envs/poltype/share/psi4/basis/6-311g.gbs 
    atoms 2-5  entry C          line    92 file /home/daniele/anaconda3/envs/poltype/share/psi4/basis/6-311g.gbs 
    atoms 6-15 entry H          line    21 file /home/daniele/anaconda3/envs/poltype/share/psi4/basis/6-311g.gbs 

  Reading orbitals from file 180, no projection.

  ==> Pre-Iterations <==

   -------------------------------------------------------
    Irrep   Nso     Nmo     Nalpha   Nbeta   Ndocc  Nsocc
   -------------------------------------------------------
     A         95      95       0       0       0       0
   -------------------------------------------------------
    Total      95      95      21      21      21       0
   -------------------------------------------------------

  ==> Integral Setup <==

  ==> DiskDFJK: Density-Fitted J/K Matrices <==

    J tasked:                  Yes
    K tasked:                  Yes
    wK tasked:                 Yes
    Omega:               2.000E-01
    OpenMP threads:              8
    Integrals threads:           8
    Memory [MiB]:               34
    Algorithm:                Disk
    Integral Cache:           NONE
    Schwarz Cutoff:          1E-12
    Fitting Condition:       1E-10

   => Auxiliary Basis Set <=

  Basis Set: (6-311G AUX)
    Blend: CC-PVTZ-JKFIT
    Number of shells: 225
    Number of basis function: 695
    Number of Cartesian functions: 830
    Spherical Harmonics?: true
    Max angular momentum: 4

  Cached 100.0% of DFT collocation blocks in 0.670 [GiB].

  Minimum eigenvalue in the overlap matrix is 2.6758949678E-03.
  Using Symmetric Orthogonalization.

  SCF Guess: Orbitals guess was supplied from a previous computation.

  ==> Iterations <==

                           Total Energy        Delta E     RMS |[F,P]|

   @DF-RKS iter   0:  -233.58002057491163   -2.33580e+02   1.42635e-04 
   @DF-RKS iter   1:  -233.57806083200106    1.95974e-03   3.33158e-05 DIIS
   @DF-RKS iter   2:  -233.57806424829877   -3.41630e-06   3.03356e-05 DIIS
   @DF-RKS iter   3:  -233.57806740655445   -3.15826e-06   4.74381e-06 DIIS
   @DF-RKS iter   4:  -233.57806750542937   -9.88749e-08   2.41505e-06 DIIS
   @DF-RKS iter   5:  -233.57806753112757   -2.56982e-08   3.43735e-07 DIIS
   @DF-RKS iter   6:  -233.57806753192992   -8.02345e-10   5.21851e-08 DIIS
   @DF-RKS iter   7:  -233.57806753195513   -2.52101e-11   1.94798e-08 DIIS
   @DF-RKS iter   8:  -233.57806753195709   -1.96110e-12   6.19509e-09 DIIS
  Energy and wave function converged.


  ==> Post-Iterations <==

    Orbital Energies [Eh]
    ---------------------

    Doubly Occupied:                                                      

       1A    -19.234880     2A    -10.329970     3A    -10.280839  
       4A    -10.273442     5A    -10.269378     6A     -1.119742  
       7A     -0.897628     8A     -0.822495     9A     -0.727753  
      10A     -0.677813    11A     -0.597827    12A     -0.565573  
      13A     -0.536208    14A     -0.510489    15A     -0.478023  
      16A     -0.464532    17A     -0.424084    18A     -0.419289  
      19A     -0.407812    20A     -0.399217    21A     -0.351927  

    Virtual:                                                              

      22A      0.120829    23A      0.123916    24A      0.153847  
      25A      0.157752    26A      0.170787    27A      0.201524  
      28A      0.204585    29A      0.208022    30A      0.216548  
      31A      0.236911    32A      0.278832    33A      0.299437  
      34A      0.311726    35A      0.328370    36A      0.385403  
      37A      0.409564    38A      0.419908    39A      0.441671  
      40A      0.462853    41A      0.477328    42A      0.505499  
      43A      0.546231    44A      0.604009    45A      0.622315  
      46A      0.631097    47A      0.651776    48A      0.653225  
      49A      0.667518    50A      0.682112    51A      0.687367  
      52A      0.693729    53A      0.697969    54A      0.708521  
      55A      0.721070    56A      0.736679    57A      0.755100  
      58A      0.854396    59A      0.919594    60A      0.974640  
      61A      1.002313    62A      1.100797    63A      1.152452  
      64A      1.224357    65A      1.595934    66A      2.266994  
      67A      2.329221    68A      2.342317    69A      2.350730  
      70A      2.353383    71A      2.368829    72A      2.375964  
      73A      2.411226    74A      2.417742    75A      2.432624  
      76A      2.838585    77A      2.892982    78A      2.925437  
      79A      2.928324    80A      2.957993    81A      2.975158  
      82A      2.987592    83A      3.002624    84A      3.107765  
      85A      3.184036    86A      3.227248    87A      3.305742  
      88A      4.955593    89A      5.018016    90A      5.190211  
      91A     23.430090    92A     23.530567    93A     23.676523  
      94A     23.716006    95A     49.965194  

    Final Occupation by Irrep:
              A 
    DOCC [    21 ]

  @DF-RKS Final Energy:  -233.57806753195709

   => Energetics <=

    Nuclear Repulsion Energy =            185.0544278038992729
[...]
    Fitting Condition:       1E-10

   => Auxiliary Basis Set <=

  Basis Set: (6-311G AUX)
    Blend: CC-PVTZ-JKFIT
    Number of shells: 225
    Number of basis function: 695
    Number of Cartesian functions: 830
    Spherical Harmonics?: true
    Max angular momentum: 4

  ==> DFT Potential <==

   => Composite Functional: WB97X-D <= 

    wB97X-D Hyb-GGA Exchange-Correlation Functional

    J.-D. Chai and M. Head-Gordon, Phys. Chem. Chem. Phys. 10, 6615 (2008)

    Deriv               =              1
    GGA                 =           TRUE
    Meta                =          FALSE

    Exchange Hybrid     =           TRUE
    MP2 Hybrid          =          FALSE

   => Exchange-Correlation Functionals <=

    1.0000   wB97D range-separated functional

   => Exact (HF) Exchange <=

    0.7780            HF,LR [omega = 0.2000]
    0.2220               HF 

   => Molecular Quadrature <=

    Radial Scheme          =       TREUTLER
    Pruning Scheme         =           FLAT
    Nuclear Scheme         =       TREUTLER

    BS radius alpha        =              1
    Pruning alpha          =              1
    Radial Points          =             75
    Spherical Points       =            302
    Total Points           =         336132
    Total Blocks           =           2572
    Max Points             =            256
    Max Functions          =             89


  -Total Gradient:
     Atom            X                  Y                   Z
    ------   -----------------  -----------------  -----------------
       1        0.000553443471    -0.000758883874     0.000890244637
       2        0.000721534114     0.000079991382    -0.000018428837
       3       -0.000443968990    -0.000065076674    -0.000314717793
       4       -0.000357820504     0.000583731346    -0.000455595424
       5        0.000064320147     0.000073660323    -0.000012547914
       6       -0.000007058640    -0.000057089994     0.000054769658
       7       -0.000046140649     0.000053380853    -0.000035773435
       8        0.000034155768     0.000089809520    -0.000000576299
       9        0.000004132770     0.000062420352    -0.000041562965
      10       -0.000181326167    -0.000074064404     0.000057335193
      11       -0.000191852600     0.000091827494     0.000109787428
      12       -0.000182152427    -0.000017683586     0.000157793133
      13       -0.000002409897    -0.000050991918     0.000017570713
      14        0.000059558183    -0.000144695313    -0.000076332069
      15        0.000084841374     0.000048628822    -0.000254658751


*** tstop() called on daniele-Precision-5750 at Thu May 27 11:09:24 2021
Module time:
	user time   =      13.73 seconds =       0.23 minutes
	system time =       0.12 seconds =       0.00 minutes
	total time  =          1 seconds =       0.02 minutes
Total time:
	user time   =     119.75 seconds =       2.00 minutes
	system time =       1.86 seconds =       0.03 minutes
	total time  =         15 seconds =       0.25 minutes

			-----------------------------------------
			 OPTKING 2.0: for geometry optimizations 
			  - R.A. King,  Bethel University        
			-----------------------------------------
	At level 1: Red. Int., RFO, no backsteps, dynamic trust

	Previous internal coordinate definitions found.
	---Fragment 1 Geometry and Gradient---
	 O          -4.2664371335        0.8404220102       -0.9532784607
	 C           0.1192953242       -0.2377677065       -0.9463578882
	 C           2.4032852515       -1.2700082985        0.5500431800
	 C          -2.2706067253       -0.1298750822        0.6371971820
	 C           4.5930956914        0.6158016276        0.7152116369
	 H           0.5127734596        1.6683865098       -1.6362194042
	 H          -0.2686614147       -1.3932617043       -2.6100319357
	 H           3.0763751340       -3.0225501502       -0.3087768848
	 H           1.8139010846       -1.7751972952        2.4701660878
	 H          -2.7435010609       -2.0261426838        1.3299747954
	 H          -1.9702465657        1.1021732911        2.2784480772
	 H           5.2760069608        1.1090516128       -1.1686974373
	 H           6.1779995434       -0.1552074910        1.7876833413
	 H           3.9871614836        2.3612127926        1.6371181991
	 H          -5.8397682359        0.9604143912       -0.0344926724
	             0.0005534435       -0.0007588839        0.0008902446
	             0.0007215341        0.0000799914       -0.0000184288
	            -0.0004439690       -0.0000650767       -0.0003147178
	            -0.0003578205        0.0005837313       -0.0004555954
	             0.0000643201        0.0000736603       -0.0000125479
	            -0.0000070586       -0.0000570900        0.0000547697
	            -0.0000461406        0.0000533809       -0.0000357734
	             0.0000341558        0.0000898095       -0.0000005763
	             0.0000041328        0.0000624204       -0.0000415630
	            -0.0001813262       -0.0000740644        0.0000573352
	            -0.0001918526        0.0000918275        0.0001097874
	            -0.0001821524       -0.0000176836        0.0001577931
	            -0.0000024099       -0.0000509919        0.0000175707
	             0.0000595582       -0.0001446953       -0.0000763321
	             0.0000848414        0.0000486288       -0.0002546588

	---Fragment 1 Intrafragment Coordinates---
	 - Coordinate -           - BOHR/RAD -       - ANG/DEG -
	 R(1,4)           =         2.730280	       1.444802
	 R(1,15)          =         1.825907	       0.966228
	 R(2,3)           =         2.919135	       1.544739
	 R(2,4)           =         2.868958	       1.518187
	 R(2,6)           =         2.064984	       1.092742
	 R(2,7)           =         2.062399	       1.091374
	 R(3,5)           =         2.894621	       1.531767
	 R(3,8)           =         2.064467	       1.092469
	 R(3,9)           =         2.071102	       1.095980
	 R(4,10)          =         2.073500	       1.097249
	 R(4,11)          =         2.074094	       1.097563
	 R(5,12)          =         2.063680	       1.092053
	 R(5,13)          =         2.063146	       1.091770
	 R(5,14)          =         2.064831	       1.092662
	 B(1,4,2)         =         1.876293	     107.503646
	 B(1,4,10)        =         1.931488	     110.666119
	 B(1,4,11)        =         1.934479	     110.837507
	 B(2,3,5)         =         1.972281	     113.003378
	 B(2,3,8)         =         1.919874	     110.000670
	 B(2,3,9)         =         1.916486	     109.806579
	 B(2,4,10)        =         1.917721	     109.877316
	 B(2,4,11)        =         1.916095	     109.784171
	 B(3,2,4)         =         1.962891	     112.465380
	 B(3,2,6)         =         1.926850	     110.400394
	 B(3,2,7)         =         1.941828	     111.258539
	 B(3,5,12)        =         1.932608	     110.730272
	 B(3,5,13)        =         1.946950	     111.552045
	 B(3,5,14)        =         1.932834	     110.743226
	 B(4,1,15)        =         1.939180	     111.106831
	 B(4,2,6)         =         1.884321	     107.963626
	 B(4,2,7)         =         1.885591	     108.036421
	 B(5,3,8)         =         1.907249	     109.277319
	 B(5,3,9)         =         1.897894	     108.741315
	 B(6,2,7)         =         1.858268	     106.470921
	 B(8,3,9)         =         1.845632	     105.746938
	 B(10,4,11)       =         1.887975	     108.172971
	 B(12,5,13)       =         1.885622	     108.038168
	 B(12,5,14)       =         1.878275	     107.617202
	 B(13,5,14)       =         1.885185	     108.013144
	*D(1,4,2,3)       =        -3.134799	    -179.610746
	 D(1,4,2,6)       =         1.018281	      58.343224
	 D(1,4,2,7)       =        -0.984897	     -56.430425
	*D(2,3,5,12)      =        -1.045257	     -59.888824
	 D(2,3,5,13)      =         3.137222	     179.749571
	 D(2,3,5,14)      =         1.036915	      59.410868
	*D(2,4,1,15)      =        -3.135256	    -179.636913
	 D(3,2,4,10)      =        -1.031698	     -59.111946
	 D(3,2,4,11)      =         1.042606	      59.736925
	*D(4,2,3,5)       =        -2.093786	    -119.965075
	 D(4,2,3,8)       =         2.052666	     117.609078
	 D(4,2,3,9)       =         0.028434	       1.629147
	 D(5,3,2,6)       =         0.012031	       0.689317
	 D(5,3,2,7)       =         2.071300	     118.676776
	 D(6,2,3,8)       =        -2.124703	    -121.736531
	 D(6,2,3,9)       =         2.134250	     122.283538
	 D(6,2,4,10)      =         3.121382	     178.842024
	 D(6,2,4,11)      =        -1.087499	     -62.309106
	 D(7,2,3,8)       =        -0.065434	      -3.749072
	 D(7,2,3,9)       =        -2.089665	    -119.729003
	 D(7,2,4,10)      =         1.118204	      64.068375
	 D(7,2,4,11)      =        -3.090677	    -177.082754
	 D(8,3,5,12)      =         1.098514	      62.940226
	 D(8,3,5,13)      =        -1.002192	     -57.421379
	 D(8,3,5,14)      =        -3.102499	    -177.760083
	 D(9,3,5,12)      =         3.105261	     177.918335
	 D(9,3,5,13)      =         1.004554	      57.556731
	 D(9,3,5,14)      =        -1.095752	     -62.781973
	 D(10,4,1,15)     =         1.053549	      60.363889
	 D(11,4,1,15)     =        -1.041111	     -59.651266

	Current energy   :      -233.5780675320

	Energy change for the previous step:
		Projected    :        -0.0001461199
		Actual       :        -0.0000916031

	Performing BFGS update.
	Previous computed or guess Hessian on step 1.
	Steps to be used in Hessian update: 2 1
	Taking RFO optimization step.
	Going to follow RFO solution 1.
	Using RFO vector 1.
	Norm of target step-size    0.00596
	Projected energy change by RFO approximation:        -0.0000085828

	Back-transformation to cartesian coordinates...
	Successfully converged to displaced geometry.

	Back-transformation to cartesian coordinates to adjust frozen coordinates...
	Successfully converged to displaced geometry.

	--- Internal Coordinate Step in ANG or DEG, aJ/ANG or AJ/DEG ---
	 ---------------------------------------------------------------------------
	   Coordinate                Previous        Force       Change         New 
	   ----------                --------       ------       ------       ------
	    1 R(1,4)          =      1.444802     0.008758     0.001328     1.446130
	    2 R(1,15)         =      0.966228     0.001621     0.000098     0.966326
	    3 R(2,3)          =      1.544739     0.004548     0.001092     1.545831
	    4 R(2,4)          =      1.518187    -0.002299    -0.000445     1.517742
	    5 R(2,6)          =      1.092742     0.000582     0.000076     1.092818
	    6 R(2,7)          =      1.091374    -0.000097    -0.000066     1.091308
	    7 R(3,5)          =      1.531767     0.001195     0.000284     1.532052
	    8 R(3,8)          =      1.092469     0.000591     0.000070     1.092539
	    9 R(3,9)          =      1.095980     0.000446     0.000074     1.096054
	   10 R(4,10)         =      1.097249    -0.000978    -0.000196     1.097053
	   11 R(4,11)         =      1.097563    -0.000945    -0.000188     1.097375
	   12 R(5,12)         =      1.092053     0.001671     0.000291     1.092344
	   13 R(5,13)         =      1.091770    -0.000132    -0.000047     1.091723
	   14 R(5,14)         =      1.092662     0.001423     0.000251     1.092912
	   15 B(1,4,2)        =    107.503646     0.000014     0.057346   107.560992
	   16 B(1,4,10)       =    110.666119     0.000005     0.030041   110.696160
	   17 B(1,4,11)       =    110.837507     0.000005     0.046141   110.883648
	   18 B(2,3,5)        =    113.003378    -0.000007    -0.021335   112.982044
	   19 B(2,3,8)        =    110.000670     0.000000     0.000722   110.001392
	   20 B(2,3,9)        =    109.806579     0.000003     0.013525   109.820104
	   21 B(2,4,10)       =    109.877316    -0.000014    -0.060162   109.817154
	   22 B(2,4,11)       =    109.784171    -0.000017    -0.082850   109.701321
	   23 B(3,2,4)        =    112.465380     0.000005     0.000513   112.465893
	   24 B(3,2,6)        =    110.400394    -0.000001     0.010755   110.411150
	   25 B(3,2,7)        =    111.258539    -0.000005    -0.041733   111.216805
	   26 B(3,5,12)       =    110.730272     0.000009     0.043954   110.774226
	   27 B(3,5,13)       =    111.552045     0.000003     0.028747   111.580793
	   28 B(3,5,14)       =    110.743226    -0.000003    -0.021972   110.721254
	   29 B(4,1,15)       =    111.106831    -0.000028    -0.135707   110.971124
	   30 B(4,2,6)        =    107.963626    -0.000001     0.025382   107.989008
	   31 B(4,2,7)        =    108.036421     0.000000     0.006820   108.043241
	   32 B(5,3,8)        =    109.277319     0.000005     0.027616   109.304935
	   33 B(5,3,9)        =    108.741315     0.000002     0.011104   108.752419
	   34 B(6,2,7)        =    106.470921     0.000002    -0.000046   106.470875
	   35 B(8,3,9)        =    105.746938    -0.000003    -0.032156   105.714782
	   36 B(10,4,11)      =    108.172971     0.000006     0.006847   108.179819
	   37 B(12,5,13)      =    108.038168    -0.000006    -0.019317   108.018852
	   38 B(12,5,14)      =    107.617202    -0.000002    -0.014284   107.602919
	   39 B(13,5,14)      =    108.013144    -0.000002    -0.020039   107.993105
	   40 *D(1,4,2,3)     =   -179.610746    -0.000000    -0.000000  -179.610746
	   41 D(1,4,2,6)      =     58.343224    -0.000000    -0.031405    58.311819
	   42 D(1,4,2,7)      =    -56.430425    -0.000001    -0.047722   -56.478146
	   43 *D(2,3,5,12)    =    -59.888824    -0.000000     0.000000   -59.888824
	   44 D(2,3,5,13)     =    179.749571    -0.000000    -0.024701   179.724871
	   45 D(2,3,5,14)     =     59.410868     0.000000    -0.003641    59.407226
	   46 *D(2,4,1,15)    =   -179.636913    -0.000000    -0.000000  -179.636913
	   47 D(3,2,4,10)     =    -59.111946     0.000001     0.036218   -59.075728
	   48 D(3,2,4,11)     =     59.736925    -0.000001    -0.042462    59.694463
	   49 *D(4,2,3,5)     =   -119.965075     0.000000     0.000000  -119.965075
	   50 D(4,2,3,8)      =    117.609078    -0.000000    -0.021278   117.587800
	   51 D(4,2,3,9)      =      1.629147     0.000000     0.009397     1.638543
	   52 D(5,3,2,6)      =      0.689317     0.000000     0.040302     0.729619
	   53 D(5,3,2,7)      =    118.676776    -0.000000     0.020908   118.697684
	   54 D(6,2,3,8)      =   -121.736531    -0.000000     0.019024  -121.717507
	   55 D(6,2,3,9)      =    122.283538     0.000000     0.049699   122.333237
	   56 D(6,2,4,10)     =    178.842024     0.000001     0.004813   178.846837
	   57 D(6,2,4,11)     =    -62.309106    -0.000001    -0.073867   -62.382972
	   58 D(7,2,3,8)      =     -3.749072    -0.000000    -0.000370    -3.749442
	   59 D(7,2,3,9)      =   -119.729003    -0.000000     0.030305  -119.698698
	   60 D(7,2,4,10)     =     64.068375     0.000001    -0.011503    64.056872
	   61 D(7,2,4,11)     =   -177.082754    -0.000002    -0.090184  -177.172938
	   62 D(8,3,5,12)     =     62.940226    -0.000000     0.006384    62.946609
	   63 D(8,3,5,13)     =    -57.421379    -0.000000    -0.018317   -57.439696
	   64 D(8,3,5,14)     =   -177.760083     0.000000     0.002743  -177.757340
	   65 D(9,3,5,12)     =    177.918335    -0.000000    -0.010934   177.907402
	   66 D(9,3,5,13)     =     57.556731    -0.000000    -0.035634    57.521096
	   67 D(9,3,5,14)     =    -62.781973     0.000000    -0.014575   -62.796548
	   68 D(10,4,1,15)    =     60.363889     0.000001     0.020287    60.384176
	   69 D(11,4,1,15)    =    -59.651266    -0.000002    -0.038385   -59.689650
	 ---------------------------------------------------------------------------
	Successfully symmetrized geometry.

  ==> Convergence Check <==

  Measures of convergence in internal coordinates in au.
  Criteria marked as inactive (o), active & met (*), and active & unmet ( ).
  ---------------------------------------------------------------------------------------------
   Step     Total Energy     Delta E     MAX Force     RMS Force      MAX Disp      RMS Disp   
  ---------------------------------------------------------------------------------------------
    Convergence Criteria             o    2.50e-03 *    1.70e-03 *    1.00e-02 *    6.70e-03 *
  ---------------------------------------------------------------------------------------------
      3    -233.57806753   -9.16e-05 o    1.06e-03 *    1.73e-04 *    2.51e-03 *    7.17e-04 *  ~
  ---------------------------------------------------------------------------------------------


  **** Optimization is complete! (in 3 steps) ****

  ==> Optimization Summary <==

  Measures of convergence in internal coordinates in au.
  --------------------------------------------------------------------------------------------------------------- ~
   Step         Total Energy             Delta E       MAX Force       RMS Force        MAX Disp        RMS Disp  ~
  --------------------------------------------------------------------------------------------------------------- ~
      1    -233.576397873681   -233.576397873681      0.01615486      0.00351570      0.05807179      0.01906165  ~
      2    -233.577975928860     -0.001578055179      0.00274307      0.00072972      0.01378720      0.00543565  ~
      3    -233.578067531957     -0.000091603097      0.00106303      0.00017280      0.00250909      0.00071700  ~
  --------------------------------------------------------------------------------------------------------------- ~

	Writing optimization data to binary file.
	Final energy is   -233.5780675319571
	Final (previous) structure:
	Cartesian Geometry (in Angstrom)
	    O    -2.2577012929   0.4447321734  -0.5044532348
	    C     0.0631283667  -0.1258212512  -0.5007910256
	    C     1.2717637808  -0.6720594463   0.2910703146
	    C    -1.2015533287  -0.0687269335   0.3371902261
	    C     2.4305615568   0.3258681864   0.3784736976
	    H     0.2713480280   0.8828721161  -0.8658500169
	    H    -0.1421694975  -0.7372823395  -1.3811694141
	    H     1.6279476060  -1.5994646513  -0.1633976900
	    H     0.9598751126  -0.9393939494   1.3071555951
	    H    -1.4517982332  -1.0721885296   0.7037923497
	    H    -1.0426095779   0.5832449855   1.2057027934
	    H     2.7919426360   0.5868848366  -0.6184480476
	    H     3.2692565531  -0.0821322668   0.9460012804
	    H     2.1099149841   1.2494999945   0.8663256388
	    H    -3.0902722539   0.5082294066  -0.0182527361
	Saving final (previous) structure.
			--------------------------
			 OPTKING Finished Execution 
			--------------------------

    Final optimized geometry and variables:
    Molecular point group: c1
    Full point group: C1

    Geometry (in Angstrom), charge = 0, multiplicity = 1:

    O           -2.257701301807     0.444732175160    -0.504453236824
    C            0.063128366928    -0.125821251692    -0.500791027581
    C            1.271763785836    -0.672059448907     0.291070315751
    C           -1.201553333426    -0.068726933722     0.337190227392
    C            2.430561566321     0.325868187642     0.378473699065
    H            0.271348029067     0.882872119568    -0.865850020350
    H           -0.142169498035    -0.737282342406    -1.381169419491
    H            1.627947612388    -1.599464657612    -0.163397690626
    H            0.959875116394    -0.939393953077     1.307155600252
    H           -1.451798238884    -1.072188533854     0.703792352510
    H           -1.042609581964     0.583244987836     1.205702798144
    H            2.791942646975     0.586884838927    -0.618448050003
    H            3.269256565904    -0.082132267168     0.946001284087
    H            2.109914992381     1.249499999393     0.866325642159
    H           -3.090272266016     0.508229408622    -0.018252736152

	Removing binary optimization data file.
	Cleaning optimization helper files.

    Psi4 stopped on: Thursday, 27 May 2021 11:09AM
    Psi4 wall time for execution: 0:00:15.97

*** Psi4 exiting successfully. Buy a developer a beer!
