
    -----------------------------------------------------------------------
          Psi4: An Open-Source Ab Initio Electronic Structure Package
                               Psi4 1.3.2 release

                         Git: Rev {HEAD} ecbda83 


    R. M. Parrish, L. A. Burns, D. G. A. Smith, A. C. Simmonett,
    A. E. DePrince III, E. G. Hohenstein, U. Bozkaya, A. Yu. Sokolov,
    R. Di Remigio, R. M. Richard, J. F. Gonthier, A. M. James,
    H. R. McAlexander, A. Kumar, M. Saitow, X. Wang, B. P. Pritchard,
    P. Verma, H. F. Schaefer III, K. Patkowski, R. A. King, E. F. Valeev,
    F. A. Evangelista, J. M. Turney, T. D. Crawford, and C. D. Sherrill,
    J. Chem. Theory Comput. 13(7) pp 3185--3197 (2017).
    (doi: 10.1021/acs.jctc.7b00174)


                         Additional Contributions by
    P. Kraus, H. Kruse, M. H. Lechner, M. C. Schieber, R. A. Shaw,
    A. Alenaizan, R. Galvelis, Z. L. Glick, S. Lehtola, and J. P. Misiewicz

    -----------------------------------------------------------------------


    Psi4 started on: Thursday, 27 May 2021 11:49AM

    Process ID: 229281
    Host:       daniele-Precision-5750
    PSIDATADIR: /home/daniele/anaconda3/envs/poltype/share/psi4
    Memory:     500.0 MiB
    Threads:    1
    
  ==> Input File <==

--------------------------------------------------------------------------
molecule { 
0 1
 O   -1.744360    0.278817    0.773760
 C    0.042025   -0.174590   -0.810022
 C    0.959762    0.021140    0.400596
 C   -1.429408   -0.412083   -0.457730
 C    2.414111    0.257102   -0.016317
 H    0.124881    0.718546   -1.438568
 H    0.393617   -1.014142   -1.417225
 H    0.902294   -0.856720    1.051656
 H    0.591209    0.859541    0.989136
 H   -2.073628   -0.069723   -1.274617
 H   -1.600872   -1.486890   -0.317751
 H    2.805704   -0.588320   -0.588119
 H    3.055055    0.396716    0.856173
 H    2.501096    1.149688   -0.641208
 H   -2.667885    0.138718    1.019755
}
memory 700MB
set_num_threads(8)
psi4_io.set_default_path("/home/daniele/PSI4_sctatch/Psi4-1butanol_3D")
set freeze_core True
E, wfn = energy('wb97x-d/6-311+G*',return_wfn=True)
oeprop(wfn,"WIBERG_LOWDIN_INDICES")
clean()
--------------------------------------------------------------------------

  Memory set to 667.572 MiB by Python driver.
  Threads set to 8 by Python driver.

*** tstart() called on daniele-Precision-5750
*** at Thu May 27 11:49:17 2021

   => Loading Basis Set <=

    Name: 6-311+G*
    Role: ORBITAL
    Keyword: BASIS
    atoms 1    entry O          line   172 file /home/daniele/anaconda3/envs/poltype/share/psi4/basis/6-311pgs.gbs 
    atoms 2-5  entry C          line   130 file /home/daniele/anaconda3/envs/poltype/share/psi4/basis/6-311pgs.gbs 
    atoms 6-15 entry H          line    47 file /home/daniele/anaconda3/envs/poltype/share/psi4/basis/6-311pgs.gbs 


         ---------------------------------------------------------
                                   SCF
               by Justin Turney, Rob Parrish, Andy Simmonett
                          and Daniel G. A. Smith
                              RKS Reference
                        8 Threads,    667 MiB Core
         ---------------------------------------------------------

  ==> Geometry <==

    Molecular point group: c1
    Full point group: C1

    Geometry (in Angstrom), charge = 0, multiplicity = 1:

       Center              X                  Y                   Z               Mass       
    ------------   -----------------  -----------------  -----------------  -----------------
         O           -1.744360109685     0.278816904152     0.773759958559    15.994914619570
         C            0.042024890315    -0.174590095848    -0.810022041441    12.000000000000
         C            0.959761890315     0.021139904152     0.400595958559    12.000000000000
         C           -1.429408109685    -0.412083095848    -0.457730041441    12.000000000000
         C            2.414110890315     0.257101904152    -0.016317041441    12.000000000000
         H            0.124880890315     0.718545904152    -1.438568041441     1.007825032230
         H            0.393616890315    -1.014142095848    -1.417225041441     1.007825032230
         H            0.902293890315    -0.856720095848     1.051655958559     1.007825032230
         H            0.591208890315     0.859540904152     0.989135958559     1.007825032230
         H           -2.073628109685    -0.069723095848    -1.274617041441     1.007825032230
         H           -1.600872109685    -1.486890095848    -0.317751041441     1.007825032230
         H            2.805703890315    -0.588320095848    -0.588119041441     1.007825032230
         H            3.055054890315     0.396715904152     0.856172958559     1.007825032230
         H            2.501095890315     1.149687904152    -0.641208041441     1.007825032230
         H           -2.667885109685     0.138717904152     1.019754958559     1.007825032230

  Running in c1 symmetry.

  Rotational constants: A =      0.39363  B =      0.08345  C =      0.07340 [cm^-1]
  Rotational constants: A =  11800.75963  B =   2501.81002  C =   2200.51369 [MHz]
  Nuclear repulsion =  188.097590022935037

  Charge       = 0
  Multiplicity = 1
  Electrons    = 42
  Nalpha       = 21
  Nbeta        = 21

  ==> Algorithm <==

  SCF Algorithm Type is DF.
  DIIS enabled.
  MOM disabled.
  Fractional occupation disabled.
  Guess Type is SAD.
  Energy threshold   = 1.00e-06
  Density threshold  = 1.00e-06
  Integral threshold = 0.00e+00

  ==> Primary Basis <==

  Basis Set: 6-311+G*
    Blend: 6-311+G*
    Number of shells: 80
    Number of basis function: 140
    Number of Cartesian functions: 145
    Spherical Harmonics?: true
    Max angular momentum: 2

  ==> DFT Potential <==

   => Composite Functional: WB97X-D <= 

    wB97X-D Hyb-GGA Exchange-Correlation Functional

    J.-D. Chai and M. Head-Gordon, Phys. Chem. Chem. Phys. 10, 6615 (2008)

    Deriv               =              1
    GGA                 =           TRUE
    Meta                =          FALSE

    Exchange Hybrid     =           TRUE
    MP2 Hybrid          =          FALSE

   => Exchange-Correlation Functionals <=

    1.0000   wB97D range-separated functional

   => Exact (HF) Exchange <=

    0.7780            HF,LR [omega = 0.2000]
    0.2220               HF 

   => Molecular Quadrature <=

    Radial Scheme          =       TREUTLER
    Pruning Scheme         =           FLAT
    Nuclear Scheme         =       TREUTLER

    BS radius alpha        =              1
    Pruning alpha          =              1
    Radial Points          =             75
    Spherical Points       =            302
    Total Points           =         339750
    Total Blocks           =           2577
    Max Points             =            256
    Max Functions          =            136

   => WB97X-D: Empirical Dispersion <=

    Chai and Head-Gordon Dispersion Correction
    Chai, J.-D.; Head-Gordon, M. (2010), J. Chem. Phys., 132: 6615-6620

        s6 =       1.000000

   => Loading Basis Set <=

    Name: (6-311+G* AUX)
    Role: JKFIT
    Keyword: DF_BASIS_SCF
    atoms 1    entry O          line   324 file /home/daniele/anaconda3/envs/poltype/share/psi4/basis/heavy-aug-cc-pvtz-jkfit.gbs 
    atoms 2-5  entry C          line   200 file /home/daniele/anaconda3/envs/poltype/share/psi4/basis/heavy-aug-cc-pvtz-jkfit.gbs 
    atoms 6-15 entry H          line   116 file /home/daniele/anaconda3/envs/poltype/share/psi4/basis/heavy-aug-cc-pvtz-jkfit.gbs 

  ==> Pre-Iterations <==

   -------------------------------------------------------
    Irrep   Nso     Nmo     Nalpha   Nbeta   Ndocc  Nsocc
   -------------------------------------------------------
     A        140     140       0       0       0       0
   -------------------------------------------------------
    Total     140     140      21      21      21       0
   -------------------------------------------------------

  ==> Integral Setup <==

  ==> DiskDFJK: Density-Fitted J/K Matrices <==

    J tasked:                  Yes
    K tasked:                  Yes
    wK tasked:                 Yes
    Omega:               2.000E-01
    OpenMP threads:              8
    Integrals threads:           8
    Memory [MiB]:               77
    Algorithm:                Disk
    Integral Cache:           NONE
    Schwarz Cutoff:          1E-12
    Fitting Condition:       1E-10

   => Auxiliary Basis Set <=

  Basis Set: (6-311+G* AUX)
    Blend: HEAVY-AUG-CC-PVTZ-JKFIT
    Number of shells: 250
    Number of basis function: 820
    Number of Cartesian functions: 1005
    Spherical Harmonics?: true
    Max angular momentum: 4

  Cached 50.0% of DFT collocation blocks in 0.519 [GiB].

  Minimum eigenvalue in the overlap matrix is 2.1540046400E-05.
  Using Symmetric Orthogonalization.

  SCF Guess: Superposition of Atomic Densities via on-the-fly atomic UHF.

  ==> Iterations <==

                           Total Energy        Delta E     RMS |[F,P]|

   @DF-RKS iter SAD:  -232.90641399072962   -2.32906e+02   0.00000e+00 
   @DF-RKS iter   1:  -233.24547531408547   -3.39061e-01   6.43667e-03 DIIS
   @DF-RKS iter   2:  -233.34161513470673   -9.61398e-02   5.98342e-03 DIIS
   @DF-RKS iter   3:  -233.63866107369526   -2.97046e-01   7.43444e-04 DIIS
   @DF-RKS iter   4:  -233.64223461841448   -3.57354e-03   2.86638e-04 DIIS
   @DF-RKS iter   5:  -233.64290656108486   -6.71943e-04   4.23467e-05 DIIS
   @DF-RKS iter   6:  -233.64292774754938   -2.11865e-05   1.49816e-05 DIIS
   @DF-RKS iter   7:  -233.64292994573870   -2.19819e-06   3.54225e-06 DIIS
   @DF-RKS iter   8:  -233.64293010207470   -1.56336e-07   5.26319e-07 DIIS
  Energy and wave function converged.


  ==> Post-Iterations <==

    Orbital Energies [Eh]
    ---------------------

    Doubly Occupied:                                                      

       1A    -19.245243     2A    -10.329177     3A    -10.274958  
       4A    -10.265711     5A    -10.261743     6A     -1.117495  
       7A     -0.888835     8A     -0.817304     9A     -0.723911  
      10A     -0.667462    11A     -0.603281    12A     -0.561911  
      13A     -0.519624    14A     -0.517493    15A     -0.473538  
      16A     -0.455167    17A     -0.441025    18A     -0.416114  
      19A     -0.405727    20A     -0.395342    21A     -0.357304  

    Virtual:                                                              

      22A      0.063378    23A      0.078709    24A      0.086275  
      25A      0.093717    26A      0.109367    27A      0.110505  
      28A      0.121148    29A      0.136173    30A      0.141968  
      31A      0.143854    32A      0.156713    33A      0.164429  
      34A      0.182613    35A      0.209808    36A      0.216786  
      37A      0.227330    38A      0.236663    39A      0.242128  
      40A      0.248953    41A      0.254487    42A      0.272989  
      43A      0.278898    44A      0.288810    45A      0.305734  
      46A      0.310669    47A      0.318724    48A      0.327680  
      49A      0.328831    50A      0.346249    51A      0.353269  
      52A      0.364071    53A      0.376831    54A      0.422229  
      55A      0.445906    56A      0.494464    57A      0.497494  
      58A      0.510529    59A      0.543007    60A      0.564921  
      61A      0.579743    62A      0.609005    63A      0.639942  
      64A      0.652081    65A      0.668769    66A      0.696067  
      67A      0.718873    68A      0.732462    69A      0.737403  
      70A      0.749863    71A      0.754492    72A      0.770364  
      73A      0.778819    74A      0.812978    75A      0.822438  
      76A      0.831313    77A      0.849495    78A      0.945500  
      79A      1.074989    80A      1.089073    81A      1.111762  
      82A      1.154286    83A      1.189165    84A      1.213319  
      85A      1.248880    86A      1.346588    87A      1.427991  
      88A      1.513730    89A      1.611106    90A      1.619122  
      91A      1.626283    92A      1.669395    93A      1.681457  
      94A      1.696223    95A      1.708716    96A      1.746760  
      97A      1.786672    98A      1.800601    99A      1.818555  
     100A      1.911186   101A      1.932787   102A      2.030915  
     103A      2.043412   104A      2.225926   105A      2.278207  
     106A      2.316861   107A      2.536841   108A      2.589731  
     109A      2.599405   110A      2.606003   111A      2.613174  
     112A      2.661311   113A      2.673524   114A      2.709806  
     115A      2.730659   116A      2.904829   117A      2.922661  
     118A      3.009489   119A      3.085050   120A      3.104612  
     121A      3.145176   122A      3.167170   123A      3.225535  
     124A      3.278557   125A      3.309171   126A      3.318131  
     127A      3.381460   128A      3.451537   129A      3.765304  
     130A      3.881754   131A      4.026116   132A      4.199669  
     133A      5.130584   134A      5.291662   135A      5.525409  
     136A     23.562698   137A     23.721758   138A     23.807886  
     139A     23.866385   140A     50.003276  

    Final Occupation by Irrep:
              A 
    DOCC [    21 ]

  @DF-RKS Final Energy:  -233.64293010207470

   => Energetics <=

    Nuclear Repulsion Energy =            188.0975900229350373
    One-Electron Energy =                -688.2879466298592206
    Two-Electron Energy =                 289.7948957500939287
    DFT Exchange-Correlation Energy =     -23.2405127788989176
    Empirical Dispersion Energy =          -0.0069564663455230
    VV10 Nonlocal Energy =                  0.0000000000000000
    Total Energy =                       -233.6429301020746720

Computation Completed


Properties will be evaluated at   0.000000,   0.000000,   0.000000 [a0]

Properties computed using the SCF density matrix

  Nuclear Dipole Moment: [e a0]
     X:     3.7710      Y:    -0.7042      Z:    -1.6469

  Electronic Dipole Moment: [e a0]
     X:    -4.2616      Y:     0.3356      Z:     1.3303

  Dipole Moment: [e a0]
     X:    -0.4906      Y:    -0.3685      Z:    -0.3167     Total:     0.6905

  Dipole Moment: [D]
     X:    -1.2469      Y:    -0.9368      Z:    -0.8049     Total:     1.7550


*** tstop() called on daniele-Precision-5750 at Thu May 27 11:49:25 2021
Module time:
	user time   =      55.01 seconds =       0.92 minutes
	system time =       1.75 seconds =       0.03 minutes
	total time  =          8 seconds =       0.13 minutes
Total time:
	user time   =      55.01 seconds =       0.92 minutes
	system time =       1.75 seconds =       0.03 minutes
	total time  =          8 seconds =       0.13 minutes


Properties will be evaluated at   0.000000,   0.000000,   0.000000 [a0]
OEProp: No title given, name of density matrix used for the following properties is 'SCF density'


  Wiberg Bond Indices using Orthogonal Lowdin Orbitals:

  Irrep: 1 Size: 15 x 15

                 1                   2                   3                   4                   5

    1     0.00000000000000     0.10645335707992     0.07365879514298     1.30856542703672     0.00651510455825
    2     0.10645335707992     0.00000000000000     1.14269949188187     1.15460951506612     0.11549209855288
    3     0.07365879514298     1.14269949188187     0.00000000000000     0.09681140967919     1.20325152088397
    4     1.30856542703672     1.15460951506612     0.09681140967919     0.00000000000000     0.02094462455456
    5     0.00651510455825     0.11549209855288     1.20325152088397     0.02094462455456     0.00000000000000
    6     0.00451158823474     0.86131137922757     0.03980970006578     0.04021419632491     0.01431026374865
    7     0.00732156767324     0.86161188291457     0.03722652855783     0.04920394896215     0.01324506976122
    8     0.00564672607761     0.03924791502424     0.86285657556989     0.01204623469022     0.03949762855521
    9     0.01617406628281     0.03721925470977     0.85731448475785     0.01041082266212     0.03864271487993
   10     0.05176435087283     0.04518007018723     0.00922170956221     0.87424117365376     0.00091623980738
   11     0.05251612139992     0.04231892758173     0.00937488786853     0.86930839661997     0.00109909362257
   12     0.00080119947605     0.01452856500503     0.04287195977850     0.00128724600272     0.90957358519793
   13     0.00040107809264     0.01195313134385     0.04755248402134     0.00151355875070     0.91515295564530
   14     0.00033965299170     0.01470791847559     0.04166657402841     0.00157990791248     0.90989249149900
   15     0.86114596166644     0.01176814258684     0.00224777116250     0.03741157524131     0.00030950800630

                 6                   7                   8                   9                  10

    1     0.00451158823474     0.00732156767324     0.00564672607761     0.01617406628281     0.05176435087283
    2     0.86131137922757     0.86161188291457     0.03924791502424     0.03721925470977     0.04518007018723
    3     0.03980970006578     0.03722652855783     0.86285657556989     0.85731448475785     0.00922170956221
    4     0.04021419632491     0.04920394896215     0.01204623469022     0.01041082266212     0.87424117365376
    5     0.01431026374865     0.01324506976122     0.03949762855521     0.03864271487993     0.00091623980738
    6     0.00000000000000     0.00705274996744     0.00850717068220     0.00462705882018     0.00708691847498
    7     0.00705274996744     0.00000000000000     0.00410788604022     0.00864178000272     0.00068533538360
    8     0.00850717068220     0.00410788604022     0.00000000000000     0.00704707622459     0.00012808751231
    9     0.00462705882018     0.00864178000272     0.00704707622459     0.00000000000000     0.00010489832785
   10     0.00708691847498     0.00068533538360     0.00012808751231     0.00010489832785     0.00000000000000
   11     0.00663707732295     0.00630765228482     0.00016286899575     0.00006478318024     0.00896444123675
   12     0.00053593492253     0.00108872888250     0.00365669317219     0.00972193759685     0.00011875172897
   13     0.00039963123187     0.00037943576116     0.00319522648123     0.00309706736893     0.00035158331326
   14     0.00128855098064     0.00053229771886     0.01006084293782     0.00370102265489     0.00005364344205
   15     0.00003514517183     0.00025887861142     0.00003175640893     0.00024273610793     0.00313703566993

                11                  12                  13                  14                  15

    1     0.05251612139992     0.00080119947605     0.00040107809264     0.00033965299170     0.86114596166644
    2     0.04231892758173     0.01452856500503     0.01195313134385     0.01470791847559     0.01176814258684
    3     0.00937488786853     0.04287195977850     0.04755248402134     0.04166657402841     0.00224777116250
    4     0.86930839661997     0.00128724600272     0.00151355875070     0.00157990791248     0.03741157524131
    5     0.00109909362257     0.90957358519793     0.91515295564530     0.90989249149900     0.00030950800630
    6     0.00663707732295     0.00053593492253     0.00039963123187     0.00128855098064     0.00003514517183
    7     0.00630765228482     0.00108872888250     0.00037943576116     0.00053229771886     0.00025887861142
    8     0.00016286899575     0.00365669317219     0.00319522648123     0.01006084293782     0.00003175640893
    9     0.00006478318024     0.00972193759685     0.00309706736893     0.00370102265489     0.00024273610793
   10     0.00896444123675     0.00011875172897     0.00035158331326     0.00005364344205     0.00313703566993
   11     0.00000000000000     0.00001276102403     0.00011332018643     0.00013894585249     0.00328175499208
   12     0.00001276102403     0.00000000000000     0.00947689163286     0.00800223463495     0.00017199762647
   13     0.00011332018643     0.00947689163286     0.00000000000000     0.00949769722473     0.00003113742821
   14     0.00013894585249     0.00800223463495     0.00949769722473     0.00000000000000     0.00001328828652
   15     0.00328175499208     0.00017199762647     0.00003113742821     0.00001328828652     0.00000000000000



  Atomic Valences: 

 #  #
 Irrep: 1
      1:  2.4958150
      2:  4.4591016
      3:  4.4665639
      4:  4.4781480
      5:  4.1888429
      6:  0.9963274
      7:  0.9976637
      8:  0.9961927
      9:  0.9970097
     10:  1.0019542
     11:  1.0003010
     12:  1.0018485
     13:  1.0031152
     14:  1.0014751
     15:  0.9200867


    Psi4 stopped on: Thursday, 27 May 2021 11:49AM
    Psi4 wall time for execution: 0:00:07.80

*** Psi4 exiting successfully. Buy a developer a beer!
