
    -----------------------------------------------------------------------
          Psi4: An Open-Source Ab Initio Electronic Structure Package
                               Psi4 1.3.2 release

                         Git: Rev {HEAD} ecbda83 


    R. M. Parrish, L. A. Burns, D. G. A. Smith, A. C. Simmonett,
    A. E. DePrince III, E. G. Hohenstein, U. Bozkaya, A. Yu. Sokolov,
    R. Di Remigio, R. M. Richard, J. F. Gonthier, A. M. James,
    H. R. McAlexander, A. Kumar, M. Saitow, X. Wang, B. P. Pritchard,
    P. Verma, H. F. Schaefer III, K. Patkowski, R. A. King, E. F. Valeev,
    F. A. Evangelista, J. M. Turney, T. D. Crawford, and C. D. Sherrill,
    J. Chem. Theory Comput. 13(7) pp 3185--3197 (2017).
    (doi: 10.1021/acs.jctc.7b00174)


                         Additional Contributions by
    P. Kraus, H. Kruse, M. H. Lechner, M. C. Schieber, R. A. Shaw,
    A. Alenaizan, R. Galvelis, Z. L. Glick, S. Lehtola, and J. P. Misiewicz

    -----------------------------------------------------------------------


    Psi4 started on: Thursday, 27 May 2021 11:12AM

    Process ID: 226515
    Host:       daniele-Precision-5750
    PSIDATADIR: /home/daniele/anaconda3/envs/poltype/share/psi4
    Memory:     500.0 MiB
    Threads:    1
    
  ==> Input File <==

--------------------------------------------------------------------------
molecule { 
0 1
 O   -2.236513    0.274610   -0.329647
 C   -0.042522   -0.677390   -0.563389
 C    1.476500   -0.766049   -0.196650
 C   -0.897187    0.394093    0.156838
 C    2.006954    0.227373    0.860453
 H   -0.140304   -0.509934   -1.644564
 H   -0.510664   -1.654006   -0.379989
 H    2.067588   -0.643257   -1.114234
 H    1.698666   -1.786446    0.143465
 H   -0.865380    0.241549    1.242601
 H   -0.499966    1.396783   -0.043824
 H    1.863463    1.265329    0.542636
 H    3.080113    0.079124    1.022711
 H    1.508038    0.087441    1.825164
 H   -2.783706    0.949690    0.113848
}
set optking { 
  frozen_dihedral = ("
    4 2 3 5
    2 4 1 15
    3 2 4 1
    12 5 3 2
  ")
}
set {
  geom_maxiter 400
  g_convergence GAU_LOOSE
  dynamic_level 1
}
memory 700MB
set_num_threads(8)
psi4_io.set_default_path("/home/daniele/PSI4_sctatch/Psi4-1butanol_3D")
for _ in range(1):
  try:
    set opt_coordinates both
    optimize('wb97x-d/6-311G')
    break
  except OptimizationConvergenceError:
    break
  else:
    try:
      set opt_coordinates cartesian
      optimize('wb97x-d/6-311G')
      break
    except OptimizationConvergenceError:
      pass
clean()
--------------------------------------------------------------------------

  Memory set to 667.572 MiB by Python driver.
  Threads set to 8 by Python driver.
gradient() will perform analytic gradient computation.

*** tstart() called on daniele-Precision-5750
*** at Thu May 27 11:12:16 2021

   => Loading Basis Set <=

    Name: 6-311G
    Role: ORBITAL
    Keyword: BASIS
    atoms 1    entry O          line   126 file /home/daniele/anaconda3/envs/poltype/share/psi4/basis/6-311g.gbs 
    atoms 2-5  entry C          line    92 file /home/daniele/anaconda3/envs/poltype/share/psi4/basis/6-311g.gbs 
    atoms 6-15 entry H          line    21 file /home/daniele/anaconda3/envs/poltype/share/psi4/basis/6-311g.gbs 


         ---------------------------------------------------------
                                   SCF
               by Justin Turney, Rob Parrish, Andy Simmonett
                          and Daniel G. A. Smith
                              RKS Reference
                        8 Threads,    667 MiB Core
         ---------------------------------------------------------

  ==> Geometry <==

    Molecular point group: c1
    Full point group: C1

    Geometry (in Angstrom), charge = 0, multiplicity = 1:

       Center              X                  Y                   Z               Mass       
    ------------   -----------------  -----------------  -----------------  -----------------
         O           -2.239379737972     0.356279642891    -0.323376525121    15.994914619570
         C           -0.045388737972    -0.595720357109    -0.557118525121    12.000000000000
         C            1.473633262028    -0.684379357109    -0.190379525121    12.000000000000
         C           -0.900053737972     0.475762642891     0.163108474879    12.000000000000
         C            2.004087262028     0.309042642891     0.866723474879    12.000000000000
         H           -0.143170737972    -0.428264357109    -1.638293525121     1.007825032230
         H           -0.513530737972    -1.572336357109    -0.373718525121     1.007825032230
         H            2.064721262028    -0.561587357109    -1.107963525121     1.007825032230
         H            1.695799262028    -1.704776357109     0.149735474879     1.007825032230
         H           -0.868246737972     0.323218642891     1.248871474879     1.007825032230
         H           -0.502832737972     1.478452642891    -0.037553525121     1.007825032230
         H            1.860596262028     1.346998642891     0.548906474879     1.007825032230
         H            3.077246262028     0.160793642891     1.028981474879     1.007825032230
         H            1.505171262028     0.169110642891     1.831434474879     1.007825032230
         H           -2.786572737972     1.031359642891     0.120118474879     1.007825032230

  Running in c1 symmetry.

  Rotational constants: A =      0.38560  B =      0.07992  C =      0.06960 [cm^-1]
  Rotational constants: A =  11560.13537  B =   2395.99214  C =   2086.66611 [MHz]
  Nuclear repulsion =  185.819510669443929

  Charge       = 0
  Multiplicity = 1
  Electrons    = 42
  Nalpha       = 21
  Nbeta        = 21

  ==> Algorithm <==

  SCF Algorithm Type is DF.
  DIIS enabled.
  MOM disabled.
  Fractional occupation disabled.
  Guess Type is SAD.
  Energy threshold   = 1.00e-08
  Density threshold  = 1.00e-08
  Integral threshold = 0.00e+00

  ==> Primary Basis <==

  Basis Set: 6-311G
    Blend: 6-311G
    Number of shells: 65
    Number of basis function: 95
    Number of Cartesian functions: 95
    Spherical Harmonics?: true
    Max angular momentum: 1

  ==> DFT Potential <==

   => Composite Functional: WB97X-D <= 

    wB97X-D Hyb-GGA Exchange-Correlation Functional

    J.-D. Chai and M. Head-Gordon, Phys. Chem. Chem. Phys. 10, 6615 (2008)

    Deriv               =              1
    GGA                 =           TRUE
    Meta                =          FALSE

    Exchange Hybrid     =           TRUE
    MP2 Hybrid          =          FALSE

   => Exchange-Correlation Functionals <=

    1.0000   wB97D range-separated functional

   => Exact (HF) Exchange <=

    0.7780            HF,LR [omega = 0.2000]
    0.2220               HF 

   => Molecular Quadrature <=

    Radial Scheme          =       TREUTLER
    Pruning Scheme         =           FLAT
    Nuclear Scheme         =       TREUTLER

    BS radius alpha        =              1
    Pruning alpha          =              1
    Radial Points          =             75
    Spherical Points       =            302
    Total Points           =         336089
    Total Blocks           =           2566
    Max Points             =            256
    Max Functions          =             92

   => WB97X-D: Empirical Dispersion <=

    Chai and Head-Gordon Dispersion Correction
    Chai, J.-D.; Head-Gordon, M. (2010), J. Chem. Phys., 132: 6615-6620

        s6 =       1.000000

   => Loading Basis Set <=

    Name: (6-311G AUX)
    Role: JKFIT
    Keyword: DF_BASIS_SCF
    atoms 1    entry O          line   229 file /home/daniele/anaconda3/envs/poltype/share/psi4/basis/cc-pvtz-jkfit.gbs 
    atoms 2-5  entry C          line   125 file /home/daniele/anaconda3/envs/poltype/share/psi4/basis/cc-pvtz-jkfit.gbs 
    atoms 6-15 entry H          line    51 file /home/daniele/anaconda3/envs/poltype/share/psi4/basis/cc-pvtz-jkfit.gbs 

  ==> Pre-Iterations <==

   -------------------------------------------------------
    Irrep   Nso     Nmo     Nalpha   Nbeta   Ndocc  Nsocc
   -------------------------------------------------------
     A         95      95       0       0       0       0
   -------------------------------------------------------
    Total      95      95      21      21      21       0
   -------------------------------------------------------

  ==> Integral Setup <==

  ==> DiskDFJK: Density-Fitted J/K Matrices <==

    J tasked:                  Yes
    K tasked:                  Yes
    wK tasked:                 Yes
    Omega:               2.000E-01
    OpenMP threads:              8
    Integrals threads:           8
    Memory [MiB]:               34
    Algorithm:                Disk
    Integral Cache:           NONE
    Schwarz Cutoff:          1E-12
    Fitting Condition:       1E-10

   => Auxiliary Basis Set <=

  Basis Set: (6-311G AUX)
    Blend: CC-PVTZ-JKFIT
    Number of shells: 225
    Number of basis function: 695
    Number of Cartesian functions: 830
    Spherical Harmonics?: true
    Max angular momentum: 4

  Cached 100.0% of DFT collocation blocks in 0.676 [GiB].

  Minimum eigenvalue in the overlap matrix is 1.8246375513E-03.
  Using Symmetric Orthogonalization.

  SCF Guess: Superposition of Atomic Densities via on-the-fly atomic UHF.

  ==> Iterations <==

                           Total Energy        Delta E     RMS |[F,P]|

   @DF-RKS iter SAD:  -232.82980686132615   -2.32830e+02   0.00000e+00 
   @DF-RKS iter   1:  -233.27830123648434   -4.48494e-01   8.18189e-03 DIIS
   @DF-RKS iter   2:  -233.37397233398943   -9.56711e-02   7.25149e-03 DIIS
   @DF-RKS iter   3:  -233.57058642569262   -1.96614e-01   7.89713e-04 DIIS
   @DF-RKS iter   4:  -233.57241504226698   -1.82862e-03   3.43017e-04 DIIS
   @DF-RKS iter   5:  -233.57287724404929   -4.62202e-04   2.93037e-05 DIIS
   @DF-RKS iter   6:  -233.57288290746149   -5.66341e-06   1.12771e-05 DIIS
   @DF-RKS iter   7:  -233.57288348276884   -5.75307e-07   2.45195e-06 DIIS
   @DF-RKS iter   8:  -233.57288352185375   -3.90849e-08   3.17246e-07 DIIS
   @DF-RKS iter   9:  -233.57288352294458   -1.09083e-09   6.73301e-08 DIIS
   @DF-RKS iter  10:  -233.57288352299426   -4.96811e-11   1.03032e-08 DIIS
   @DF-RKS iter  11:  -233.57288352299614   -1.87583e-12   5.12147e-09 DIIS
  Energy and wave function converged.


  ==> Post-Iterations <==

    Orbital Energies [Eh]
    ---------------------

    Doubly Occupied:                                                      

       1A    -19.238310     2A    -10.330776     3A    -10.283653  
       4A    -10.277960     5A    -10.274468     6A     -1.125537  
       7A     -0.889143     8A     -0.814843     9A     -0.742760  
      10A     -0.661148    11A     -0.601095    12A     -0.567967  
      13A     -0.520164    14A     -0.514301    15A     -0.485840  
      16A     -0.462330    17A     -0.439452    18A     -0.418130  
      19A     -0.397599    20A     -0.395826    21A     -0.350626  

    Virtual:                                                              

      22A      0.114610    23A      0.120192    24A      0.153254  
      25A      0.153916    26A      0.179039    27A      0.187411  
      28A      0.207769    29A      0.222885    30A      0.226339  
      31A      0.245339    32A      0.278689    33A      0.279634  
      34A      0.317610    35A      0.353449    36A      0.380765  
      37A      0.407476    38A      0.416017    39A      0.452324  
      40A      0.472739    41A      0.482288    42A      0.498029  
      43A      0.515122    44A      0.609706    45A      0.620712  
      46A      0.621225    47A      0.637922    48A      0.660738  
      49A      0.664042    50A      0.675067    51A      0.678044  
      52A      0.701642    53A      0.713237    54A      0.724117  
      55A      0.736343    56A      0.740615    57A      0.756743  
      58A      0.835449    59A      0.959769    60A      0.992560  
      61A      1.003928    62A      1.122860    63A      1.184503  
      64A      1.319660    65A      1.598964    66A      2.270263  
      67A      2.317949    68A      2.334635    69A      2.338188  
      70A      2.366119    71A      2.376837    72A      2.381866  
      73A      2.407978    74A      2.425278    75A      2.432681  
      76A      2.841619    77A      2.881204    78A      2.895644  
      79A      2.947141    80A      2.965759    81A      2.990758  
      82A      2.993302    83A      3.072404    84A      3.113254  
      85A      3.142997    86A      3.242972    87A      3.301362  
      88A      4.952893    89A      5.025462    90A      5.176406  
      91A     23.426539    92A     23.582529    93A     23.615862  
      94A     23.759087    95A     49.968491  

    Final Occupation by Irrep:
              A 
    DOCC [    21 ]

  @DF-RKS Final Energy:  -233.57288352299614

   => Energetics <=

    Nuclear Repulsion Energy =            185.8195106694439289
    One-Electron Energy =                -683.5002427234103379
    Two-Electron Energy =                 287.3313362885339188
    DFT Exchange-Correlation Energy =     -23.2161837343486148
    Empirical Dispersion Energy =          -0.0073040232150959
    VV10 Nonlocal Energy =                  0.0000000000000000
    Total Energy =                       -233.5728835229961646

Computation Completed


Properties will be evaluated at   0.000000,   0.000000,   0.000000 [a0]

Properties computed using the SCF density matrix

  Nuclear Dipole Moment: [e a0]
     X:     5.0414      Y:     0.2295      Z:     1.6583

  Electronic Dipole Moment: [e a0]
     X:    -4.7777      Y:     0.2605      Z:    -1.1486

  Dipole Moment: [e a0]
     X:     0.2638      Y:     0.4899      Z:     0.5097     Total:     0.7546

  Dipole Moment: [D]
     X:     0.6704      Y:     1.2453      Z:     1.2954     Total:     1.9179


*** tstop() called on daniele-Precision-5750 at Thu May 27 11:12:20 2021
Module time:
	user time   =      31.05 seconds =       0.52 minutes
	system time =       0.78 seconds =       0.01 minutes
	total time  =          4 seconds =       0.07 minutes
Total time:
	user time   =      31.05 seconds =       0.52 minutes
	system time =       0.78 seconds =       0.01 minutes
	total time  =          4 seconds =       0.07 minutes

*** tstart() called on daniele-Precision-5750
*** at Thu May 27 11:12:20 2021


         ------------------------------------------------------------
                                   SCF GRAD                          
                          Rob Parrish, Justin Turney,                
                       Andy Simmonett, and Alex Sokolov              
         ------------------------------------------------------------

  ==> Geometry <==

    Molecular point group: c1
    Full point group: C1

    Geometry (in Angstrom), charge = 0, multiplicity = 1:

       Center              X                  Y                   Z               Mass       
    ------------   -----------------  -----------------  -----------------  -----------------
         O           -2.239379737972     0.356279642891    -0.323376525121    15.994914619570
         C           -0.045388737972    -0.595720357109    -0.557118525121    12.000000000000
         C            1.473633262028    -0.684379357109    -0.190379525121    12.000000000000
         C           -0.900053737972     0.475762642891     0.163108474879    12.000000000000
         C            2.004087262028     0.309042642891     0.866723474879    12.000000000000
         H           -0.143170737972    -0.428264357109    -1.638293525121     1.007825032230
         H           -0.513530737972    -1.572336357109    -0.373718525121     1.007825032230
         H            2.064721262028    -0.561587357109    -1.107963525121     1.007825032230
         H            1.695799262028    -1.704776357109     0.149735474879     1.007825032230
         H           -0.868246737972     0.323218642891     1.248871474879     1.007825032230
         H           -0.502832737972     1.478452642891    -0.037553525121     1.007825032230
         H            1.860596262028     1.346998642891     0.548906474879     1.007825032230
         H            3.077246262028     0.160793642891     1.028981474879     1.007825032230
         H            1.505171262028     0.169110642891     1.831434474879     1.007825032230
         H           -2.786572737972     1.031359642891     0.120118474879     1.007825032230

  Nuclear repulsion =  185.819510669443929

  ==> Basis Set <==

  Basis Set: 6-311G
    Blend: 6-311G
    Number of shells: 65
    Number of basis function: 95
    Number of Cartesian functions: 95
    Spherical Harmonics?: true
    Max angular momentum: 1

  ==> DFJKGrad: Density-Fitted SCF Gradients <==

    Gradient:                    1
    J tasked:                  Yes
    K tasked:                  Yes
    wK tasked:                 Yes
    Omega:               2.000E-01
    OpenMP threads:              8
    Integrals threads:           8
    Memory [MiB]:              500
    Schwarz Cutoff:          0E+00
    Fitting Condition:       1E-10

   => Auxiliary Basis Set <=

  Basis Set: (6-311G AUX)
    Blend: CC-PVTZ-JKFIT
    Number of shells: 225
    Number of basis function: 695
    Number of Cartesian functions: 830
    Spherical Harmonics?: true
    Max angular momentum: 4

  ==> DFT Potential <==

   => Composite Functional: WB97X-D <= 

    wB97X-D Hyb-GGA Exchange-Correlation Functional

    J.-D. Chai and M. Head-Gordon, Phys. Chem. Chem. Phys. 10, 6615 (2008)

    Deriv               =              1
    GGA                 =           TRUE
    Meta                =          FALSE

    Exchange Hybrid     =           TRUE
    MP2 Hybrid          =          FALSE

   => Exchange-Correlation Functionals <=

    1.0000   wB97D range-separated functional

   => Exact (HF) Exchange <=

    0.7780            HF,LR [omega = 0.2000]
    0.2220               HF 

   => Molecular Quadrature <=

    Radial Scheme          =       TREUTLER
    Pruning Scheme         =           FLAT
    Nuclear Scheme         =       TREUTLER

    BS radius alpha        =              1
    Pruning alpha          =              1
    Radial Points          =             75
    Spherical Points       =            302
    Total Points           =         336089
    Total Blocks           =           2566
    Max Points             =            256
    Max Functions          =             92


  -Total Gradient:
     Atom            X                  Y                   Z
    ------   -----------------  -----------------  -----------------
       1        0.012021362470    -0.006505328971    -0.002166453349
       2        0.003877670272    -0.001259817932    -0.000469981536
       3       -0.000883948927    -0.000390239229     0.000092412063
       4       -0.022917938412     0.007637812192     0.000299511490
       5        0.002527974012     0.001825029927     0.001900231017
       6        0.001274842251    -0.001736322842    -0.004529408836
       7        0.000365771028    -0.004921722429    -0.001013787920
       8        0.001981439318    -0.001334332622    -0.002839918815
       9        0.001312032594    -0.003462926994    -0.000582666418
      10       -0.000653345381     0.001598968428     0.000447144583
      11       -0.000743538686     0.000826460949     0.001298626068
      12        0.000031251057     0.001779055502    -0.001208730059
      13        0.002572139963     0.000247489950     0.000988038911
      14       -0.000709654963    -0.001157681388     0.001769838892
      15       -0.000493137100     0.006871296823     0.005917105335


*** tstop() called on daniele-Precision-5750 at Thu May 27 11:12:22 2021
Module time:
	user time   =      13.42 seconds =       0.22 minutes
	system time =       0.14 seconds =       0.00 minutes
	total time  =          2 seconds =       0.03 minutes
Total time:
	user time   =      44.48 seconds =       0.74 minutes
	system time =       0.92 seconds =       0.02 minutes
	total time  =          6 seconds =       0.10 minutes

			-----------------------------------------
			 OPTKING 2.0: for geometry optimizations 
			  - R.A. King,  Bethel University        
			-----------------------------------------
	At level 1: Red. Int., RFO, no backsteps, dynamic trust

	Internal coordinates to be generated automatically.
	Detected frag 1 with atoms:  1 2 3 4 5 6 7 8 9 10 11 12 13 14 15
	---Fragment 1 Bond Connectivity---
	 1 : 4 15
	 2 : 3 4 6 7
	 3 : 2 5 8 9
	 4 : 1 2 10 11
	 5 : 3 12 13 14
	 6 : 2
	 7 : 2
	 8 : 3
	 9 : 3
	 10 : 4
	 11 : 4
	 12 : 5
	 13 : 5
	 14 : 5
	 15 : 1

	Assuming in current code that numbering for constraints corresponds to unified fragment.
	Frozen dihedral atom list: 
	     4     2     3     5
	     2     4     1    15
	     3     2     4     1
	    12     5     3     2
	---Fragment 1 Geometry and Gradient---
	 O          -4.2318143957        0.6732709491       -0.6110930679
	 C          -0.0857722839       -1.1257483223       -1.0528014319
	 C           2.7847632746       -1.2932895509       -0.3597651624
	 C          -1.7008550630        0.8990610958        0.3082303463
	 C           3.7871760568        0.5840059562        1.6378699940
	 H          -0.2705534839       -0.8093023442       -3.0959260756
	 H          -0.9704324518       -2.9712850920       -0.7062256605
	 H           3.9017577106       -1.0612463005       -2.0937476195
	 H           3.2045961690       -3.2215604201        0.2829590388
	 H          -1.6407485441        0.6107947137        2.3600250534
	 H          -0.9502161617        2.7938705845       -0.0709658775
	 H           3.5160173653        2.5454585264        1.0372829060
	 H           5.8151526558        0.3038559478        1.9444931757
	 H           2.8443614571        0.3195728000        3.4609095742
	 H          -5.2658593034        1.9489872619        0.2269910201
	             0.0120213625       -0.0065053290       -0.0021664533
	             0.0038776703       -0.0012598179       -0.0004699815
	            -0.0008839489       -0.0003902392        0.0000924121
	            -0.0229179384        0.0076378122        0.0002995115
	             0.0025279740        0.0018250299        0.0019002310
	             0.0012748423       -0.0017363228       -0.0045294088
	             0.0003657710       -0.0049217224       -0.0010137879
	             0.0019814393       -0.0013343326       -0.0028399188
	             0.0013120326       -0.0034629270       -0.0005826664
	            -0.0006533454        0.0015989684        0.0004471446
	            -0.0007435387        0.0008264609        0.0012986261
	             0.0000312511        0.0017790555       -0.0012087301
	             0.0025721400        0.0002474900        0.0009880389
	            -0.0007096550       -0.0011576814        0.0017698389
	            -0.0004931371        0.0068712968        0.0059171053

	Previous optimization step data not found.  Starting new optimization.

	---Fragment 1 Intrafragment Coordinates---
	 - Coordinate -           - BOHR/RAD -       - ANG/DEG -
	 R(1,4)           =         2.702201	       1.429943
	 R(1,15)          =         1.843661	       0.975623
	 R(2,3)           =         2.957760	       1.565179
	 R(2,4)           =         2.925876	       1.548307
	 R(2,6)           =         2.075726	       1.098427
	 R(2,7)           =         2.075752	       1.098440
	 R(3,5)           =         2.918838	       1.544583
	 R(3,8)           =         2.075624	       1.098373
	 R(3,9)           =         2.075472	       1.098292
	 R(4,10)          =         2.072817	       1.096888
	 R(4,11)          =         2.073054	       1.097013
	 R(5,12)          =         2.069185	       1.094966
	 R(5,13)          =         2.070070	       1.095434
	 R(5,14)          =         2.069371	       1.095064
	 B(1,4,2)         =         1.876471	     107.513876
	 B(1,4,10)        =         1.930826	     110.628170
	 B(1,4,11)        =         1.931882	     110.688668
	 B(2,3,5)         =         2.045675	     117.208527
	 B(2,3,8)         =         1.896739	     108.675134
	 B(2,3,9)         =         1.898115	     108.754000
	 B(2,4,10)        =         1.926452	     110.377564
	 B(2,4,11)        =         1.925775	     110.338763
	 B(3,2,4)         =         2.055478	     117.770204
	 B(3,2,6)         =         1.902507	     109.005649
	 B(3,2,7)         =         1.900894	     108.913221
	 B(3,5,12)        =         1.945532	     111.470762
	 B(3,5,13)        =         1.929197	     110.534865
	 B(3,5,14)        =         1.943647	     111.362770
	 B(4,1,15)        =         1.888991	     108.231192
	 B(4,2,6)         =         1.878871	     107.651364
	 B(4,2,7)         =         1.877965	     107.599497
	 B(5,3,8)         =         1.891281	     108.362424
	 B(5,3,9)         =         1.892453	     108.429595
	 B(6,2,7)         =         1.835834	     105.185519
	 B(8,3,9)         =         1.827312	     104.697251
	 B(10,4,11)       =         1.873052	     107.317964
	 B(12,5,13)       =         1.875134	     107.437281
	 B(12,5,14)       =         1.893496	     108.489331
	 B(13,5,14)       =         1.873976	     107.370912
	*D(1,4,2,3)       =        -3.133028	    -179.509281
	 D(1,4,2,6)       =         0.992445	      56.862885
	 D(1,4,2,7)       =        -0.978249	     -56.049512
	*D(2,3,5,12)      =        -1.043805	     -59.805634
	 D(2,3,5,13)      =        -3.128052	    -179.224206
	 D(2,3,5,14)      =         1.073565	      61.510772
	*D(2,4,1,15)      =        -3.135456	    -179.648392
	 D(3,2,4,10)      =        -1.025527	     -58.758375
	 D(3,2,4,11)      =         1.041769	      59.688948
	*D(4,2,3,5)       =        -0.000031	      -0.001765
	 D(4,2,3,8)       =        -2.150415	    -123.209709
	 D(4,2,3,9)       =         2.153086	     123.362744
	 D(5,3,2,6)       =         2.145755	     122.942705
	 D(5,3,2,7)       =        -2.143220	    -122.797437
	 D(6,2,3,8)       =        -0.004629	      -0.265239
	 D(6,2,3,9)       =        -1.984313	    -113.692786
	 D(6,2,4,10)      =         3.099945	     177.613790
	 D(6,2,4,11)      =        -1.115944	     -63.938887
	 D(7,2,3,8)       =         1.989581	     113.994618
	 D(7,2,3,9)       =         0.009897	       0.567072
	 D(7,2,4,10)      =         1.129252	      64.701393
	 D(7,2,4,11)      =        -3.086637	    -176.851283
	 D(8,3,5,12)      =         1.109363	      63.561845
	 D(8,3,5,13)      =        -0.974884	     -55.856727
	 D(8,3,5,14)      =        -3.056451	    -175.121750
	 D(9,3,5,12)      =         3.083380	     176.664659
	 D(9,3,5,13)      =         0.999133	      57.246087
	 D(9,3,5,14)      =        -1.082435	     -62.018936
	 D(10,4,1,15)     =         1.042986	      59.758709
	 D(11,4,1,15)     =        -1.030917	     -59.067189

	Current energy   :      -233.5728835230

	Generating empirical Hessian (Schlegel '84) for each fragment.
	Taking RFO optimization step.
	Going to follow RFO solution 1.
	Using RFO vector 1.
	Norm of target step-size    0.14773
	Projected energy change by RFO approximation:        -0.0029434557

	Back-transformation to cartesian coordinates...
	Could not converge backtransformation.
	Using first guess instead.

	Back-transformation to cartesian coordinates to adjust frozen coordinates...
	Successfully converged to displaced geometry.

	--- Internal Coordinate Step in ANG or DEG, aJ/ANG or AJ/DEG ---
	 ---------------------------------------------------------------------------
	   Coordinate                Previous        Force       Change         New 
	   ----------                --------       ------       ------       ------
	    1 R(1,4)          =      1.429943     0.100148     0.015769     1.445712
	    2 R(1,15)         =      0.975623    -0.063439    -0.007089     0.968534
	    3 R(2,3)          =      1.565179    -0.057750    -0.013853     1.551327
	    4 R(2,4)          =      1.548307    -0.139105    -0.030604     1.517703
	    5 R(2,6)          =      1.098427    -0.033535    -0.005706     1.092721
	    6 R(2,7)          =      1.098440    -0.033292    -0.005651     1.092789
	    7 R(3,5)          =      1.544583    -0.046817    -0.009987     1.534596
	    8 R(3,8)          =      1.098373    -0.027183    -0.004961     1.093412
	    9 R(3,9)          =      1.098292    -0.027270    -0.004962     1.093330
	   10 R(4,10)         =      1.096888    -0.001706     0.000125     1.097012
	   11 R(4,11)         =      1.097013    -0.002091    -0.000002     1.097010
	   12 R(5,12)         =      1.094966    -0.016730    -0.003005     1.091961
	   13 R(5,13)         =      1.095434    -0.021917    -0.003859     1.091575
	   14 R(5,14)         =      1.095064    -0.016683    -0.002977     1.092087
	   15 B(1,4,2)        =    107.513876    -0.000283    -1.207071   106.306805
	   16 B(1,4,10)       =    110.628170     0.000143     0.591429   111.219599
	   17 B(1,4,11)       =    110.688668     0.000137     0.528470   111.217138
	   18 B(2,3,5)        =    117.208527    -0.000327    -1.415903   115.792624
	   19 B(2,3,8)        =    108.675134     0.000109     0.330379   109.005513
	   20 B(2,3,9)        =    108.754000     0.000105     0.293204   109.047204
	   21 B(2,4,10)       =    110.377564    -0.000036    -0.432271   109.945293
	   22 B(2,4,11)       =    110.338763    -0.000027    -0.383677   109.955086
	   23 B(3,2,4)        =    117.770204    -0.000578    -2.347742   115.422462
	   24 B(3,2,6)        =    109.005649     0.000288     1.390855   110.396504
	   25 B(3,2,7)        =    108.913221     0.000293     1.446322   110.359543
	   26 B(3,5,12)       =    111.470762     0.000046     0.186850   111.657613
	   27 B(3,5,13)       =    110.534865    -0.000103    -0.427518   110.107347
	   28 B(3,5,14)       =    111.362770     0.000062     0.283021   111.645790
	   29 B(4,1,15)       =    108.231192     0.000673     3.102492   111.333685
	   30 B(4,2,6)        =    107.651364     0.000041    -0.641230   107.010134
	   31 B(4,2,7)        =    107.599497     0.000033    -0.673693   106.925804
	   32 B(5,3,8)        =    108.362424     0.000064    -0.035586   108.326838
	   33 B(5,3,9)        =    108.429595     0.000062    -0.085512   108.344083
	   34 B(6,2,7)        =    105.185519    -0.000031     1.072472   106.257991
	   35 B(8,3,9)        =    104.697251     0.000021     1.174407   105.871658
	   36 B(10,4,11)      =    107.317964     0.000070     0.878178   108.196142
	   37 B(12,5,13)      =    107.437281     0.000031     0.178436   107.615717
	   38 B(12,5,14)      =    108.489331    -0.000070    -0.429565   108.059767
	   39 B(13,5,14)      =    107.370912     0.000031     0.206954   107.577866
	   40 *D(1,4,2,3)     =   -179.509281    -0.000000     0.000000  -179.509281
	   41 D(1,4,2,6)      =     56.862885     0.000000     0.333191    57.196076
	   42 D(1,4,2,7)      =    -56.049512     0.000000    -0.277866   -56.327377
	   43 *D(2,3,5,12)    =    -59.805634     0.000000     0.000000   -59.805634
	   44 D(2,3,5,13)     =   -179.224206    -0.000000    -0.061791  -179.285997
	   45 D(2,3,5,14)     =     61.510772    -0.000003    -0.222037    61.288734
	   46 *D(2,4,1,15)    =   -179.648392    -0.000000     0.000000  -179.648392
	   47 D(3,2,4,10)     =    -58.758375    -0.000005    -0.264083   -59.022458
	   48 D(3,2,4,11)     =     59.688948     0.000006     0.312484    60.001431
	   49 *D(4,2,3,5)     =     -0.001765    -0.000000     0.000000    -0.001765
	   50 D(4,2,3,8)      =   -123.209709     0.000015     0.808675  -122.401034
	   51 D(4,2,3,9)      =    123.362744    -0.000016    -0.909453   122.453292
	   52 D(5,3,2,6)      =    122.942705    -0.000031    -1.457341   121.485364
	   53 D(5,3,2,7)      =   -122.797437     0.000032     1.449151  -121.348286
	   54 D(6,2,3,8)      =     -0.265239    -0.000016    -0.648666    -0.913905
	   55 D(6,2,3,9)      =   -113.692786    -0.000047    -2.366794  -116.059579
	   56 D(6,2,4,10)     =    177.613790    -0.000005     0.069108   177.682898
	   57 D(6,2,4,11)     =    -63.938887     0.000006     0.645675   -63.293212
	   58 D(7,2,3,8)      =    113.994618     0.000047     2.257826   116.252444
	   59 D(7,2,3,9)      =      0.567072     0.000016     0.539698     1.106770
	   60 D(7,2,4,10)     =     64.701393    -0.000005    -0.541948    64.159445
	   61 D(7,2,4,11)     =   -176.851283     0.000006     0.034618  -176.816665
	   62 D(8,3,5,12)     =     63.561845    -0.000009    -0.609409    62.952436
	   63 D(8,3,5,13)     =    -55.856727    -0.000009    -0.671199   -56.527927
	   64 D(8,3,5,14)     =   -175.121750    -0.000012    -0.831446  -175.953196
	   65 D(9,3,5,12)     =    176.664659     0.000011     0.703184   177.367842
	   66 D(9,3,5,13)     =     57.246087     0.000011     0.641393    57.887479
	   67 D(9,3,5,14)     =    -62.018936     0.000008     0.481146   -61.537789
	   68 D(10,4,1,15)    =     59.758709     0.000031     0.932490    60.691198
	   69 D(11,4,1,15)    =    -59.067189    -0.000030    -0.910325   -59.977514
	 ---------------------------------------------------------------------------
	Successfully symmetrized geometry.

  ==> Convergence Check <==

  Measures of convergence in internal coordinates in au.
  Criteria marked as inactive (o), active & met (*), and active & unmet ( ).
  --------------------------------------------------------------------------------------------- ~
   Step     Total Energy     Delta E     MAX Force     RMS Force      MAX Disp      RMS Disp    ~
  --------------------------------------------------------------------------------------------- ~
    Convergence Criteria             o    2.50e-03 *    1.70e-03 *    1.00e-02 *    6.70e-03 *  ~
  --------------------------------------------------------------------------------------------- ~
      1    -233.57288352   -2.34e+02 o    1.69e-02      3.60e-03      5.78e-02      1.77e-02    ~
  ---------------------------------------------------------------------------------------------

	Writing optimization data to binary file.
	Structure for next step:
	Cartesian Geometry (in Angstrom)
	    O    -2.1942406962   0.3618035548  -0.3048159035
	    C    -0.0430091811  -0.6030618631  -0.5634629910
	    C     1.4621114641  -0.6879842255  -0.1973835450
	    C    -0.8332305684   0.4637482463   0.1719877858
	    C     1.9505991978   0.3148891771   0.8564707861
	    H    -0.1647389562  -0.4111622384  -1.6322920392
	    H    -0.5368016303  -1.5576836525  -0.3658399147
	    H     2.0574187415  -0.5510761540  -1.1042547790
	    H     1.6864759303  -1.6972944029   0.1580382047
	    H    -0.7776024220   0.2914349708   1.2539536006
	    H    -0.4116954066   1.4542593443  -0.0392652254
	    H     1.7942555052   1.3464149243   0.5341509119
	    H     3.0195713748   0.1824971931   1.0334097537
	    H     1.4387235906   0.1772688285   1.8112992327
	    H    -2.7657580357   1.0199009402   0.1174802388
			--------------------------
			 OPTKING Finished Execution 
			--------------------------

    Structure for next step:
    Molecular point group: c1
    Full point group: C1

    Geometry (in Angstrom), charge = 0, multiplicity = 1:

    O           -2.203995810341     0.363225600533    -0.306386573276
    C           -0.052764286804    -0.601639821136    -0.565033661808
    C            1.452356364340    -0.686562183874    -0.198954214318
    C           -0.842985677243     0.465170292407     0.170417117926
    C            1.940844099955     0.316311222644     0.854900120894
    H           -0.174494062440    -0.409740195675    -1.633862714223
    H           -0.546556737946    -1.556261614263    -0.367410584751
    H            2.047663644080    -0.549654111815    -1.105825451867
    H            1.676720831402    -1.695872365284     0.156467536731
    H           -0.787357530635     0.292857016305     1.252382936998
    H           -0.421450513741     1.455681394321    -0.040835894126
    H            1.784500406706     1.347836973942     0.532580245433
    H            3.009816281131     0.183919238115     1.031839089151
    H            1.428968490706     0.178690873500     1.809728571251
    H           -2.775513152088     1.021322988496     0.115909570666

gradient() will perform analytic gradient computation.

*** tstart() called on daniele-Precision-5750
*** at Thu May 27 11:12:22 2021

   => Loading Basis Set <=

    Name: 6-311G
    Role: ORBITAL
    Keyword: BASIS
    atoms 1    entry O          line   126 file /home/daniele/anaconda3/envs/poltype/share/psi4/basis/6-311g.gbs 
    atoms 2-5  entry C          line    92 file /home/daniele/anaconda3/envs/poltype/share/psi4/basis/6-311g.gbs 
    atoms 6-15 entry H          line    21 file /home/daniele/anaconda3/envs/poltype/share/psi4/basis/6-311g.gbs 


         ---------------------------------------------------------
                                   SCF
               by Justin Turney, Rob Parrish, Andy Simmonett
                          and Daniel G. A. Smith
                              RKS Reference
                        8 Threads,    667 MiB Core
         ---------------------------------------------------------

  ==> Geometry <==

    Molecular point group: c1
    Full point group: C1

    Geometry (in Angstrom), charge = 0, multiplicity = 1:

       Center              X                  Y                   Z               Mass       
    ------------   -----------------  -----------------  -----------------  -----------------
         O           -2.203995810341     0.363225600533    -0.306386573276    15.994914619570
         C           -0.052764286804    -0.601639821136    -0.565033661808    12.000000000000
         C            1.452356364340    -0.686562183874    -0.198954214318    12.000000000000
         C           -0.842985677243     0.465170292407     0.170417117926    12.000000000000
         C            1.940844099955     0.316311222644     0.854900120894    12.000000000000
         H           -0.174494062440    -0.409740195675    -1.633862714223     1.007825032230
         H           -0.546556737946    -1.556261614263    -0.367410584751     1.007825032230
         H            2.047663644080    -0.549654111815    -1.105825451867     1.007825032230
         H            1.676720831402    -1.695872365284     0.156467536731     1.007825032230
         H           -0.787357530635     0.292857016305     1.252382936998     1.007825032230
         H           -0.421450513741     1.455681394321    -0.040835894126     1.007825032230
         H            1.784500406706     1.347836973942     0.532580245433     1.007825032230
         H            3.009816281131     0.183919238115     1.031839089151     1.007825032230
         H            1.428968490706     0.178690873500     1.809728571251     1.007825032230
         H           -2.775513152088     1.021322988496     0.115909570666     1.007825032230

  Running in c1 symmetry.

  Rotational constants: A =      0.38545  B =      0.08354  C =      0.07234 [cm^-1]
  Rotational constants: A =  11555.61153  B =   2504.46191  C =   2168.60789 [MHz]
  Nuclear repulsion =  187.864196047075836

  Charge       = 0
  Multiplicity = 1
  Electrons    = 42
  Nalpha       = 21
  Nbeta        = 21

  ==> Algorithm <==

  SCF Algorithm Type is DF.
  DIIS enabled.
  MOM disabled.
  Fractional occupation disabled.
  Guess Type is READ.
  Energy threshold   = 1.00e-08
  Density threshold  = 1.00e-08
  Integral threshold = 0.00e+00

  ==> Primary Basis <==

  Basis Set: 6-311G
    Blend: 6-311G
    Number of shells: 65
    Number of basis function: 95
    Number of Cartesian functions: 95
    Spherical Harmonics?: true
    Max angular momentum: 1

  ==> DFT Potential <==

   => Composite Functional: WB97X-D <= 

    wB97X-D Hyb-GGA Exchange-Correlation Functional

    J.-D. Chai and M. Head-Gordon, Phys. Chem. Chem. Phys. 10, 6615 (2008)

    Deriv               =              1
    GGA                 =           TRUE
    Meta                =          FALSE

    Exchange Hybrid     =           TRUE
    MP2 Hybrid          =          FALSE

   => Exchange-Correlation Functionals <=

    1.0000   wB97D range-separated functional

   => Exact (HF) Exchange <=

    0.7780            HF,LR [omega = 0.2000]
    0.2220               HF 

   => Molecular Quadrature <=

    Radial Scheme          =       TREUTLER
    Pruning Scheme         =           FLAT
    Nuclear Scheme         =       TREUTLER

    BS radius alpha        =              1
    Pruning alpha          =              1
    Radial Points          =             75
    Spherical Points       =            302
    Total Points           =         336076
    Total Blocks           =           2570
    Max Points             =            256
    Max Functions          =             89

   => WB97X-D: Empirical Dispersion <=

    Chai and Head-Gordon Dispersion Correction
    Chai, J.-D.; Head-Gordon, M. (2010), J. Chem. Phys., 132: 6615-6620

        s6 =       1.000000

   => Loading Basis Set <=

    Name: (6-311G AUX)
    Role: JKFIT
    Keyword: DF_BASIS_SCF
    atoms 1    entry O          line   229 file /home/daniele/anaconda3/envs/poltype/share/psi4/basis/cc-pvtz-jkfit.gbs 
    atoms 2-5  entry C          line   125 file /home/daniele/anaconda3/envs/poltype/share/psi4/basis/cc-pvtz-jkfit.gbs 
    atoms 6-15 entry H          line    51 file /home/daniele/anaconda3/envs/poltype/share/psi4/basis/cc-pvtz-jkfit.gbs 

   => Loading Basis Set <=

    Name: 6-311G
    Role: ORBITAL
    Keyword: BASIS
    atoms 1    entry O          line   126 file /home/daniele/anaconda3/envs/poltype/share/psi4/basis/6-311g.gbs 
    atoms 2-5  entry C          line    92 file /home/daniele/anaconda3/envs/poltype/share/psi4/basis/6-311g.gbs 
    atoms 6-15 entry H          line    21 file /home/daniele/anaconda3/envs/poltype/share/psi4/basis/6-311g.gbs 

  Reading orbitals from file 180, no projection.

  ==> Pre-Iterations <==

   -------------------------------------------------------
    Irrep   Nso     Nmo     Nalpha   Nbeta   Ndocc  Nsocc
   -------------------------------------------------------
     A         95      95       0       0       0       0
   -------------------------------------------------------
    Total      95      95      21      21      21       0
   -------------------------------------------------------

  ==> Integral Setup <==

  ==> DiskDFJK: Density-Fitted J/K Matrices <==

    J tasked:                  Yes
    K tasked:                  Yes
    wK tasked:                 Yes
    Omega:               2.000E-01
    OpenMP threads:              8
    Integrals threads:           8
    Memory [MiB]:               34
    Algorithm:                Disk
    Integral Cache:           NONE
    Schwarz Cutoff:          1E-12
    Fitting Condition:       1E-10

   => Auxiliary Basis Set <=

  Basis Set: (6-311G AUX)
    Blend: CC-PVTZ-JKFIT
    Number of shells: 225
    Number of basis function: 695
    Number of Cartesian functions: 830
    Spherical Harmonics?: true
    Max angular momentum: 4

  Cached 100.0% of DFT collocation blocks in 0.679 [GiB].

  Minimum eigenvalue in the overlap matrix is 1.5353815336E-03.
  Using Symmetric Orthogonalization.

  SCF Guess: Orbitals guess was supplied from a previous computation.

  ==> Iterations <==

                           Total Energy        Delta E     RMS |[F,P]|

   @DF-RKS iter   0:  -233.59214793993229   -2.33592e+02   8.79871e-04 
   @DF-RKS iter   1:  -233.57413061198932    1.80173e-02   1.27721e-04 DIIS
   @DF-RKS iter   2:  -233.57419635917623   -6.57472e-05   1.00383e-04 DIIS
   @DF-RKS iter   3:  -233.57422650367877   -3.01445e-05   2.58135e-05 DIIS
   @DF-RKS iter   4:  -233.57422904341050   -2.53973e-06   6.23717e-06 DIIS
   @DF-RKS iter   5:  -233.57422924612203   -2.02712e-07   2.12841e-06 DIIS
   @DF-RKS iter   6:  -233.57422927022904   -2.41070e-08   1.70441e-07 DIIS
   @DF-RKS iter   7:  -233.57422927061228   -3.83238e-10   5.40118e-08 DIIS
   @DF-RKS iter   8:  -233.57422927063260   -2.03215e-11   2.20995e-08 DIIS
   @DF-RKS iter   9:  -233.57422927063499   -2.38742e-12   3.17610e-09 DIIS
  Energy and wave function converged.


  ==> Post-Iterations <==

    Orbital Energies [Eh]
    ---------------------

    Doubly Occupied:                                                      

       1A    -19.235171     2A    -10.328611     3A    -10.280582  
       4A    -10.272610     5A    -10.272552     6A     -1.118603  
       7A     -0.896943     8A     -0.818422     9A     -0.743814  
      10A     -0.659824    11A     -0.602317    12A     -0.573334  
      13A     -0.519441    14A     -0.513992    15A     -0.487010  
      16A     -0.462966    17A     -0.437187    18A     -0.419352  
      19A     -0.397782    20A     -0.394938    21A     -0.351018  

    Virtual:                                                              

      22A      0.115849    23A      0.122127    24A      0.152897  
      25A      0.153963    26A      0.179342    27A      0.189549  
      28A      0.209544    29A      0.226762    30A      0.228536  
      31A      0.247658    32A      0.282050    33A      0.284031  
      34A      0.323213    35A      0.359898    36A      0.382647  
      37A      0.401386    38A      0.420192    39A      0.462867  
      40A      0.469761    41A      0.481774    42A      0.500033  
      43A      0.516217    44A      0.619600    45A      0.625954  
      46A      0.630545    47A      0.648719    48A      0.664082  
      49A      0.668141    50A      0.678293    51A      0.687311  
      52A      0.703475    53A      0.718318    54A      0.727946  
      55A      0.741895    56A      0.742868    57A      0.757921  
      58A      0.837436    59A      0.965023    60A      0.994644  
      61A      1.004750    62A      1.136880    63A      1.194899  
      64A      1.353573    65A      1.599424    66A      2.271337  
      67A      2.289187    68A      2.338577    69A      2.340426  
      70A      2.358268    71A      2.377558    72A      2.402797  
      73A      2.414915    74A      2.427426    75A      2.444374  
      76A      2.824141    77A      2.885984    78A      2.909561  
      79A      2.928075    80A      2.983306    81A      2.995509  
      82A      3.001545    83A      3.076435    84A      3.132797  
      85A      3.151788    86A      3.241028    87A      3.320385  
      88A      4.955355    89A      5.033290    90A      5.197764  
      91A     23.424206    92A     23.596535    93A     23.626898  
      94A     23.789160    95A     49.969977  

    Final Occupation by Irrep:
              A 
    DOCC [    21 ]

  @DF-RKS Final Energy:  -233.57422927063499

   => Energetics <=

    Nuclear Repulsion Energy =            187.8641960470758363
    One-Electron Energy =                -687.5865963426294911
    Two-Electron Energy =                 289.3966876202246112
    DFT Exchange-Correlation Energy =     -23.2411072403639949
    Empirical Dispersion Energy =          -0.0074093549419517
    VV10 Nonlocal Energy =                  0.0000000000000000
    Total Energy =                       -233.5742292706349872

Computation Completed


Properties will be evaluated at   0.000000,   0.000000,   0.000000 [a0]

Properties computed using the SCF density matrix

  Nuclear Dipole Moment: [e a0]
     X:     4.9039      Y:     0.2537      Z:     1.6400

  Electronic Dipole Moment: [e a0]
     X:    -4.6405      Y:     0.2298      Z:    -1.1358

  Dipole Moment: [e a0]
     X:     0.2635      Y:     0.4835      Z:     0.5042     Total:     0.7466

  Dipole Moment: [D]
     X:     0.6696      Y:     1.2289      Z:     1.2816     Total:     1.8977


*** tstop() called on daniele-Precision-5750 at Thu May 27 11:12:26 2021
Module time:
	user time   =      25.43 seconds =       0.42 minutes
	system time =       0.33 seconds =       0.01 minutes
	total time  =          4 seconds =       0.07 minutes
Total time:
	user time   =      70.45 seconds =       1.17 minutes
	system time =       1.26 seconds =       0.02 minutes
	total time  =         10 seconds =       0.17 minutes

*** tstart() called on daniele-Precision-5750
*** at Thu May 27 11:12:26 2021


         ------------------------------------------------------------
                                   SCF GRAD                          
                          Rob Parrish, Justin Turney,                
                       Andy Simmonett, and Alex Sokolov              
         ------------------------------------------------------------

  ==> Geometry <==

    Molecular point group: c1
    Full point group: C1

    Geometry (in Angstrom), charge = 0, multiplicity = 1:

       Center              X                  Y                   Z               Mass       
    ------------   -----------------  -----------------  -----------------  -----------------
         O           -2.203995810341     0.363225600533    -0.306386573276    15.994914619570
         C           -0.052764286804    -0.601639821136    -0.565033661808    12.000000000000
         C            1.452356364340    -0.686562183874    -0.198954214318    12.000000000000
         C           -0.842985677243     0.465170292407     0.170417117926    12.000000000000
         C            1.940844099955     0.316311222644     0.854900120894    12.000000000000
         H           -0.174494062440    -0.409740195675    -1.633862714223     1.007825032230
         H           -0.546556737946    -1.556261614263    -0.367410584751     1.007825032230
         H            2.047663644080    -0.549654111815    -1.105825451867     1.007825032230
         H            1.676720831402    -1.695872365284     0.156467536731     1.007825032230
         H           -0.787357530635     0.292857016305     1.252382936998     1.007825032230
         H           -0.421450513741     1.455681394321    -0.040835894126     1.007825032230
         H            1.784500406706     1.347836973942     0.532580245433     1.007825032230
         H            3.009816281131     0.183919238115     1.031839089151     1.007825032230
         H            1.428968490706     0.178690873500     1.809728571251     1.007825032230
         H           -2.775513152088     1.021322988496     0.115909570666     1.007825032230

  Nuclear repulsion =  187.864196047075836

  ==> Basis Set <==

  Basis Set: 6-311G
    Blend: 6-311G
    Number of shells: 65
    Number of basis function: 95
    Number of Cartesian functions: 95
    Spherical Harmonics?: true
    Max angular momentum: 1

  ==> DFJKGrad: Density-Fitted SCF Gradients <==

    Gradient:                    1
    J tasked:                  Yes
    K tasked:                  Yes
    wK tasked:                 Yes
    Omega:               2.000E-01
    OpenMP threads:              8
    Integrals threads:           8
    Memory [MiB]:              500
    Schwarz Cutoff:          0E+00
    Fitting Condition:       1E-10

   => Auxiliary Basis Set <=

  Basis Set: (6-311G AUX)
    Blend: CC-PVTZ-JKFIT
    Number of shells: 225
    Number of basis function: 695
    Number of Cartesian functions: 830
    Spherical Harmonics?: true
    Max angular momentum: 4

  ==> DFT Potential <==

   => Composite Functional: WB97X-D <= 

    wB97X-D Hyb-GGA Exchange-Correlation Functional

    J.-D. Chai and M. Head-Gordon, Phys. Chem. Chem. Phys. 10, 6615 (2008)

    Deriv               =              1
    GGA                 =           TRUE
    Meta                =          FALSE

    Exchange Hybrid     =           TRUE
    MP2 Hybrid          =          FALSE

   => Exchange-Correlation Functionals <=

    1.0000   wB97D range-separated functional

   => Exact (HF) Exchange <=

    0.7780            HF,LR [omega = 0.2000]
    0.2220               HF 

   => Molecular Quadrature <=

    Radial Scheme          =       TREUTLER
    Pruning Scheme         =           FLAT
    Nuclear Scheme         =       TREUTLER

    BS radius alpha        =              1
    Pruning alpha          =              1
    Radial Points          =             75
    Spherical Points       =            302
    Total Points           =         336076
    Total Blocks           =           2570
    Max Points             =            256
    Max Functions          =             89


  -Total Gradient:
     Atom            X                  Y                   Z
    ------   -----------------  -----------------  -----------------
       1        0.001958968653    -0.001673533961    -0.000855473461
       2        0.001187139933     0.001768235778     0.001637305589
       3       -0.000442817321     0.000565444546     0.000691667127
       4       -0.002467724036    -0.000562097638    -0.001196926730
       5       -0.001505210628     0.000303998647    -0.000388453715
       6       -0.000145626545     0.000648399456    -0.000585484130
       7       -0.000493811329    -0.000442597219     0.000597190770
       8       -0.000079639684     0.000141780087    -0.000598517841
       9       -0.000318236189    -0.000496294756     0.000150351447
      10        0.002451984067    -0.000947264080     0.000956160331
      11        0.002755977816     0.000061402642    -0.000228472533
      12       -0.000836531983     0.000123893163    -0.000491031779
      13        0.000155221516    -0.000302179535    -0.000231686759
      14       -0.000846992438    -0.000306184439    -0.000021636637
      15       -0.001913211083     0.001154813536     0.000440614809


*** tstop() called on daniele-Precision-5750 at Thu May 27 11:12:27 2021
Module time:
	user time   =      13.06 seconds =       0.22 minutes
	system time =       0.13 seconds =       0.00 minutes
	total time  =          1 seconds =       0.02 minutes
Total time:
	user time   =      83.53 seconds =       1.39 minutes
	system time =       1.39 seconds =       0.02 minutes
	total time  =         11 seconds =       0.18 minutes

			-----------------------------------------
			 OPTKING 2.0: for geometry optimizations 
			  - R.A. King,  Bethel University        
			-----------------------------------------
	At level 1: Red. Int., RFO, no backsteps, dynamic trust

	Previous internal coordinate definitions found.
	---Fragment 1 Geometry and Gradient---
	 O          -4.1649484632        0.6863969068       -0.5789867120
	 C          -0.0997100513       -1.1369344881       -1.0677588725
	 C           2.7445557652       -1.2974144956       -0.3759689766
	 C          -1.5930120577        0.8790444543        0.3220416800
	 C           3.6676638011        0.5977415812        1.6155270931
	 H          -0.3297459885       -0.7742967524       -3.0875530565
	 H          -1.0328425467       -2.9409082305       -0.6943053808
	 H           3.8695234844       -1.0386957351       -2.0897072466
	 H           3.1685431602       -3.2047343141        0.2956807919
	 H          -1.4878900957        0.5534195547        2.3666607551
	 H          -0.7964260464        2.7508391612       -0.0771686560
	 H           3.3722170394        2.5470427425        1.0064308037
	 H           5.6877284593        0.3475569892        1.9498932840
	 H           2.7003590893        0.3376768120        3.4198913611
	 H          -5.2449597151        1.9300207339        0.2190373439
	             0.0019589687       -0.0016735340       -0.0008554735
	             0.0011871399        0.0017682358        0.0016373056
	            -0.0004428173        0.0005654445        0.0006916671
	            -0.0024677240       -0.0005620976       -0.0011969267
	            -0.0015052106        0.0003039986       -0.0003884537
	            -0.0001456265        0.0006483995       -0.0005854841
	            -0.0004938113       -0.0004425972        0.0005971908
	            -0.0000796397        0.0001417801       -0.0005985178
	            -0.0003182362       -0.0004962948        0.0001503514
	             0.0024519841       -0.0009472641        0.0009561603
	             0.0027559778        0.0000614026       -0.0002284725
	            -0.0008365320        0.0001238932       -0.0004910318
	             0.0001552215       -0.0003021795       -0.0002316868
	            -0.0008469924       -0.0003061844       -0.0000216366
	            -0.0019132111        0.0011548135        0.0004406148

	---Fragment 1 Intrafragment Coordinates---
	 - Coordinate -           - BOHR/RAD -       - ANG/DEG -
	 R(1,4)           =         2.732000	       1.445712
	 R(1,15)          =         1.830264	       0.968534
	 R(2,3)           =         2.931582	       1.551327
	 R(2,4)           =         2.868042	       1.517703
	 R(2,6)           =         2.064943	       1.092721
	 R(2,7)           =         2.065073	       1.092789
	 R(3,5)           =         2.899966	       1.534596
	 R(3,8)           =         2.066249	       1.093412
	 R(3,9)           =         2.066095	       1.093330
	 R(4,10)          =         2.073053	       1.097012
	 R(4,11)          =         2.073049	       1.097010
	 R(5,12)          =         2.063507	       1.091961
	 R(5,13)          =         2.062778	       1.091575
	 R(5,14)          =         2.063745	       1.092087
	 B(1,4,2)         =         1.855404	     106.306805
	 B(1,4,10)        =         1.941148	     111.219599
	 B(1,4,11)        =         1.941105	     111.217138
	 B(2,3,5)         =         2.020963	     115.792624
	 B(2,3,8)         =         1.902505	     109.005513
	 B(2,3,9)         =         1.903233	     109.047204
	 B(2,4,10)        =         1.918907	     109.945293
	 B(2,4,11)        =         1.919078	     109.955086
	 B(3,2,4)         =         2.014502	     115.422462
	 B(3,2,6)         =         1.926782	     110.396504
	 B(3,2,7)         =         1.926137	     110.359543
	 B(3,5,12)        =         1.948793	     111.657613
	 B(3,5,13)        =         1.921736	     110.107347
	 B(3,5,14)        =         1.948587	     111.645790
	 B(4,1,15)        =         1.943139	     111.333685
	 B(4,2,6)         =         1.867679	     107.010134
	 B(4,2,7)         =         1.866207	     106.925804
	 B(5,3,8)         =         1.890660	     108.326838
	 B(5,3,9)         =         1.890961	     108.344083
	 B(6,2,7)         =         1.854552	     106.257991
	 B(8,3,9)         =         1.847809	     105.871658
	 B(10,4,11)       =         1.888379	     108.196142
	 B(12,5,13)       =         1.878249	     107.615717
	 B(12,5,14)       =         1.885999	     108.059767
	 B(13,5,14)       =         1.877588	     107.577866
	*D(1,4,2,3)       =        -3.133028	    -179.509281
	 D(1,4,2,6)       =         0.998260	      57.196076
	 D(1,4,2,7)       =        -0.983098	     -56.327377
	*D(2,3,5,12)      =        -1.043805	     -59.805634
	 D(2,3,5,13)      =        -3.129131	    -179.285997
	 D(2,3,5,14)      =         1.069690	      61.288734
	*D(2,4,1,15)      =        -3.135456	    -179.648392
	 D(3,2,4,10)      =        -1.030136	     -59.022458
	 D(3,2,4,11)      =         1.047223	      60.001431
	*D(4,2,3,5)       =        -0.000031	      -0.001765
	 D(4,2,3,8)       =        -2.136301	    -122.401034
	 D(4,2,3,9)       =         2.137213	     122.453292
	 D(5,3,2,6)       =         2.120320	     121.485364
	 D(5,3,2,7)       =        -2.117927	    -121.348286
	 D(6,2,3,8)       =        -0.015951	      -0.913905
	 D(6,2,3,9)       =        -2.025622	    -116.059579
	 D(6,2,4,10)      =         3.101152	     177.682898
	 D(6,2,4,11)      =        -1.104675	     -63.293212
	 D(7,2,3,8)       =         2.028988	     116.252444
	 D(7,2,3,9)       =         0.019317	       1.106770
	 D(7,2,4,10)      =         1.119794	      64.159445
	 D(7,2,4,11)      =        -3.086033	    -176.816665
	 D(8,3,5,12)      =         1.098727	      62.952436
	 D(8,3,5,13)      =        -0.986598	     -56.527927
	 D(8,3,5,14)      =        -3.070963	    -175.953196
	 D(9,3,5,12)      =         3.095653	     177.367842
	 D(9,3,5,13)      =         1.010327	      57.887479
	 D(9,3,5,14)      =        -1.074037	     -61.537789
	 D(10,4,1,15)     =         1.059261	      60.691198
	 D(11,4,1,15)     =        -1.046805	     -59.977514

	Current energy   :      -233.5742292706

	Energy change for the previous step:
		Projected    :        -0.0029434557
		Actual       :        -0.0013457476

	Performing BFGS update.
	Previous computed or guess Hessian on step 1.
	Steps to be used in Hessian update: 1
	Taking RFO optimization step.
	Going to follow RFO solution 1.
	Using RFO vector 1.
	Norm of target step-size    0.05716
	Projected energy change by RFO approximation:        -0.0007532758

	Back-transformation to cartesian coordinates...
	Successfully converged to displaced geometry.

	Back-transformation to cartesian coordinates to adjust frozen coordinates...
	Successfully converged to displaced geometry.

	--- Internal Coordinate Step in ANG or DEG, aJ/ANG or AJ/DEG ---
	 ---------------------------------------------------------------------------
	   Coordinate                Previous        Force       Change         New 
	   ----------                --------       ------       ------       ------
	    1 R(1,4)          =      1.445712    -0.000546     0.001346     1.447058
	    2 R(1,15)         =      0.968534    -0.017122    -0.002445     0.966089
	    3 R(2,3)          =      1.551327     0.030558     0.004519     1.555845
	    4 R(2,4)          =      1.517703     0.027744     0.001911     1.519614
	    5 R(2,6)          =      1.092721    -0.005683    -0.001502     1.091219
	    6 R(2,7)          =      1.092789    -0.005811    -0.001519     1.091271
	    7 R(3,5)          =      1.534596     0.014660     0.001563     1.536159
	    8 R(3,8)          =      1.093412    -0.003977    -0.001082     1.092330
	    9 R(3,9)          =      1.093330    -0.003730    -0.001049     1.092282
	   10 R(4,10)         =      1.097012    -0.010085    -0.001575     1.095437
	   11 R(4,11)         =      1.097010    -0.009598    -0.001503     1.095507
	   12 R(5,12)         =      1.091961    -0.003103    -0.000757     1.091204
	   13 R(5,13)         =      1.091575    -0.001527    -0.000630     1.090945
	   14 R(5,14)         =      1.092087    -0.003382    -0.000799     1.091287
	   15 B(1,4,2)        =    106.306805     0.000047    -0.065104   106.241701
	   16 B(1,4,10)       =    111.219599    -0.000139    -0.814134   110.405466
	   17 B(1,4,11)       =    111.217138    -0.000137    -0.812117   110.405021
	   18 B(2,3,5)        =    115.792624     0.000428     1.149121   116.941745
	   19 B(2,3,8)        =    109.005513    -0.000117    -0.162781   108.842732
	   20 B(2,3,9)        =    109.047204    -0.000105    -0.134464   108.912740
	   21 B(2,4,10)       =    109.945293     0.000134     0.758905   110.704198
	   22 B(2,4,11)       =    109.955086     0.000134     0.771433   110.726519
	   23 B(3,2,4)        =    115.422462     0.000375     0.934665   116.357128
	   24 B(3,2,6)        =    110.396504    -0.000114    -0.160923   110.235581
	   25 B(3,2,7)        =    110.359543    -0.000114    -0.154048   110.205495
	   26 B(3,5,12)       =    111.657613     0.000062     0.291088   111.948700
	   27 B(3,5,13)       =    110.107347     0.000011    -0.083965   110.023383
	   28 B(3,5,14)       =    111.645790     0.000055     0.289658   111.935448
	   29 B(4,1,15)       =    111.333685    -0.000118    -0.144531   111.189154
	   30 B(4,2,6)        =    107.010134    -0.000104    -0.210840   106.799294
	   31 B(4,2,7)        =    106.925804    -0.000101    -0.212419   106.713385
	   32 B(5,3,8)        =    108.326838    -0.000142    -0.388746   107.938091
	   33 B(5,3,9)        =    108.344083    -0.000145    -0.368638   107.975445
	   34 B(6,2,7)        =    106.257991     0.000037    -0.297746   105.960246
	   35 B(8,3,9)        =    105.871658     0.000053    -0.215301   105.656357
	   36 B(10,4,11)      =    108.196142    -0.000031     0.169321   108.365463
	   37 B(12,5,13)      =    107.615717    -0.000042    -0.221387   107.394330
	   38 B(12,5,14)      =    108.059767    -0.000046    -0.077641   107.982125
	   39 B(13,5,14)      =    107.577866    -0.000047    -0.236771   107.341095
	   40 *D(1,4,2,3)     =   -179.509281    -0.000000     0.000000  -179.509281
	   41 D(1,4,2,6)      =     57.196076    -0.000006    -0.264812    56.931263
	   42 D(1,4,2,7)      =    -56.327377     0.000006     0.269918   -56.057459
	   43 *D(2,3,5,12)    =    -59.805634    -0.000000     0.000000   -59.805634
	   44 D(2,3,5,13)     =   -179.285997     0.000001     0.146065  -179.139932
	   45 D(2,3,5,14)     =     61.288734     0.000005     0.312419    61.601154
	   46 *D(2,4,1,15)    =   -179.648392    -0.000000     0.000000  -179.648392
	   47 D(3,2,4,10)     =    -59.022458    -0.000015    -0.597187   -59.619645
	   48 D(3,2,4,11)     =     60.001431     0.000014     0.587835    60.589266
	   49 *D(4,2,3,5)     =     -0.001765    -0.000000     0.000000    -0.001765
	   50 D(4,2,3,8)      =   -122.401034    -0.000006    -0.181837  -122.582871
	   51 D(4,2,3,9)      =    122.453292     0.000007     0.233656   122.686948
	   52 D(5,3,2,6)      =    121.485364     0.000010     0.276531   121.761896
	   53 D(5,3,2,7)      =   -121.348286    -0.000011    -0.277794  -121.626080
	   54 D(6,2,3,8)      =     -0.913905     0.000004     0.094694    -0.819211
	   55 D(6,2,3,9)      =   -116.059579     0.000018     0.510188  -115.549392
	   56 D(6,2,4,10)     =    177.682898    -0.000021    -0.861999   176.820899
	   57 D(6,2,4,11)     =    -63.293212     0.000008     0.323022   -62.970190
	   58 D(7,2,3,8)      =    116.252444    -0.000017    -0.459631   115.792814
	   59 D(7,2,3,9)      =      1.106770    -0.000004    -0.044137     1.062633
	   60 D(7,2,4,10)     =     64.159445    -0.000008    -0.327269    63.832176
	   61 D(7,2,4,11)     =   -176.816665     0.000021     0.857753  -175.958913
	   62 D(8,3,5,12)     =     62.952436     0.000008     0.289484    63.241920
	   63 D(8,3,5,13)     =    -56.527927     0.000009     0.435550   -56.092377
	   64 D(8,3,5,14)     =   -175.953196     0.000013     0.601904  -175.351292
	   65 D(9,3,5,12)     =    177.367842    -0.000011    -0.344845   177.022998
	   66 D(9,3,5,13)     =     57.887479    -0.000010    -0.198779    57.688700
	   67 D(9,3,5,14)     =    -61.537789    -0.000006    -0.032425   -61.570215
	   68 D(10,4,1,15)    =     60.691198    -0.000026    -0.423350    60.267848
	   69 D(11,4,1,15)    =    -59.977514     0.000026     0.439454   -59.538060
	 ---------------------------------------------------------------------------
	Successfully symmetrized geometry.

  ==> Convergence Check <==

  Measures of convergence in internal coordinates in au.
  Criteria marked as inactive (o), active & met (*), and active & unmet ( ).
  ---------------------------------------------------------------------------------------------
   Step     Total Energy     Delta E     MAX Force     RMS Force      MAX Disp      RMS Disp   
  ---------------------------------------------------------------------------------------------
    Convergence Criteria             o    2.50e-03 *    1.70e-03 *    1.00e-02 *    6.70e-03 *
  ---------------------------------------------------------------------------------------------
      2    -233.57422927   -1.35e-03 o    5.62e-03      1.45e-03 *    2.01e-02      6.88e-03    ~
  ---------------------------------------------------------------------------------------------

	Writing optimization data to binary file.
	Structure for next step:
	Cartesian Geometry (in Angstrom)
	    O    -2.2215783864   0.3565266252  -0.3156604427
	    C    -0.0566587163  -0.5835091407  -0.5660931874
	    C     1.4535705527  -0.6762667478  -0.2037975350
	    C    -0.8649268427   0.4683326984   0.1752283334
	    C     1.9749111094   0.2996767033   0.8618109872
	    H    -0.1774613622  -0.3810666304  -1.6315421873
	    H    -0.5471938497  -1.5413752357  -0.3851517376
	    H     2.0436999665  -0.5301575732  -1.1113128638
	    H     1.6754290726  -1.6917709659   0.1317756393
	    H    -0.8338050439   0.2902979108   1.2556533822
	    H    -0.4691587173   1.4708398589  -0.0209416989
	    H     1.8326319447   1.3404061169   0.5662335959
	    H     3.0441244184   0.1477792201   1.0163154647
	    H     1.4829954823   0.1526782769   1.8247847315
	    H    -2.8008273027   1.0028941908   0.1086136066
			--------------------------
			 OPTKING Finished Execution 
			--------------------------

    Structure for next step:
    Molecular point group: c1
    Full point group: C1

    Geometry (in Angstrom), charge = 0, multiplicity = 1:

    O           -2.219422635364     0.355662901204    -0.314647630919
    C           -0.054502956791    -0.584372868386    -0.565080376669
    C            1.455726318097    -0.677130475879    -0.202784722760
    C           -0.862771086394     0.467468974789     0.176241147066
    C            1.977066876908     0.298812979050     0.862823803546
    H           -0.175305603127    -0.381930357378    -1.630529380745
    H           -0.545038092148    -1.542238967142    -0.384138926138
    H            2.045855734208    -0.531021300744    -1.110300055139
    H            1.677584838944    -1.692634698017     0.132788452820
    H           -0.831649287479     0.289434186556     1.256666200099
    H           -0.467002959414     1.469976139273    -0.019928886022
    H            1.834787711622     1.339542396755     0.567246411170
    H            3.046280190066     0.146915495268     1.017328281685
    H            1.485151247813     0.151814552042     1.825797551698
    H           -2.798671554026     1.002030469335     0.109626420045

gradient() will perform analytic gradient computation.

*** tstart() called on daniele-Precision-5750
*** at Thu May 27 11:12:27 2021

   => Loading Basis Set <=

    Name: 6-311G
    Role: ORBITAL
    Keyword: BASIS
    atoms 1    entry O          line   126 file /home/daniele/anaconda3/envs/poltype/share/psi4/basis/6-311g.gbs 
    atoms 2-5  entry C          line    92 file /home/daniele/anaconda3/envs/poltype/share/psi4/basis/6-311g.gbs 
    atoms 6-15 entry H          line    21 file /home/daniele/anaconda3/envs/poltype/share/psi4/basis/6-311g.gbs 


         ---------------------------------------------------------
                                   SCF
               by Justin Turney, Rob Parrish, Andy Simmonett
                          and Daniel G. A. Smith
                              RKS Reference
                        8 Threads,    667 MiB Core
         ---------------------------------------------------------

  ==> Geometry <==

    Molecular point group: c1
    Full point group: C1

    Geometry (in Angstrom), charge = 0, multiplicity = 1:

       Center              X                  Y                   Z               Mass       
    ------------   -----------------  -----------------  -----------------  -----------------
         O           -2.219422635364     0.355662901204    -0.314647630919    15.994914619570
         C           -0.054502956791    -0.584372868386    -0.565080376669    12.000000000000
         C            1.455726318097    -0.677130475879    -0.202784722760    12.000000000000
         C           -0.862771086394     0.467468974789     0.176241147066    12.000000000000
         C            1.977066876908     0.298812979050     0.862823803546    12.000000000000
         H           -0.175305603127    -0.381930357378    -1.630529380745     1.007825032230
         H           -0.545038092148    -1.542238967142    -0.384138926138     1.007825032230
         H            2.045855734208    -0.531021300744    -1.110300055139     1.007825032230
         H            1.677584838944    -1.692634698017     0.132788452820     1.007825032230
         H           -0.831649287479     0.289434186556     1.256666200099     1.007825032230
         H           -0.467002959414     1.469976139273    -0.019928886022     1.007825032230
         H            1.834787711622     1.339542396755     0.567246411170     1.007825032230
         H            3.046280190066     0.146915495268     1.017328281685     1.007825032230
         H            1.485151247813     0.151814552042     1.825797551698     1.007825032230
         H           -2.798671554026     1.002030469335     0.109626420045     1.007825032230

  Running in c1 symmetry.

  Rotational constants: A =      0.39010  B =      0.08181  C =      0.07118 [cm^-1]
  Rotational constants: A =  11694.95534  B =   2452.63129  C =   2133.92036 [MHz]
  Nuclear repulsion =  187.193432171247338

  Charge       = 0
  Multiplicity = 1
  Electrons    = 42
  Nalpha       = 21
  Nbeta        = 21

  ==> Algorithm <==

  SCF Algorithm Type is DF.
  DIIS enabled.
  MOM disabled.
  Fractional occupation disabled.
  Guess Type is READ.
  Energy threshold   = 1.00e-08
  Density threshold  = 1.00e-08
  Integral threshold = 0.00e+00

  ==> Primary Basis <==

  Basis Set: 6-311G
    Blend: 6-311G
    Number of shells: 65
    Number of basis function: 95
    Number of Cartesian functions: 95
    Spherical Harmonics?: true
    Max angular momentum: 1

  ==> DFT Potential <==

   => Composite Functional: WB97X-D <= 

    wB97X-D Hyb-GGA Exchange-Correlation Functional

    J.-D. Chai and M. Head-Gordon, Phys. Chem. Chem. Phys. 10, 6615 (2008)

    Deriv               =              1
    GGA                 =           TRUE
    Meta                =          FALSE

    Exchange Hybrid     =           TRUE
    MP2 Hybrid          =          FALSE

   => Exchange-Correlation Functionals <=

    1.0000   wB97D range-separated functional

   => Exact (HF) Exchange <=

    0.7780            HF,LR [omega = 0.2000]
    0.2220               HF 

   => Molecular Quadrature <=

    Radial Scheme          =       TREUTLER
    Pruning Scheme         =           FLAT
    Nuclear Scheme         =       TREUTLER

    BS radius alpha        =              1
    Pruning alpha          =              1
    Radial Points          =             75
    Spherical Points       =            302
    Total Points           =         336088
    Total Blocks           =           2580
    Max Points             =            256
    Max Functions          =             89

   => WB97X-D: Empirical Dispersion <=

    Chai and Head-Gordon Dispersion Correction
    Chai, J.-D.; Head-Gordon, M. (2010), J. Chem. Phys., 132: 6615-6620

        s6 =       1.000000

   => Loading Basis Set <=

    Name: (6-311G AUX)
    Role: JKFIT
    Keyword: DF_BASIS_SCF
    atoms 1    entry O          line   229 file /home/daniele/anaconda3/envs/poltype/share/psi4/basis/cc-pvtz-jkfit.gbs 
    atoms 2-5  entry C          line   125 file /home/daniele/anaconda3/envs/poltype/share/psi4/basis/cc-pvtz-jkfit.gbs 
    atoms 6-15 entry H          line    51 file /home/daniele/anaconda3/envs/poltype/share/psi4/basis/cc-pvtz-jkfit.gbs 

   => Loading Basis Set <=

    Name: 6-311G
    Role: ORBITAL
    Keyword: BASIS
    atoms 1    entry O          line   126 file /home/daniele/anaconda3/envs/poltype/share/psi4/basis/6-311g.gbs 
    atoms 2-5  entry C          line    92 file /home/daniele/anaconda3/envs/poltype/share/psi4/basis/6-311g.gbs 
    atoms 6-15 entry H          line    21 file /home/daniele/anaconda3/envs/poltype/share/psi4/basis/6-311g.gbs 

  Reading orbitals from file 180, no projection.

  ==> Pre-Iterations <==

   -------------------------------------------------------
    Irrep   Nso     Nmo     Nalpha   Nbeta   Ndocc  Nsocc
   -------------------------------------------------------
     A         95      95       0       0       0       0
   -------------------------------------------------------
    Total      95      95      21      21      21       0
   -------------------------------------------------------

  ==> Integral Setup <==

  ==> DiskDFJK: Density-Fitted J/K Matrices <==

    J tasked:                  Yes
    K tasked:                  Yes
    wK tasked:                 Yes
    Omega:               2.000E-01
    OpenMP threads:              8
    Integrals threads:           8
    Memory [MiB]:               34
    Algorithm:                Disk
    Integral Cache:           NONE
    Schwarz Cutoff:          1E-12
    Fitting Condition:       1E-10

   => Auxiliary Basis Set <=

  Basis Set: (6-311G AUX)
    Blend: CC-PVTZ-JKFIT
    Number of shells: 225
    Number of basis function: 695
    Number of Cartesian functions: 830
    Spherical Harmonics?: true
    Max angular momentum: 4

  Cached 100.0% of DFT collocation blocks in 0.678 [GiB].

  Minimum eigenvalue in the overlap matrix is 1.6318418821E-03.
  Using Symmetric Orthogonalization.

  SCF Guess: Orbitals guess was supplied from a previous computation.

  ==> Iterations <==

                           Total Energy        Delta E     RMS |[F,P]|

   @DF-RKS iter   0:  -233.57502100867961   -2.33575e+02   4.08398e-04 
   @DF-RKS iter   1:  -233.57441446078553    6.06548e-04   6.38099e-05 DIIS
   @DF-RKS iter   2:  -233.57444386037534   -2.93996e-05   4.29602e-05 DIIS
   @DF-RKS iter   3:  -233.57445044414925   -6.58377e-06   1.68636e-05 DIIS
   @DF-RKS iter   4:  -233.57445170050809   -1.25636e-06   4.40721e-06 DIIS
   @DF-RKS iter   5:  -233.57445178424553   -8.37374e-08   5.85952e-07 DIIS
   @DF-RKS iter   6:  -233.57445178745024   -3.20472e-09   1.05386e-07 DIIS
   @DF-RKS iter   7:  -233.57445178760429   -1.54046e-10   5.56836e-08 DIIS
   @DF-RKS iter   8:  -233.57445178762418   -1.98952e-11   1.03469e-08 DIIS
   @DF-RKS iter   9:  -233.57445178762580   -1.62004e-12   2.25633e-09 DIIS
  Energy and wave function converged.


  ==> Post-Iterations <==

    Orbital Energies [Eh]
    ---------------------

    Doubly Occupied:                                                      

       1A    -19.234181     2A    -10.328741     3A    -10.280888  
       4A    -10.273183     5A    -10.272441     6A     -1.118651  
       7A     -0.894891     8A     -0.819434     9A     -0.743400  
      10A     -0.661404    11A     -0.600810    12A     -0.572176  
      13A     -0.520468    14A     -0.513812    15A     -0.487287  
      16A     -0.462233    17A     -0.436289    18A     -0.419387  
      19A     -0.397946    20A     -0.395645    21A     -0.350753  

    Virtual:                                                              

      22A      0.115946    23A      0.122172    24A      0.153793  
      25A      0.154486    26A      0.179443    27A      0.189349  
      28A      0.209781    29A      0.224179    30A      0.227173  
      31A      0.246470    32A      0.280827    33A      0.281922  
      34A      0.321507    35A      0.359165    36A      0.383170  
      37A      0.403585    38A      0.419160    39A      0.458224  
      40A      0.470991    41A      0.484671    42A      0.501387  
      43A      0.517459    44A      0.617801    45A      0.625413  
      46A      0.630848    47A      0.646937    48A      0.664083  
      49A      0.666595    50A      0.677969    51A      0.684008  
      52A      0.704729    53A      0.716800    54A      0.725998  
      55A      0.740843    56A      0.741803    57A      0.758129  
      58A      0.836561    59A      0.964716    60A      0.993283  
      61A      1.003711    62A      1.130915    63A      1.194587  
      64A      1.337116    65A      1.597271    66A      2.271275  
      67A      2.308324    68A      2.337733    69A      2.339415  
      70A      2.366415    71A      2.379524    72A      2.386313  
      73A      2.413129    74A      2.426489    75A      2.436411  
      76A      2.825842    77A      2.883960    78A      2.909380  
      79A      2.932663    80A      2.983488    81A      2.994737  
      82A      2.999738    83A      3.079216    84A      3.128087  
      85A      3.137173    86A      3.242123    87A      3.316669  
      88A      4.955239    89A      5.033388    90A      5.199801  
      91A     23.424240    92A     23.590971    93A     23.626055  
      94A     23.779480    95A     49.969388  

    Final Occupation by Irrep:
              A 
    DOCC [    21 ]

[...]
    Fitting Condition:       1E-10

   => Auxiliary Basis Set <=

  Basis Set: (6-311G AUX)
    Blend: CC-PVTZ-JKFIT
    Number of shells: 225
    Number of basis function: 695
    Number of Cartesian functions: 830
    Spherical Harmonics?: true
    Max angular momentum: 4

  ==> DFT Potential <==

   => Composite Functional: WB97X-D <= 

    wB97X-D Hyb-GGA Exchange-Correlation Functional

    J.-D. Chai and M. Head-Gordon, Phys. Chem. Chem. Phys. 10, 6615 (2008)

    Deriv               =              1
    GGA                 =           TRUE
    Meta                =          FALSE

    Exchange Hybrid     =           TRUE
    MP2 Hybrid          =          FALSE

   => Exchange-Correlation Functionals <=

    1.0000   wB97D range-separated functional

   => Exact (HF) Exchange <=

    0.7780            HF,LR [omega = 0.2000]
    0.2220               HF 

   => Molecular Quadrature <=

    Radial Scheme          =       TREUTLER
    Pruning Scheme         =           FLAT
    Nuclear Scheme         =       TREUTLER

    BS radius alpha        =              1
    Pruning alpha          =              1
    Radial Points          =             75
    Spherical Points       =            302
    Total Points           =         336088
    Total Blocks           =           2580
    Max Points             =            256
    Max Functions          =             89


  -Total Gradient:
     Atom            X                  Y                   Z
    ------   -----------------  -----------------  -----------------
       1        0.001038182077     0.000766274842     0.001085927173
       2       -0.000321945394     0.000180648901    -0.000249659277
       3        0.000401327959    -0.000112096574     0.000399241803
       4       -0.001363003030    -0.000934470737    -0.001243286027
       5        0.000852415737    -0.000019431001    -0.000021184320
       6       -0.000369340160     0.000105791178     0.000390275235
       7       -0.000243339761     0.000478541073    -0.000029785585
       8       -0.000106120114    -0.000006351351     0.000344048068
       9        0.000010175088     0.000356487618    -0.000039392289
      10       -0.000046471802    -0.000130073770     0.000007681812
      11        0.000004703045     0.000011411811    -0.000139379120
      12        0.000016181855    -0.000387823746     0.000158360420
      13       -0.000367216989     0.000105638103     0.000014700366
      14        0.000310311171     0.000002787612    -0.000295538256
      15       -0.000385149755    -0.000374394804    -0.000492309117


*** tstop() called on daniele-Precision-5750 at Thu May 27 11:12:32 2021
Module time:
	user time   =      12.96 seconds =       0.22 minutes
	system time =       0.12 seconds =       0.00 minutes
	total time  =          1 seconds =       0.02 minutes
Total time:
	user time   =     121.89 seconds =       2.03 minutes
	system time =       1.87 seconds =       0.03 minutes
	total time  =         16 seconds =       0.27 minutes

			-----------------------------------------
			 OPTKING 2.0: for geometry optimizations 
			  - R.A. King,  Bethel University        
			-----------------------------------------
	At level 1: Red. Int., RFO, no backsteps, dynamic trust

	Previous internal coordinate definitions found.
	---Fragment 1 Geometry and Gradient---
	 O          -4.1941009375        0.6721054763       -0.5945978485
	 C          -0.1029956614       -1.1043046764       -1.0678471508
	 C           2.7509240548       -1.2795911506       -0.3832075884
	 C          -1.6304010622        0.8833883345        0.3330475000
	 C           3.7361149291        0.5646746931        1.6305006832
	 H          -0.3312795782       -0.7217437744       -3.0812539691
	 H          -1.0299727221       -2.9144092679       -0.7259173645
	 H           3.8661070299       -1.0034848252       -2.0981630213
	 H           3.1701758978       -3.1986160097        0.2509338085
	 H          -1.5715893858        0.5469513439        2.3747549493
	 H          -0.8825076931        2.7778523142       -0.0376601366
	 H           3.4672462733        2.5313682633        1.0719403628
	 H           5.7566352606        0.2776300496        1.9224718321
	 H           2.8065291132        0.2868879252        3.4502573332
	 H          -5.2887227522        1.8935631564        0.2071639100
	             0.0010381821        0.0007662748        0.0010859272
	            -0.0003219454        0.0001806489       -0.0002496593
	             0.0004013280       -0.0001120966        0.0003992418
	            -0.0013630030       -0.0009344707       -0.0012432860
	             0.0008524157       -0.0000194310       -0.0000211843
	            -0.0003693402        0.0001057912        0.0003902752
	            -0.0002433398        0.0004785411       -0.0000297856
	            -0.0001061201       -0.0000063514        0.0003440481
	             0.0000101751        0.0003564876       -0.0000393923
	            -0.0000464718       -0.0001300738        0.0000076818
	             0.0000047030        0.0000114118       -0.0001393791
	             0.0000161819       -0.0003878237        0.0001583604
	            -0.0003672170        0.0001056381        0.0000147004
	             0.0003103112        0.0000027876       -0.0002955383
	            -0.0003851498       -0.0003743948       -0.0004923091

	---Fragment 1 Intrafragment Coordinates---
	 - Coordinate -           - BOHR/RAD -       - ANG/DEG -
	 R(1,4)           =         2.734543	       1.447058
	 R(1,15)          =         1.825644	       0.966089
	 R(2,3)           =         2.940121	       1.555845
	 R(2,4)           =         2.871654	       1.519614
	 R(2,6)           =         2.062104	       1.091219
	 R(2,7)           =         2.062203	       1.091271
	 R(3,5)           =         2.902919	       1.536159
	 R(3,8)           =         2.064204	       1.092330
	 R(3,9)           =         2.064113	       1.092282
	 R(4,10)          =         2.070077	       1.095437
	 R(4,11)          =         2.070208	       1.095507
	 R(5,12)          =         2.062077	       1.091204
	 R(5,13)          =         2.061588	       1.090945
	 R(5,14)          =         2.062234	       1.091287
	 B(1,4,2)         =         1.854267	     106.241701
	 B(1,4,10)        =         1.926939	     110.405466
	 B(1,4,11)        =         1.926931	     110.405021
	 B(2,3,5)         =         2.041018	     116.941745
	 B(2,3,8)         =         1.899664	     108.842732
	 B(2,3,9)         =         1.900886	     108.912740
	 B(2,4,10)        =         1.932153	     110.704198
	 B(2,4,11)        =         1.932542	     110.726519
	 B(3,2,4)         =         2.030815	     116.357128
	 B(3,2,6)         =         1.923974	     110.235581
	 B(3,2,7)         =         1.923449	     110.205495
	 B(3,5,12)        =         1.953873	     111.948700
	 B(3,5,13)        =         1.920270	     110.023383
	 B(3,5,14)        =         1.953642	     111.935448
	 B(4,1,15)        =         1.940617	     111.189154
	 B(4,2,6)         =         1.863999	     106.799294
	 B(4,2,7)         =         1.862500	     106.713385
	 B(5,3,8)         =         1.883875	     107.938091
	 B(5,3,9)         =         1.884527	     107.975445
	 B(6,2,7)         =         1.849355	     105.960246
	 B(8,3,9)         =         1.844051	     105.656357
	 B(10,4,11)       =         1.891334	     108.365463
	 B(12,5,13)       =         1.874385	     107.394330
	 B(12,5,14)       =         1.884644	     107.982125
	 B(13,5,14)       =         1.873456	     107.341095
	*D(1,4,2,3)       =        -3.133028	    -179.509281
	 D(1,4,2,6)       =         0.993638	      56.931263
	 D(1,4,2,7)       =        -0.978387	     -56.057459
	*D(2,3,5,12)      =        -1.043805	     -59.805634
	 D(2,3,5,13)      =        -3.126582	    -179.139932
	 D(2,3,5,14)      =         1.075143	      61.601154
	*D(2,4,1,15)      =        -3.135456	    -179.648392
	 D(3,2,4,10)      =        -1.040559	     -59.619645
	 D(3,2,4,11)      =         1.057482	      60.589266
	*D(4,2,3,5)       =        -0.000031	      -0.001765
	 D(4,2,3,8)       =        -2.139475	    -122.582871
	 D(4,2,3,9)       =         2.141291	     122.686948
	 D(5,3,2,6)       =         2.125146	     121.761896
	 D(5,3,2,7)       =        -2.122776	    -121.626080
	 D(6,2,3,8)       =        -0.014298	      -0.819211
	 D(6,2,3,9)       =        -2.016717	    -115.549392
	 D(6,2,4,10)      =         3.086107	     176.820899
	 D(6,2,4,11)      =        -1.099037	     -62.970190
	 D(7,2,3,8)       =         2.020966	     115.792814
	 D(7,2,3,9)       =         0.018546	       1.062633
	 D(7,2,4,10)      =         1.114082	      63.832176
	 D(7,2,4,11)      =        -3.071062	    -175.958913
	 D(8,3,5,12)      =         1.103780	      63.241920
	 D(8,3,5,13)      =        -0.978997	     -56.092377
	 D(8,3,5,14)      =        -3.060457	    -175.351292
	 D(9,3,5,12)      =         3.089634	     177.022998
	 D(9,3,5,13)      =         1.006858	      57.688700
	 D(9,3,5,14)      =        -1.074603	     -61.570215
	 D(10,4,1,15)     =         1.051872	      60.267848
	 D(11,4,1,15)     =        -1.039135	     -59.538060

	Current energy   :      -233.5744517876

	Energy change for the previous step:
		Projected    :        -0.0007532758
		Actual       :        -0.0002225170

	Performing BFGS update.
	Previous computed or guess Hessian on step 1.
	Steps to be used in Hessian update: 2 1
	Taking RFO optimization step.
	Going to follow RFO solution 1.
	Using RFO vector 1.
	Norm of target step-size    0.01564
	Projected energy change by RFO approximation:        -0.0000550967

	Back-transformation to cartesian coordinates...
	Successfully converged to displaced geometry.

	Back-transformation to cartesian coordinates to adjust frozen coordinates...
	Successfully converged to displaced geometry.

	--- Internal Coordinate Step in ANG or DEG, aJ/ANG or AJ/DEG ---
	 ---------------------------------------------------------------------------
	   Coordinate                Previous        Force       Change         New 
	   ----------                --------       ------       ------       ------
	    1 R(1,4)          =      1.447058     0.007523     0.001136     1.448194
	    2 R(1,15)         =      0.966089     0.002167    -0.000033     0.966057
	    3 R(2,3)          =      1.555845    -0.012282    -0.002013     1.553833
	    4 R(2,4)          =      1.519614     0.004521     0.001024     1.520638
	    5 R(2,6)          =      1.091219     0.002747     0.000274     1.091493
	    6 R(2,7)          =      1.091271     0.002704     0.000266     1.091537
	    7 R(3,5)          =      1.536159    -0.000535     0.000054     1.536212
	    8 R(3,8)          =      1.092330     0.002722     0.000307     1.092637
	    9 R(3,9)          =      1.092282     0.002717     0.000310     1.092592
	   10 R(4,10)         =      1.095437    -0.000285    -0.000198     1.095240
	   11 R(4,11)         =      1.095507    -0.000364    -0.000204     1.095303
	   12 R(5,12)         =      1.091204     0.003461     0.000452     1.091657
	   13 R(5,13)         =      1.090945     0.002767     0.000360     1.091305
	   14 R(5,14)         =      1.091287     0.003377     0.000436     1.091723
	   15 B(1,4,2)        =    106.241701    -0.000003    -0.003884   106.237817
	   16 B(1,4,10)       =    110.405466    -0.000000    -0.084050   110.321416
	   17 B(1,4,11)       =    110.405021    -0.000001    -0.084849   110.320172
	   18 B(2,3,5)        =    116.941745    -0.000144    -0.329288   116.612457
	   19 B(2,3,8)        =    108.842732     0.000038     0.038842   108.881574
	   20 B(2,3,9)        =    108.912740     0.000034     0.035681   108.948421
	   21 B(2,4,10)       =    110.704198     0.000006     0.104588   110.808786
	   22 B(2,4,11)       =    110.726519     0.000006     0.108318   110.834837
	   23 B(3,2,4)        =    116.357128    -0.000127    -0.300657   116.056471
	   24 B(3,2,6)        =    110.235581     0.000016    -0.058836   110.176745
	   25 B(3,2,7)        =    110.205495     0.000017    -0.058669   110.146826
	   26 B(3,5,12)       =    111.948700    -0.000004     0.002497   111.951198
	   27 B(3,5,13)       =    110.023383    -0.000006    -0.005228   110.018155
	   28 B(3,5,14)       =    111.935448    -0.000007    -0.015145   111.920303
	   29 B(4,1,15)       =    111.189154    -0.000092    -0.365306   110.823848
	   30 B(4,2,6)        =    106.799294     0.000061     0.204155   107.003449
	   31 B(4,2,7)        =    106.713385     0.000059     0.195985   106.909370
	   32 B(5,3,8)        =    107.938091     0.000051     0.111805   108.049896
	   33 B(5,3,9)        =    107.975445     0.000052     0.113402   108.088847
	   34 B(6,2,7)        =    105.960246    -0.000016     0.059640   106.019886
	   35 B(8,3,9)        =    105.656357    -0.000020     0.066143   105.722500
	   36 B(10,4,11)      =    108.365463    -0.000008    -0.040063   108.325400
	   37 B(12,5,13)      =    107.394330     0.000007     0.031419   107.425749
	   38 B(12,5,14)      =    107.982125     0.000001    -0.051801   107.930324
	   39 B(13,5,14)      =    107.341095     0.000011     0.041250   107.382345
	   40 *D(1,4,2,3)     =   -179.509281    -0.000000    -0.000000  -179.509281
	   41 D(1,4,2,6)      =     56.931263     0.000004     0.123066    57.054330
	   42 D(1,4,2,7)      =    -56.057459    -0.000004    -0.128560   -56.186019
	   43 *D(2,3,5,12)    =    -59.805634     0.000000    -0.000000   -59.805634
	   44 D(2,3,5,13)     =   -179.139932    -0.000000    -0.037591  -179.177523
	   45 D(2,3,5,14)     =     61.601154    -0.000002    -0.076152    61.525002
	   46 *D(2,4,1,15)    =   -179.648392     0.000000    -0.000000  -179.648392
	   47 D(3,2,4,10)     =    -59.619645     0.000000    -0.045665   -59.665310
	   48 D(3,2,4,11)     =     60.589266    -0.000000     0.044548    60.633814
	   49 *D(4,2,3,5)     =     -0.001765    -0.000000    -0.000000    -0.001765
	   50 D(4,2,3,8)      =   -122.582871     0.000001     0.058486  -122.524385
	   51 D(4,2,3,9)      =    122.686948    -0.000002    -0.059756   122.627192
	   52 D(5,3,2,6)      =    121.761896     0.000000     0.003614   121.765509
	   53 D(5,3,2,7)      =   -121.626080     0.000000     0.006427  -121.619653
	   54 D(6,2,3,8)      =     -0.819211     0.000001     0.062100    -0.757111
	   55 D(6,2,3,9)      =   -115.549392    -0.000002    -0.056142  -115.605534
	   56 D(6,2,4,10)     =    176.820899     0.000004     0.077402   176.898301
	   57 D(6,2,4,11)     =    -62.970190     0.000004     0.167615   -62.802575
	   58 D(7,2,3,8)      =    115.792814     0.000002     0.064913   115.857727
	   59 D(7,2,3,9)      =      1.062633    -0.000002    -0.053329     1.009304
	   60 D(7,2,4,10)     =     63.832176    -0.000004    -0.174225    63.657952
	   61 D(7,2,4,11)     =   -175.958913    -0.000004    -0.084011  -176.042924
	   62 D(8,3,5,12)     =     63.241920    -0.000003    -0.092971    63.148949
	   63 D(8,3,5,13)     =    -56.092377    -0.000003    -0.130562   -56.222939
	   64 D(8,3,5,14)     =   -175.351292    -0.000004    -0.169123  -175.520415
	   65 D(9,3,5,12)     =    177.022998     0.000004     0.096528   177.119526
	   66 D(9,3,5,13)     =     57.688700     0.000003     0.058938    57.747638
	   67 D(9,3,5,14)     =    -61.570215     0.000002     0.020377   -61.549838
	   68 D(10,4,1,15)    =     60.267848    -0.000001    -0.076891    60.190957
	   69 D(11,4,1,15)    =    -59.538060     0.000001     0.080916   -59.457144
	 ---------------------------------------------------------------------------
	Successfully symmetrized geometry.

  ==> Convergence Check <==

  Measures of convergence in internal coordinates in au.
  Criteria marked as inactive (o), active & met (*), and active & unmet ( ).
  ---------------------------------------------------------------------------------------------
   Step     Total Energy     Delta E     MAX Force     RMS Force      MAX Disp      RMS Disp   
  ---------------------------------------------------------------------------------------------
    Convergence Criteria             o    2.50e-03 *    1.70e-03 *    1.00e-02 *    6.70e-03 *
  ---------------------------------------------------------------------------------------------
      3    -233.57445179   -2.23e-04 o    1.89e-03 *    4.76e-04 *    6.38e-03 *    1.88e-03 *  ~
  ---------------------------------------------------------------------------------------------


  **** Optimization is complete! (in 3 steps) ****

  ==> Optimization Summary <==

  Measures of convergence in internal coordinates in au.
  --------------------------------------------------------------------------------------------------------------- ~
   Step         Total Energy             Delta E       MAX Force       RMS Force        MAX Disp        RMS Disp  ~
  --------------------------------------------------------------------------------------------------------------- ~
      1    -233.572883522996   -233.572883522996      0.01688423      0.00359588      0.05783400      0.01767029  ~
      2    -233.574229270635     -0.001345747639      0.00562267      0.00145363      0.02005594      0.00688460  ~
      3    -233.574451787626     -0.000222516991      0.00188818      0.00047632      0.00637580      0.00188053  ~
  --------------------------------------------------------------------------------------------------------------- ~

	Writing optimization data to binary file.
	Final energy is   -233.5744517876258
	Final (previous) structure:
	Cartesian Geometry (in Angstrom)
	    O    -2.2194226266   0.3556628998  -0.3146476297
	    C    -0.0545029566  -0.5843728661  -0.5650803744
	    C     1.4557263124  -0.6771304732  -0.2027847220
	    C    -0.8627710830   0.4674689730   0.1762411464
	    C     1.9770668691   0.2988129779   0.8628238002
	    H    -0.1753056024  -0.3819303559  -1.6305293743
	    H    -0.5450380900  -1.5422389611  -0.3841389246
	    H     2.0458557262  -0.5310212987  -1.1103000508
	    H     1.6775848324  -1.6926346914   0.1327884523
	    H    -0.8316492842   0.2894341854   1.2566661952
	    H    -0.4670029576   1.4699761335  -0.0199288859
	    H     1.8347877044   1.3395423915   0.5672464089
	    H     3.0462801781   0.1469154947   1.0173282777
	    H     1.4851512420   0.1518145514   1.8257975445
	    H    -2.7986715430   1.0020304654   0.1096264196
	Saving final (previous) structure.
			--------------------------
			 OPTKING Finished Execution 
			--------------------------

    Final optimized geometry and variables:
    Molecular point group: c1
    Full point group: C1

    Geometry (in Angstrom), charge = 0, multiplicity = 1:

    O           -2.219422635364     0.355662901204    -0.314647630919
    C           -0.054502956791    -0.584372868386    -0.565080376669
    C            1.455726318097    -0.677130475879    -0.202784722760
    C           -0.862771086394     0.467468974789     0.176241147066
    C            1.977066876908     0.298812979050     0.862823803546
    H           -0.175305603127    -0.381930357378    -1.630529380745
    H           -0.545038092148    -1.542238967142    -0.384138926138
    H            2.045855734208    -0.531021300744    -1.110300055139
    H            1.677584838944    -1.692634698017     0.132788452820
    H           -0.831649287479     0.289434186556     1.256666200099
    H           -0.467002959414     1.469976139273    -0.019928886022
    H            1.834787711622     1.339542396755     0.567246411170
    H            3.046280190066     0.146915495268     1.017328281685
    H            1.485151247813     0.151814552042     1.825797551698
    H           -2.798671554026     1.002030469335     0.109626420045

	Removing binary optimization data file.
	Cleaning optimization helper files.

    Psi4 stopped on: Thursday, 27 May 2021 11:12AM
    Psi4 wall time for execution: 0:00:16.31

*** Psi4 exiting successfully. Buy a developer a beer!
