
    -----------------------------------------------------------------------
          Psi4: An Open-Source Ab Initio Electronic Structure Package
                               Psi4 1.3.2 release

                         Git: Rev {HEAD} ecbda83 


    R. M. Parrish, L. A. Burns, D. G. A. Smith, A. C. Simmonett,
    A. E. DePrince III, E. G. Hohenstein, U. Bozkaya, A. Yu. Sokolov,
    R. Di Remigio, R. M. Richard, J. F. Gonthier, A. M. James,
    H. R. McAlexander, A. Kumar, M. Saitow, X. Wang, B. P. Pritchard,
    P. Verma, H. F. Schaefer III, K. Patkowski, R. A. King, E. F. Valeev,
    F. A. Evangelista, J. M. Turney, T. D. Crawford, and C. D. Sherrill,
    J. Chem. Theory Comput. 13(7) pp 3185--3197 (2017).
    (doi: 10.1021/acs.jctc.7b00174)


                         Additional Contributions by
    P. Kraus, H. Kruse, M. H. Lechner, M. C. Schieber, R. A. Shaw,
    A. Alenaizan, R. Galvelis, Z. L. Glick, S. Lehtola, and J. P. Misiewicz

    -----------------------------------------------------------------------


    Psi4 started on: Thursday, 27 May 2021 10:59AM

    Process ID: 225401
    Host:       daniele-Precision-5750
    PSIDATADIR: /home/daniele/anaconda3/envs/poltype/share/psi4
    Memory:     500.0 MiB
    Threads:    1
    
  ==> Input File <==

--------------------------------------------------------------------------
molecule { 
0 1
 O   -2.383358    0.087476   -0.587159
 C    0.001516    0.110574   -0.242364
 C    1.233574   -0.424178    0.531459
 C   -1.347723   -0.487484    0.216147
 C    2.571493    0.184786    0.065163
 H   -0.053287    1.202290   -0.140683
 H    0.118357   -0.096801   -1.314148
 H    1.284567   -1.516105    0.427369
 H    1.107607   -0.226497    1.604232
 H   -1.331427   -1.577499    0.095595
 H   -1.514828   -0.290305    1.282794
 H    2.755187   -0.026795   -0.993841
 H    3.407292   -0.230454    0.638367
 H    2.580533    1.271524    0.201944
 H   -2.704425    0.898378   -0.149456
}
set optking { 
  frozen_dihedral = ("
    2 4 1 15
    4 2 3 5
    3 2 4 1
    12 5 3 2
  ")
}
set {
  geom_maxiter 400
  g_convergence GAU_LOOSE
  dynamic_level 1
}
memory 700MB
set_num_threads(8)
psi4_io.set_default_path("/home/daniele/PSI4_sctatch/Psi4-1butanol_3D")
for _ in range(1):
  try:
    set opt_coordinates both
    optimize('wb97x-d/6-311G')
    break
  except OptimizationConvergenceError:
    break
  else:
    try:
      set opt_coordinates cartesian
      optimize('wb97x-d/6-311G')
      break
    except OptimizationConvergenceError:
      pass
clean()
--------------------------------------------------------------------------

  Memory set to 667.572 MiB by Python driver.
  Threads set to 8 by Python driver.
gradient() will perform analytic gradient computation.

*** tstart() called on daniele-Precision-5750
*** at Thu May 27 10:59:25 2021

   => Loading Basis Set <=

    Name: 6-311G
    Role: ORBITAL
    Keyword: BASIS
    atoms 1    entry O          line   126 file /home/daniele/anaconda3/envs/poltype/share/psi4/basis/6-311g.gbs 
    atoms 2-5  entry C          line    92 file /home/daniele/anaconda3/envs/poltype/share/psi4/basis/6-311g.gbs 
    atoms 6-15 entry H          line    21 file /home/daniele/anaconda3/envs/poltype/share/psi4/basis/6-311g.gbs 


         ---------------------------------------------------------
                                   SCF
               by Justin Turney, Rob Parrish, Andy Simmonett
                          and Daniel G. A. Smith
                              RKS Reference
                        8 Threads,    667 MiB Core
         ---------------------------------------------------------

  ==> Geometry <==

    Molecular point group: c1
    Full point group: C1

    Geometry (in Angstrom), charge = 0, multiplicity = 1:

       Center              X                  Y                   Z               Mass       
    ------------   -----------------  -----------------  -----------------  -----------------
         O           -2.343917217284     0.176487335465    -0.575257297584    15.994914619570
         C            0.040956782716     0.199585335465    -0.230462297584    12.000000000000
         C            1.273014782716    -0.335166664535     0.543360702416    12.000000000000
         C           -1.308282217284    -0.398472664535     0.228048702416    12.000000000000
         C            2.610933782716     0.273797335465     0.077064702416    12.000000000000
         H           -0.013846217284     1.291301335465    -0.128781297584     1.007825032230
         H            0.157797782716    -0.007789664535    -1.302246297584     1.007825032230
         H            1.324007782716    -1.427093664535     0.439270702416     1.007825032230
         H            1.147047782716    -0.137485664535     1.616133702416     1.007825032230
         H           -1.291986217284    -1.488487664535     0.107496702416     1.007825032230
         H           -1.475387217284    -0.201293664535     1.294695702416     1.007825032230
         H            2.794627782716     0.062216335465    -0.981939297584     1.007825032230
         H            3.446732782716    -0.141442664535     0.650268702416     1.007825032230
         H            2.619973782716     1.360535335465     0.213845702416     1.007825032230
         H           -2.664984217284     0.987389335465    -0.137554297584     1.007825032230

  Running in c1 symmetry.

  Rotational constants: A =      0.59644  B =      0.06451  C =      0.06120 [cm^-1]
  Rotational constants: A =  17880.74164  B =   1934.03683  C =   1834.73112 [MHz]
  Nuclear repulsion =  183.268702655451477

  Charge       = 0
  Multiplicity = 1
  Electrons    = 42
  Nalpha       = 21
  Nbeta        = 21

  ==> Algorithm <==

  SCF Algorithm Type is DF.
  DIIS enabled.
  MOM disabled.
  Fractional occupation disabled.
  Guess Type is SAD.
  Energy threshold   = 1.00e-08
  Density threshold  = 1.00e-08
  Integral threshold = 0.00e+00

  ==> Primary Basis <==

  Basis Set: 6-311G
    Blend: 6-311G
    Number of shells: 65
    Number of basis function: 95
    Number of Cartesian functions: 95
    Spherical Harmonics?: true
    Max angular momentum: 1

  ==> DFT Potential <==

   => Composite Functional: WB97X-D <= 

    wB97X-D Hyb-GGA Exchange-Correlation Functional

    J.-D. Chai and M. Head-Gordon, Phys. Chem. Chem. Phys. 10, 6615 (2008)

    Deriv               =              1
    GGA                 =           TRUE
    Meta                =          FALSE

    Exchange Hybrid     =           TRUE
    MP2 Hybrid          =          FALSE

   => Exchange-Correlation Functionals <=

    1.0000   wB97D range-separated functional

   => Exact (HF) Exchange <=

    0.7780            HF,LR [omega = 0.2000]
    0.2220               HF 

   => Molecular Quadrature <=

    Radial Scheme          =       TREUTLER
    Pruning Scheme         =           FLAT
    Nuclear Scheme         =       TREUTLER

    BS radius alpha        =              1
    Pruning alpha          =              1
    Radial Points          =             75
    Spherical Points       =            302
    Total Points           =         336074
    Total Blocks           =           2580
    Max Points             =            256
    Max Functions          =             89

   => WB97X-D: Empirical Dispersion <=

    Chai and Head-Gordon Dispersion Correction
    Chai, J.-D.; Head-Gordon, M. (2010), J. Chem. Phys., 132: 6615-6620

        s6 =       1.000000

   => Loading Basis Set <=

    Name: (6-311G AUX)
    Role: JKFIT
    Keyword: DF_BASIS_SCF
    atoms 1    entry O          line   229 file /home/daniele/anaconda3/envs/poltype/share/psi4/basis/cc-pvtz-jkfit.gbs 
    atoms 2-5  entry C          line   125 file /home/daniele/anaconda3/envs/poltype/share/psi4/basis/cc-pvtz-jkfit.gbs 
    atoms 6-15 entry H          line    51 file /home/daniele/anaconda3/envs/poltype/share/psi4/basis/cc-pvtz-jkfit.gbs 

  ==> Pre-Iterations <==

   -------------------------------------------------------
    Irrep   Nso     Nmo     Nalpha   Nbeta   Ndocc  Nsocc
   -------------------------------------------------------
     A         95      95       0       0       0       0
   -------------------------------------------------------
    Total      95      95      21      21      21       0
   -------------------------------------------------------

  ==> Integral Setup <==

  ==> DiskDFJK: Density-Fitted J/K Matrices <==

    J tasked:                  Yes
    K tasked:                  Yes
    wK tasked:                 Yes
    Omega:               2.000E-01
    OpenMP threads:              8
    Integrals threads:           8
    Memory [MiB]:               34
    Algorithm:                Disk
    Integral Cache:           NONE
    Schwarz Cutoff:          1E-12
    Fitting Condition:       1E-10

   => Auxiliary Basis Set <=

  Basis Set: (6-311G AUX)
    Blend: CC-PVTZ-JKFIT
    Number of shells: 225
    Number of basis function: 695
    Number of Cartesian functions: 830
    Spherical Harmonics?: true
    Max angular momentum: 4

  Cached 100.0% of DFT collocation blocks in 0.661 [GiB].

  Minimum eigenvalue in the overlap matrix is 2.5427096549E-03.
  Using Symmetric Orthogonalization.

  SCF Guess: Superposition of Atomic Densities via on-the-fly atomic UHF.

  ==> Iterations <==

                           Total Energy        Delta E     RMS |[F,P]|

   @DF-RKS iter SAD:  -232.83990203267626   -2.32840e+02   0.00000e+00 
   @DF-RKS iter   1:  -233.28517632360106   -4.45274e-01   8.17094e-03 DIIS
   @DF-RKS iter   2:  -233.39031028721195   -1.05134e-01   7.08164e-03 DIIS
   @DF-RKS iter   3:  -233.57714693098691   -1.86837e-01   8.11032e-04 DIIS
   @DF-RKS iter   4:  -233.57912006804139   -1.97314e-03   3.37118e-04 DIIS
   @DF-RKS iter   5:  -233.57956708251700   -4.47014e-04   3.48238e-05 DIIS
   @DF-RKS iter   6:  -233.57957354059417   -6.45808e-06   1.68199e-05 DIIS
   @DF-RKS iter   7:  -233.57957483143656   -1.29084e-06   1.87074e-06 DIIS
   @DF-RKS iter   8:  -233.57957486673564   -3.52991e-08   3.49598e-07 DIIS
   @DF-RKS iter   9:  -233.57957486812828   -1.39264e-09   1.25210e-07 DIIS
   @DF-RKS iter  10:  -233.57957486825504   -1.26761e-10   5.00040e-08 DIIS
   @DF-RKS iter  11:  -233.57957486827709   -2.20552e-11   7.46843e-09 DIIS
  Energy and wave function converged.


  ==> Post-Iterations <==

    Orbital Energies [Eh]
    ---------------------

    Doubly Occupied:                                                      

       1A    -19.238319     2A    -10.332395     3A    -10.284896  
       4A    -10.279124     5A    -10.273213     6A     -1.125946  
       7A     -0.893072     8A     -0.819543     9A     -0.730779  
      10A     -0.681543    11A     -0.602050    12A     -0.559724  
      13A     -0.527572    14A     -0.518402    15A     -0.478366  
      16A     -0.460744    17A     -0.442823    18A     -0.419510  
      19A     -0.413323    20A     -0.400281    21A     -0.347318  

    Virtual:                                                              

      22A      0.111809    23A      0.124423    24A      0.145947  
      25A      0.156884    26A      0.170152    27A      0.198110  
      28A      0.206459    29A      0.217360    30A      0.221499  
      31A      0.238102    32A      0.257381    33A      0.295490  
      34A      0.305671    35A      0.324080    36A      0.382782  
      37A      0.386101    38A      0.409199    39A      0.450100  
      40A      0.451797    41A      0.463409    42A      0.498900  
      43A      0.523456    44A      0.603571    45A      0.608427  
      46A      0.643787    47A      0.650411    48A      0.670049  
      49A      0.672165    50A      0.678436    51A      0.689019  
      52A      0.696933    53A      0.702558    54A      0.710720  
      55A      0.719145    56A      0.722874    57A      0.746391  
      58A      0.848060    59A      0.975146    60A      1.020574  
      61A      1.047634    62A      1.078730    63A      1.107912  
      64A      1.164969    65A      1.578870    66A      2.291295  
      67A      2.342835    68A      2.344618    69A      2.349733  
      70A      2.358909    71A      2.360612    72A      2.384997  
      73A      2.391267    74A      2.409352    75A      2.433438  
      76A      2.866366    77A      2.905372    78A      2.919160  
      79A      2.938240    80A      2.947015    81A      2.956109  
      82A      2.981620    83A      3.069208    84A      3.089810  
      85A      3.158820    86A      3.182823    87A      3.296202  
      88A      4.965530    89A      5.008227    90A      5.151678  
      91A     23.428526    92A     23.571637    93A     23.640599  
      94A     23.711995    95A     49.960031  

    Final Occupation by Irrep:
              A 
    DOCC [    21 ]

  @DF-RKS Final Energy:  -233.57957486827709

   => Energetics <=

    Nuclear Repulsion Energy =            183.2687026554514773
    One-Electron Energy =                -678.3373321914917824
    Two-Electron Energy =                 284.7140826082092531
    DFT Exchange-Correlation Energy =     -23.2180634925054719
    Empirical Dispersion Energy =          -0.0069644479406146
    VV10 Nonlocal Energy =                  0.0000000000000000
    Total Energy =                       -233.5795748682771489

Computation Completed


Properties will be evaluated at   0.000000,   0.000000,   0.000000 [a0]

Properties computed using the SCF density matrix

  Nuclear Dipole Moment: [e a0]
     X:     5.6548      Y:     0.2801      Z:     1.6577

  Electronic Dipole Moment: [e a0]
     X:    -5.3674      Y:     0.0286      Z:    -0.9693

  Dipole Moment: [e a0]
     X:     0.2874      Y:     0.3087      Z:     0.6883     Total:     0.8073

  Dipole Moment: [D]
     X:     0.7304      Y:     0.7845      Z:     1.7496     Total:     2.0518


*** tstop() called on daniele-Precision-5750 at Thu May 27 10:59:30 2021
Module time:
	user time   =      29.97 seconds =       0.50 minutes
	system time =       0.74 seconds =       0.01 minutes
	total time  =          5 seconds =       0.08 minutes
Total time:
	user time   =      29.97 seconds =       0.50 minutes
	system time =       0.74 seconds =       0.01 minutes
	total time  =          5 seconds =       0.08 minutes

*** tstart() called on daniele-Precision-5750
*** at Thu May 27 10:59:30 2021


         ------------------------------------------------------------
                                   SCF GRAD                          
                          Rob Parrish, Justin Turney,                
                       Andy Simmonett, and Alex Sokolov              
         ------------------------------------------------------------

  ==> Geometry <==

    Molecular point group: c1
    Full point group: C1

    Geometry (in Angstrom), charge = 0, multiplicity = 1:

       Center              X                  Y                   Z               Mass       
    ------------   -----------------  -----------------  -----------------  -----------------
         O           -2.343917217284     0.176487335465    -0.575257297584    15.994914619570
         C            0.040956782716     0.199585335465    -0.230462297584    12.000000000000
         C            1.273014782716    -0.335166664535     0.543360702416    12.000000000000
         C           -1.308282217284    -0.398472664535     0.228048702416    12.000000000000
         C            2.610933782716     0.273797335465     0.077064702416    12.000000000000
         H           -0.013846217284     1.291301335465    -0.128781297584     1.007825032230
         H            0.157797782716    -0.007789664535    -1.302246297584     1.007825032230
         H            1.324007782716    -1.427093664535     0.439270702416     1.007825032230
         H            1.147047782716    -0.137485664535     1.616133702416     1.007825032230
         H           -1.291986217284    -1.488487664535     0.107496702416     1.007825032230
         H           -1.475387217284    -0.201293664535     1.294695702416     1.007825032230
         H            2.794627782716     0.062216335465    -0.981939297584     1.007825032230
         H            3.446732782716    -0.141442664535     0.650268702416     1.007825032230
         H            2.619973782716     1.360535335465     0.213845702416     1.007825032230
         H           -2.664984217284     0.987389335465    -0.137554297584     1.007825032230

  Nuclear repulsion =  183.268702655451477

  ==> Basis Set <==

  Basis Set: 6-311G
    Blend: 6-311G
    Number of shells: 65
    Number of basis function: 95
    Number of Cartesian functions: 95
    Spherical Harmonics?: true
    Max angular momentum: 1

  ==> DFJKGrad: Density-Fitted SCF Gradients <==

    Gradient:                    1
    J tasked:                  Yes
    K tasked:                  Yes
    wK tasked:                 Yes
    Omega:               2.000E-01
    OpenMP threads:              8
    Integrals threads:           8
    Memory [MiB]:              500
    Schwarz Cutoff:          0E+00
    Fitting Condition:       1E-10

   => Auxiliary Basis Set <=

  Basis Set: (6-311G AUX)
    Blend: CC-PVTZ-JKFIT
    Number of shells: 225
    Number of basis function: 695
    Number of Cartesian functions: 830
    Spherical Harmonics?: true
    Max angular momentum: 4

  ==> DFT Potential <==

   => Composite Functional: WB97X-D <= 

    wB97X-D Hyb-GGA Exchange-Correlation Functional

    J.-D. Chai and M. Head-Gordon, Phys. Chem. Chem. Phys. 10, 6615 (2008)

    Deriv               =              1
    GGA                 =           TRUE
    Meta                =          FALSE

    Exchange Hybrid     =           TRUE
    MP2 Hybrid          =          FALSE

   => Exchange-Correlation Functionals <=

    1.0000   wB97D range-separated functional

   => Exact (HF) Exchange <=

    0.7780            HF,LR [omega = 0.2000]
    0.2220               HF 

   => Molecular Quadrature <=

    Radial Scheme          =       TREUTLER
    Pruning Scheme         =           FLAT
    Nuclear Scheme         =       TREUTLER

    BS radius alpha        =              1
    Pruning alpha          =              1
    Radial Points          =             75
    Spherical Points       =            302
    Total Points           =         336074
    Total Blocks           =           2580
    Max Points             =            256
    Max Functions          =             89


  -Total Gradient:
     Atom            X                  Y                   Z
    ------   -----------------  -----------------  -----------------
       1        0.015979379922    -0.005102537582    -0.003487198262
       2       -0.004909949511     0.005910170036    -0.006500323390
       3        0.002362469908    -0.001739032451     0.002067196168
       4       -0.024408921352    -0.000823456631    -0.002478585414
       5        0.003120018337     0.001348270764    -0.000868163611
       6       -0.000420153035     0.001460001182    -0.000630963901
       7        0.001116827040    -0.000112554330    -0.003123017500
       8        0.000985199801    -0.001835137011     0.000550369724
       9        0.000526466992    -0.000096638248     0.001711174489
      10        0.004583612976    -0.005121075012     0.004568127513
      11       -0.001025589089    -0.000496244556     0.000599058073
      12        0.001090612192    -0.000725781068    -0.001803646278
      13        0.001760546785    -0.000814119902     0.001216671161
      14        0.000619727267     0.001799738974     0.000671507002
      15       -0.001408258977     0.006388055793     0.007596793114


*** tstop() called on daniele-Precision-5750 at Thu May 27 10:59:31 2021
Module time:
	user time   =      13.06 seconds =       0.22 minutes
	system time =       0.13 seconds =       0.00 minutes
	total time  =          1 seconds =       0.02 minutes
Total time:
	user time   =      43.04 seconds =       0.72 minutes
	system time =       0.87 seconds =       0.01 minutes
	total time  =          6 seconds =       0.10 minutes

			-----------------------------------------
			 OPTKING 2.0: for geometry optimizations 
			  - R.A. King,  Bethel University        
			-----------------------------------------
	At level 1: Red. Int., RFO, no backsteps, dynamic trust

	Internal coordinates to be generated automatically.
	Detected frag 1 with atoms:  1 2 3 4 5 6 7 8 9 10 11 12 13 14 15
	---Fragment 1 Bond Connectivity---
	 1 : 4 15
	 2 : 3 4 6 7
	 3 : 2 5 8 9
	 4 : 1 2 10 11
	 5 : 3 12 13 14
	 6 : 2
	 7 : 2
	 8 : 3
	 9 : 3
	 10 : 4
	 11 : 4
	 12 : 5
	 13 : 5
	 14 : 5
	 15 : 1

	Assuming in current code that numbering for constraints corresponds to unified fragment.
	Frozen dihedral atom list: 
	     2     4     1    15
	     4     2     3     5
	     3     2     4     1
	    12     5     3     2
	---Fragment 1 Geometry and Gradient---
	 O          -4.4293616014        0.3335127286       -1.0870787441
	 C           0.0773971023        0.3771616227       -0.4355106247
	 C           2.4056492930       -0.6333732024        1.0268029149
	 C          -2.4722950855       -0.7530042045        0.4309495908
	 C           4.9339497810        0.5174019779        0.1456311815
	 H          -0.0261655585        2.4402058695       -0.2433613825
	 H           0.2981945925       -0.0147203326       -2.4608888503
	 H           2.5020120973       -2.6968161813        0.8301013225
	 H           2.1676061621       -0.2598102521        3.0540500797
	 H          -2.4415001085       -2.8128340271        0.2031393270
	 H          -2.7880777697       -0.3803898968        2.4466202934
	 H           5.2810811319        0.1175718346       -1.8555963443
	 H           6.5133809870       -0.2672878984        1.2288297555
	 H           4.9510329052        2.5710391680        0.4041098107
	 H          -5.0360902993        1.8658954232       -0.2599399498
	             0.0159793799       -0.0051025376       -0.0034871983
	            -0.0049099495        0.0059101700       -0.0065003234
	             0.0023624699       -0.0017390325        0.0020671962
	            -0.0244089214       -0.0008234566       -0.0024785854
	             0.0031200183        0.0013482708       -0.0008681636
	            -0.0004201530        0.0014600012       -0.0006309639
	             0.0011168270       -0.0001125543       -0.0031230175
	             0.0009851998       -0.0018351370        0.0005503697
	             0.0005264670       -0.0000966382        0.0017111745
	             0.0045836130       -0.0051210750        0.0045681275
	            -0.0010255891       -0.0004962446        0.0005990581
	             0.0010906122       -0.0007257811       -0.0018036463
	             0.0017605468       -0.0008141199        0.0012166712
	             0.0006197273        0.0017997390        0.0006715070
	            -0.0014082590        0.0063880558        0.0075967931

	Previous optimization step data not found.  Starting new optimization.

	---Fragment 1 Intrafragment Coordinates---
	 - Coordinate -           - BOHR/RAD -       - ANG/DEG -
	 R(1,4)           =         2.704633	       1.431230
	 R(1,15)          =         1.844038	       0.975823
	 R(2,3)           =         2.929215	       1.550074
	 R(2,4)           =         2.920438	       1.545429
	 R(2,6)           =         2.074560	       1.097810
	 R(2,7)           =         2.074724	       1.097897
	 R(3,5)           =         2.914284	       1.542173
	 R(3,8)           =         2.075036	       1.098062
	 R(3,9)           =         2.075077	       1.098083
	 R(4,10)          =         2.072618	       1.096782
	 R(4,11)          =         2.074003	       1.097515
	 R(5,12)          =         2.070091	       1.095445
	 R(5,13)          =         2.069701	       1.095238
	 R(5,14)          =         2.069910	       1.095349
	 B(1,4,2)         =         1.885731	     108.044436
	 B(1,4,10)        =         1.926559	     110.383703
	 B(1,4,11)        =         1.942429	     111.292965
	 B(2,3,5)         =         1.984928	     113.728008
	 B(2,3,8)         =         1.909904	     109.429464
	 B(2,3,9)         =         1.911791	     109.537547
	 B(2,4,10)        =         1.916666	     109.816889
	 B(2,4,11)        =         1.930233	     110.594212
	 B(3,2,4)         =         1.995794	     114.350578
	 B(3,2,6)         =         1.914005	     109.664398
	 B(3,2,7)         =         1.915154	     109.730266
	 B(3,5,12)        =         1.940689	     111.193303
	 B(3,5,13)        =         1.932742	     110.737970
	 B(3,5,14)        =         1.940321	     111.172208
	 B(4,1,15)        =         1.896688	     108.672210
	 B(4,2,6)         =         1.889962	     108.286828
	 B(4,2,7)         =         1.885410	     108.026031
	 B(5,3,8)         =         1.900452	     108.887876
	 B(5,3,9)         =         1.900570	     108.894633
	 B(6,2,7)         =         1.858308	     106.473200
	 B(8,3,9)         =         1.851419	     106.078522
	 B(10,4,11)       =         1.862554	     106.716486
	 B(12,5,13)       =         1.880478	     107.743439
	 B(12,5,14)       =         1.887004	     108.117337
	 B(13,5,14)       =         1.880209	     107.728032
	*D(1,4,2,3)       =        -3.134507	    -179.594007
	 D(1,4,2,6)       =         1.009135	      57.819179
	 D(1,4,2,7)       =        -0.996876	     -57.116777
	*D(2,3,5,12)      =        -1.045317	     -59.892249
	 D(2,3,5,13)      =        -3.135463	    -179.648772
	 D(2,3,5,14)      =         1.058157	      60.627953
	*D(2,4,1,15)      =        -1.570331	     -89.973345
	 D(3,2,4,10)      =        -1.032269	     -59.144636
	 D(3,2,4,11)      =         1.018801	      58.372971
	*D(4,2,3,5)       =        -3.138783	    -179.839008
	 D(4,2,3,8)       =         1.014997	      58.155019
	 D(4,2,3,9)       =        -1.007828	     -57.744302
	 D(5,3,2,6)       =        -1.012362	     -58.004094
	 D(5,3,2,7)       =         1.023043	      58.616026
	 D(6,2,3,8)       =         3.141417	     179.989933
	 D(6,2,3,9)       =         1.118592	      64.090612
	 D(6,2,4,10)      =         3.111373	     178.268550
	 D(6,2,4,11)      =        -1.120743	     -64.213842
	 D(7,2,3,8)       =        -1.106363	     -63.389948
	 D(7,2,3,9)       =        -3.129188	    -179.289268
	 D(7,2,4,10)      =         1.105362	      63.332594
	 D(7,2,4,11)      =        -3.126754	    -179.149799
	 D(8,3,5,12)      =         1.089313	      62.413038
	 D(8,3,5,13)      =        -1.000833	     -57.343485
	 D(8,3,5,14)      =        -3.090398	    -177.066760
	 D(9,3,5,12)      =         3.100720	     177.658188
	 D(9,3,5,13)      =         1.010575	      57.901664
	 D(9,3,5,14)      =        -1.078991	     -61.821610
	 D(10,4,1,15)     =         2.616819	     149.932659
	 D(11,4,1,15)     =         0.552024	      31.628635

	Current energy   :      -233.5795748683

	Generating empirical Hessian (Schlegel '84) for each fragment.
	Taking RFO optimization step.
	Going to follow RFO solution 1.
	Using RFO vector 1.
	Norm of target step-size    0.17477
	Projected energy change by RFO approximation:        -0.0037055465

	Back-transformation to cartesian coordinates...
	Could not converge backtransformation.
	Using first guess instead.

	Back-transformation to cartesian coordinates to adjust frozen coordinates...
	Successfully converged to displaced geometry.

	--- Internal Coordinate Step in ANG or DEG, aJ/ANG or AJ/DEG ---
	 ---------------------------------------------------------------------------
	   Coordinate                Previous        Force       Change         New 
	   ----------                --------       ------       ------       ------
	    1 R(1,4)          =      1.431230     0.101765     0.724242     2.155472
	    2 R(1,15)         =      0.975823    -0.075752     0.079788     1.055611
	    3 R(2,3)          =      1.550074    -0.088819     0.727828     2.277902
	    4 R(2,4)          =      1.545429    -0.078230     0.689694     2.235123
	    5 R(2,6)          =      1.097810    -0.011709     0.289308     1.387118
	    6 R(2,7)          =      1.097897    -0.026255     0.152685     1.250582
	    7 R(3,5)          =      1.542173    -0.054429     0.696065     2.238238
	    8 R(3,8)          =      1.098062    -0.015108     0.289994     1.388056
	    9 R(3,9)          =      1.098083    -0.012953     0.151946     1.250030
	   10 R(4,10)         =      1.096782    -0.038435     0.272391     1.369173
	   11 R(4,11)         =      1.097515    -0.005245     0.176227     1.273742
	   12 R(5,12)         =      1.095445    -0.017083     0.137369     1.232814
	   13 R(5,13)         =      1.095238    -0.018828     0.525049     1.620287
	   14 R(5,14)         =      1.095349    -0.015454     0.288314     1.383663
	   15 B(1,4,2)        =    108.044436     0.001110     4.148038   112.192474
	   16 B(1,4,10)       =    110.383703    -0.000674     4.466615   114.850318
	   17 B(1,4,11)       =    111.292965    -0.000276     1.503279   112.796244
	   18 B(2,3,5)        =    113.728008    -0.000295    -0.343744   113.384264
	   19 B(2,3,8)        =    109.429464     0.000046     7.837551   117.267016
	   20 B(2,3,9)        =    109.537547     0.000042     1.274779   110.812326
	   21 B(2,4,10)       =    109.816889    -0.000054     0.889516   110.706406
	   22 B(2,4,11)       =    110.594212    -0.000341     7.043421   117.637633
	   23 B(3,2,4)        =    114.350578    -0.000214    -1.260752   113.089826
	   24 B(3,2,6)        =    109.664398    -0.000039     5.329256   114.993654
	   25 B(3,2,7)        =    109.730266     0.000169     5.721100   115.451366
	   26 B(3,5,12)       =    111.193303    -0.000056     1.552473   112.745776
	   27 B(3,5,13)       =    110.737970     0.000020    -0.873149   109.864821
	   28 B(3,5,14)       =    111.172208    -0.000033     6.486435   117.658644
	   29 B(4,1,15)       =    108.672210     0.000539    18.559888   127.232098
	   30 B(4,2,6)        =    108.286828     0.000102     6.687676   114.974504
	   31 B(4,2,7)        =    108.026031     0.000002     1.281386   109.307417
	   32 B(5,3,8)        =    108.887876     0.000122     5.036531   113.924407
	   33 B(5,3,9)        =    108.894633     0.000127     3.321109   112.215742
	   34 B(6,2,7)        =    106.473200    -0.000007   -20.175547    86.297654
	   35 B(8,3,9)        =    106.078522    -0.000023   -19.837452    86.241070
	   36 B(10,4,11)      =    106.716486     0.000202   -20.378746    86.337740
	   37 B(12,5,13)      =    107.743439     0.000020     2.653967   110.397405
	   38 B(12,5,14)      =    108.117337     0.000023   -16.134000    91.983338
	   39 B(13,5,14)      =    107.728032     0.000030     5.294616   113.022648
	   40 *D(1,4,2,3)     =   -179.594007     0.000000     0.000000  -179.594007
	   41 D(1,4,2,6)      =     57.819179     0.000027   -12.263652    45.555527
	   42 D(1,4,2,7)      =    -57.116777     0.000017     7.641132   -49.475645
	   43 *D(2,3,5,12)    =    -59.892249     0.000000     0.000000   -59.892249
	   44 D(2,3,5,13)     =   -179.648772    -0.000000    -3.837556  -183.486328
	   45 D(2,3,5,14)     =     60.627953    -0.000007   -15.325899    45.302054
	   46 *D(2,4,1,15)    =    -89.973345     0.000000     0.000000   -89.973345
	   47 D(3,2,4,10)     =    -59.144636    -0.000040     9.298770   -49.845866
	   48 D(3,2,4,11)     =     58.372971    -0.000038   -11.277851    47.095120
	   49 *D(4,2,3,5)     =   -179.839008    -0.000000     0.000000  -179.839008
	   50 D(4,2,3,8)      =     58.155019     0.000003   -14.042073    44.112946
	   51 D(4,2,3,9)      =    -57.744302    -0.000002     5.137672   -52.606631
	   52 D(5,3,2,6)      =    -58.004094    -0.000011    13.006580   -44.997513
	   53 D(5,3,2,7)      =     58.616026     0.000005    -5.394078    53.221948
	   54 D(6,2,3,8)      =    179.989933    -0.000008    -1.035492   178.954440
	   55 D(6,2,3,9)      =     64.090612    -0.000013    18.144252    82.234864
	   56 D(6,2,4,10)     =    178.268550    -0.000013    -2.964882   175.303668
	   57 D(6,2,4,11)     =    -64.213842    -0.000010   -23.541504   -87.755346
	   58 D(7,2,3,8)      =    -63.389948     0.000007   -19.436150   -82.826098
	   59 D(7,2,3,9)      =   -179.289268     0.000002    -0.256406  -179.545675
	   60 D(7,2,4,10)     =     63.332594    -0.000023    16.939902    80.272496
	   61 D(7,2,4,11)     =   -179.149799    -0.000021    -3.636719  -182.786518
	   62 D(8,3,5,12)     =     62.413038    -0.000012    15.246727    77.659765
	   63 D(8,3,5,13)     =    -57.343485    -0.000012    11.409171   -45.934314
	   64 D(8,3,5,14)     =   -177.066760    -0.000019    -0.079172  -177.145932
	   65 D(9,3,5,12)     =    177.658188     0.000012    -4.044991   173.613197
	   66 D(9,3,5,13)     =     57.901664     0.000012    -7.882547    50.019117
	   67 D(9,3,5,14)     =    -61.821610     0.000005   -19.370890   -81.192500
	   68 D(10,4,1,15)    =    149.932659    -0.000051    -7.478368   142.454291
	   69 D(11,4,1,15)    =     31.628635     0.000031    14.032258    45.660893
	 ---------------------------------------------------------------------------
	Successfully symmetrized geometry.

  ==> Convergence Check <==

  Measures of convergence in internal coordinates in au.
  Criteria marked as inactive (o), active & met (*), and active & unmet ( ).
  --------------------------------------------------------------------------------------------- ~
   Step     Total Energy     Delta E     MAX Force     RMS Force      MAX Disp      RMS Disp    ~
  --------------------------------------------------------------------------------------------- ~
    Convergence Criteria             o    2.50e-03 *    1.70e-03 *    1.00e-02 *    6.70e-03 *  ~
  --------------------------------------------------------------------------------------------- ~
      1    -233.57957487   -2.34e+02 o    1.46e-02      3.79e-03      1.38e+00      4.08e-01    ~
  ---------------------------------------------------------------------------------------------

	Writing optimization data to binary file.
	Structure for next step:
	Cartesian Geometry (in Angstrom)
	    O    -3.1234379916  -1.7866177068   1.6594785582
	    C    -0.3800930250  -0.0286144262   0.0270474579
	    C     1.8752908626   0.2664987407  -0.0953781628
	    C    -0.9861144341  -1.5196712245   1.5779389432
	    C     2.4928611335   1.7621764089  -1.6417492800
	    H    -1.1256635586   1.1410448259   0.0161957310
	    H    -0.9456205471  -0.3033580788  -1.0539933600
	    H     2.6682041858  -0.8724023899  -0.0655316678
	    H     2.3508856398   0.5272482703   1.0308515424
	    H    -0.2664119739  -2.6767520415   1.4444225017
	    H    -0.4568286454  -1.4199212919   2.7322033628
	    H     2.1346406464   1.4478766305  -2.7787294565
	    H     4.0986736232   1.9728365704  -1.5935981994
	    H     1.7921955740   2.9539685222  -1.6985237670
	    H    -3.8118917740  -1.2502327782   2.2533103255
			--------------------------
			 OPTKING Finished Execution 
			--------------------------

    Structure for next step:
    Molecular point group: c1
    Full point group: C1

    Geometry (in Angstrom), charge = 0, multiplicity = 1:

    O           -3.022899199766    -1.499335280451     1.318648316784
    C           -0.279554222376     0.258668007116    -0.313782789892
    C            1.975829674060     0.553781175196    -0.436208411149
    C           -0.885575633854    -1.232388797099     1.237108701467
    C            2.593399947389     2.049458849274    -1.982579534352
    H           -1.025124758919     1.428327263750    -0.324634516866
    H           -0.845081746734    -0.016075646589    -1.394823612118
    H            2.768743000408    -0.585119959910    -0.406361915945
    H            2.451424453137     0.814530705757     0.690021298531
    H           -0.165873170893    -2.389469618600     1.103592259413
    H           -0.356289843085    -1.132638864026     2.391373125651
    H            2.235179458909     1.735159069585    -3.119559715357
    H            4.199212443414     2.260119011583    -1.934428453550
    H            1.892734385081     3.241250967212    -2.039354021644
    H           -3.711352984954    -0.962950349705     1.912480086414

gradient() will perform analytic gradient computation.

*** tstart() called on daniele-Precision-5750
*** at Thu May 27 10:59:31 2021

   => Loading Basis Set <=

    Name: 6-311G
    Role: ORBITAL
    Keyword: BASIS
    atoms 1    entry O          line   126 file /home/daniele/anaconda3/envs/poltype/share/psi4/basis/6-311g.gbs 
    atoms 2-5  entry C          line    92 file /home/daniele/anaconda3/envs/poltype/share/psi4/basis/6-311g.gbs 
    atoms 6-15 entry H          line    21 file /home/daniele/anaconda3/envs/poltype/share/psi4/basis/6-311g.gbs 


         ---------------------------------------------------------
                                   SCF
               by Justin Turney, Rob Parrish, Andy Simmonett
                          and Daniel G. A. Smith
                              RKS Reference
                        8 Threads,    667 MiB Core
         ---------------------------------------------------------

  ==> Geometry <==

    Molecular point group: c1
    Full point group: C1

    Geometry (in Angstrom), charge = 0, multiplicity = 1:

       Center              X                  Y                   Z               Mass       
    ------------   -----------------  -----------------  -----------------  -----------------
         O           -3.022899199766    -1.499335280451     1.318648316784    15.994914619570
         C           -0.279554222376     0.258668007116    -0.313782789892    12.000000000000
         C            1.975829674060     0.553781175196    -0.436208411149    12.000000000000
         C           -0.885575633854    -1.232388797099     1.237108701467    12.000000000000
         C            2.593399947389     2.049458849274    -1.982579534352    12.000000000000
         H           -1.025124758919     1.428327263750    -0.324634516866     1.007825032230
         H           -0.845081746734    -0.016075646589    -1.394823612118     1.007825032230
         H            2.768743000408    -0.585119959910    -0.406361915945     1.007825032230
         H            2.451424453137     0.814530705757     0.690021298531     1.007825032230
         H           -0.165873170893    -2.389469618600     1.103592259413     1.007825032230
         H           -0.356289843085    -1.132638864026     2.391373125651     1.007825032230
         H            2.235179458909     1.735159069585    -3.119559715357     1.007825032230
         H            4.199212443414     2.260119011583    -1.934428453550     1.007825032230
         H            1.892734385081     3.241250967212    -2.039354021644     1.007825032230
         H           -3.711352984954    -0.962950349705     1.912480086414     1.007825032230

  Running in c1 symmetry.

  Rotational constants: A =      0.33123  B =      0.02993  C =      0.02811 [cm^-1]
  Rotational constants: A =   9930.01023  B =    897.15179  C =    842.75544 [MHz]
  Nuclear repulsion =  130.704048363093563

  Charge       = 0
  Multiplicity = 1
  Electrons    = 42
  Nalpha       = 21
  Nbeta        = 21

  ==> Algorithm <==

  SCF Algorithm Type is DF.
  DIIS enabled.
  MOM disabled.
  Fractional occupation disabled.
  Guess Type is READ.
  Energy threshold   = 1.00e-08
  Density threshold  = 1.00e-08
  Integral threshold = 0.00e+00

  ==> Primary Basis <==

  Basis Set: 6-311G
    Blend: 6-311G
    Number of shells: 65
    Number of basis function: 95
    Number of Cartesian functions: 95
    Spherical Harmonics?: true
    Max angular momentum: 1

  ==> DFT Potential <==

   => Composite Functional: WB97X-D <= 

    wB97X-D Hyb-GGA Exchange-Correlation Functional

    J.-D. Chai and M. Head-Gordon, Phys. Chem. Chem. Phys. 10, 6615 (2008)

    Deriv               =              1
    GGA                 =           TRUE
    Meta                =          FALSE

    Exchange Hybrid     =           TRUE
    MP2 Hybrid          =          FALSE

   => Exchange-Correlation Functionals <=

    1.0000   wB97D range-separated functional

   => Exact (HF) Exchange <=

    0.7780            HF,LR [omega = 0.2000]
    0.2220               HF 

   => Molecular Quadrature <=

    Radial Scheme          =       TREUTLER
    Pruning Scheme         =           FLAT
    Nuclear Scheme         =       TREUTLER

    BS radius alpha        =              1
    Pruning alpha          =              1
    Radial Points          =             75
    Spherical Points       =            302
    Total Points           =         336594
    Total Blocks           =           2562
    Max Points             =            256
    Max Functions          =             77

   => WB97X-D: Empirical Dispersion <=

    Chai and Head-Gordon Dispersion Correction
    Chai, J.-D.; Head-Gordon, M. (2010), J. Chem. Phys., 132: 6615-6620

        s6 =       1.000000

   => Loading Basis Set <=

    Name: (6-311G AUX)
    Role: JKFIT
    Keyword: DF_BASIS_SCF
    atoms 1    entry O          line   229 file /home/daniele/anaconda3/envs/poltype/share/psi4/basis/cc-pvtz-jkfit.gbs 
    atoms 2-5  entry C          line   125 file /home/daniele/anaconda3/envs/poltype/share/psi4/basis/cc-pvtz-jkfit.gbs 
    atoms 6-15 entry H          line    51 file /home/daniele/anaconda3/envs/poltype/share/psi4/basis/cc-pvtz-jkfit.gbs 

   => Loading Basis Set <=

    Name: 6-311G
    Role: ORBITAL
    Keyword: BASIS
    atoms 1    entry O          line   126 file /home/daniele/anaconda3/envs/poltype/share/psi4/basis/6-311g.gbs 
    atoms 2-5  entry C          line    92 file /home/daniele/anaconda3/envs/poltype/share/psi4/basis/6-311g.gbs 
    atoms 6-15 entry H          line    21 file /home/daniele/anaconda3/envs/poltype/share/psi4/basis/6-311g.gbs 

  Reading orbitals from file 180, no projection.

  ==> Pre-Iterations <==

   -------------------------------------------------------
    Irrep   Nso     Nmo     Nalpha   Nbeta   Ndocc  Nsocc
   -------------------------------------------------------
     A         95      95       0       0       0       0
   -------------------------------------------------------
    Total      95      95      21      21      21       0
   -------------------------------------------------------

  ==> Integral Setup <==

  ==> DiskDFJK: Density-Fitted J/K Matrices <==

    J tasked:                  Yes
    K tasked:                  Yes
    wK tasked:                 Yes
    Omega:               2.000E-01
    OpenMP threads:              8
    Integrals threads:           8
    Memory [MiB]:               31
    Algorithm:                Disk
    Integral Cache:           NONE
    Schwarz Cutoff:          1E-12
    Fitting Condition:       1E-10

   => Auxiliary Basis Set <=

  Basis Set: (6-311G AUX)
    Blend: CC-PVTZ-JKFIT
    Number of shells: 225
    Number of basis function: 695
    Number of Cartesian functions: 830
    Spherical Harmonics?: true
    Max angular momentum: 4

  Cached 100.0% of DFT collocation blocks in 0.542 [GiB].

  Minimum eigenvalue in the overlap matrix is 2.9526224437E-02.
  Using Symmetric Orthogonalization.

  SCF Guess: Orbitals guess was supplied from a previous computation.

  ==> Iterations <==

                           Total Energy        Delta E     RMS |[F,P]|

   @DF-RKS iter   0:  -230.98216208017124   -2.30982e+02   1.32689e-02 
   @DF-RKS iter   1:  -232.60835730233845   -1.62620e+00   5.03815e-03 DIIS
   @DF-RKS iter   2:  -232.67331464437578   -6.49573e-02   5.07869e-03 DIIS
   @DF-RKS iter   3:  -232.81992343508213   -1.46609e-01   1.51419e-03 DIIS
   @DF-RKS iter   4:  -232.83025371564850   -1.03303e-02   7.68778e-04 DIIS
   @DF-RKS iter   5:  -232.83637508691129   -6.12137e-03   2.68863e-04 DIIS
   @DF-RKS iter   6:  -232.83759557862066   -1.22049e-03   1.65395e-04 DIIS
   @DF-RKS iter   7:  -232.83826670584926   -6.71127e-04   7.39165e-05 DIIS
   @DF-RKS iter   8:  -232.83849254760699   -2.25842e-04   5.87522e-05 DIIS
   @DF-RKS iter   9:  -232.83859113395465   -9.85863e-05   1.63158e-05 DIIS
   @DF-RKS iter  10:  -232.83860701601026   -1.58821e-05   6.56472e-06 DIIS
   @DF-RKS iter  11:  -232.83860765575696   -6.39747e-07   3.67093e-06 DIIS
   @DF-RKS iter  12:  -232.83860782055609   -1.64799e-07   7.58822e-07 DIIS
   @DF-RKS iter  13:  -232.83860783403193   -1.34758e-08   2.60738e-07 DIIS
   @DF-RKS iter  14:  -232.83860783498446   -9.52525e-10   1.35704e-07 DIIS
   @DF-RKS iter  15:  -232.83860783518131   -1.96849e-10   2.22626e-08 DIIS
   @DF-RKS iter  16:  -232.83860783519339   -1.20792e-11   5.87680e-09 DIIS
  Energy and wave function converged.


  ==> Post-Iterations <==

    Orbital Energies [Eh]
    ---------------------

    Doubly Occupied:                                                      

       1A    -19.227462     2A    -10.435270     3A    -10.416307  
       4A    -10.415691     5A    -10.408111     6A     -0.998199  
       7A     -0.760637     8A     -0.741843     9A     -0.713068  
      10A     -0.692861    11A     -0.485102    12A     -0.451085  
      13A     -0.442891    14A     -0.437622    15A     -0.423964  
      16A     -0.421473    17A     -0.414190    18A     -0.406967  
      19A     -0.375480    20A     -0.344730    21A     -0.327667  

    Virtual:                                                              

      22A     -0.071872    23A     -0.012489    24A      0.020657  
      25A      0.035511    26A      0.059238    27A      0.101968  
      28A      0.106545    29A      0.127131    30A      0.129417  
      31A      0.137708    32A      0.147566    33A      0.151186  
      34A      0.159175    35A      0.163509    36A      0.282947  
      37A      0.333609    38A      0.336761    39A      0.369802  
      40A      0.404502    41A      0.408620    42A      0.431292  
      43A      0.448694    44A      0.464687    45A      0.493156  
      46A      0.518228    47A      0.541480    48A      0.582805  
      49A      0.591026    50A      0.602971    51A      0.607659  
      52A      0.614902    53A      0.620640    54A      0.676331  
      55A      0.689312    56A      0.723729    57A      0.748983  
      58A      0.767611    59A      0.814267    60A      0.882792  
      61A      0.950512    62A      0.962487    63A      1.014419  
      64A      1.118030    65A      1.300270    66A      2.266814  
      67A      2.280992    68A      2.297224    69A      2.324794  
      70A      2.337675    71A      2.364748    72A      2.392073  
      73A      2.405469    74A      2.438535    75A      2.441827  
      76A      2.604191    77A      2.663821    78A      2.730021  
      79A      2.793224    80A      2.802555    81A      2.810336  
      82A      2.818672    83A      2.850212    84A      2.893559  
      85A      2.916498    86A      2.937919    87A      2.946863  
      88A      4.930041    89A      4.946568    90A      5.079132  
      91A     23.316903    92A     23.336282    93A     23.359897  
      94A     23.400952    95A     49.859798  

    Final Occupation by Irrep:
              A 
    DOCC [    21 ]

  @DF-RKS Final Energy:  -232.83860783519339

   => Energetics <=

    Nuclear Repulsion Energy =            130.7040483630935626
    One-Electron Energy =                -573.3856293600593972
    Two-Electron Energy =                 232.0271974800200212
    DFT Exchange-Correlation Energy =     -22.1794009188489198
    Empirical Dispersion Energy =          -0.0048233993986344
    VV10 Nonlocal Energy =                  0.0000000000000000
    Total Energy =                       -232.8386078351934145

Computation Completed


Properties will be evaluated at   0.000000,   0.000000,   0.000000 [a0]

Properties computed using the SCF density matrix

  Nuclear Dipole Moment: [e a0]
     X:     6.9636      Y:     4.1112      Z:    -2.9202

  Electronic Dipole Moment: [e a0]
     X:    -5.9843      Y:    -3.3677      Z:     2.9422

  Dipole Moment: [e a0]
     X:     0.9793      Y:     0.7435      Z:     0.0221     Total:     1.2298

  Dipole Moment: [D]
     X:     2.4892      Y:     1.8899      Z:     0.0561     Total:     3.1259


*** tstop() called on daniele-Precision-5750 at Thu May 27 10:59:36 2021
Module time:
	user time   =      31.05 seconds =       0.52 minutes
	system time =       0.39 seconds =       0.01 minutes
	total time  =          5 seconds =       0.08 minutes
Total time:
	user time   =      74.74 seconds =       1.25 minutes
	system time =       1.28 seconds =       0.02 minutes
	total time  =         11 seconds =       0.18 minutes

*** tstart() called on daniele-Precision-5750
*** at Thu May 27 10:59:36 2021


         ------------------------------------------------------------
                                   SCF GRAD                          
                          Rob Parrish, Justin Turney,                
                       Andy Simmonett, and Alex Sokolov              
         ------------------------------------------------------------

  ==> Geometry <==

    Molecular point group: c1
    Full point group: C1

    Geometry (in Angstrom), charge = 0, multiplicity = 1:

       Center              X                  Y                   Z               Mass       
    ------------   -----------------  -----------------  -----------------  -----------------
         O           -3.022899199766    -1.499335280451     1.318648316784    15.994914619570
         C           -0.279554222376     0.258668007116    -0.313782789892    12.000000000000
         C            1.975829674060     0.553781175196    -0.436208411149    12.000000000000
         C           -0.885575633854    -1.232388797099     1.237108701467    12.000000000000
         C            2.593399947389     2.049458849274    -1.982579534352    12.000000000000
         H           -1.025124758919     1.428327263750    -0.324634516866     1.007825032230
         H           -0.845081746734    -0.016075646589    -1.394823612118     1.007825032230
         H            2.768743000408    -0.585119959910    -0.406361915945     1.007825032230
         H            2.451424453137     0.814530705757     0.690021298531     1.007825032230
         H           -0.165873170893    -2.389469618600     1.103592259413     1.007825032230
         H           -0.356289843085    -1.132638864026     2.391373125651     1.007825032230
         H            2.235179458909     1.735159069585    -3.119559715357     1.007825032230
         H            4.199212443414     2.260119011583    -1.934428453550     1.007825032230
         H            1.892734385081     3.241250967212    -2.039354021644     1.007825032230
         H           -3.711352984954    -0.962950349705     1.912480086414     1.007825032230

  Nuclear repulsion =  130.704048363093563

  ==> Basis Set <==

  Basis Set: 6-311G
    Blend: 6-311G
    Number of shells: 65
    Number of basis function: 95
    Number of Cartesian functions: 95
    Spherical Harmonics?: true
    Max angular momentum: 1

  ==> DFJKGrad: Density-Fitted SCF Gradients <==

    Gradient:                    1
    J tasked:                  Yes
    K tasked:                  Yes
    wK tasked:                 Yes
    Omega:               2.000E-01
    OpenMP threads:              8
    Integrals threads:           8
    Memory [MiB]:              500
    Schwarz Cutoff:          0E+00
    Fitting Condition:       1E-10

   => Auxiliary Basis Set <=

  Basis Set: (6-311G AUX)
    Blend: CC-PVTZ-JKFIT
    Number of shells: 225
    Number of basis function: 695
    Number of Cartesian functions: 830
    Spherical Harmonics?: true
    Max angular momentum: 4

  ==> DFT Potential <==

   => Composite Functional: WB97X-D <= 

    wB97X-D Hyb-GGA Exchange-Correlation Functional

    J.-D. Chai and M. Head-Gordon, Phys. Chem. Chem. Phys. 10, 6615 (2008)

    Deriv               =              1
    GGA                 =           TRUE
    Meta                =          FALSE

    Exchange Hybrid     =           TRUE
    MP2 Hybrid          =          FALSE

   => Exchange-Correlation Functionals <=

    1.0000   wB97D range-separated functional

   => Exact (HF) Exchange <=

    0.7780            HF,LR [omega = 0.2000]
    0.2220               HF 

   => Molecular Quadrature <=

    Radial Scheme          =       TREUTLER
    Pruning Scheme         =           FLAT
    Nuclear Scheme         =       TREUTLER

    BS radius alpha        =              1
    Pruning alpha          =              1
    Radial Points          =             75
    Spherical Points       =            302
    Total Points           =         336594
    Total Blocks           =           2562
    Max Points             =            256
    Max Functions          =             77


  -Total Gradient:
     Atom            X                  Y                   Z
    ------   -----------------  -----------------  -----------------
       1       -0.024576761988    -0.007552295504    -0.005905195971
       2        0.044630103097    -0.028093835734     0.028184581653
       3       -0.040277548995     0.020910845408    -0.031351963615
       4       -0.051280676152     0.020868657676    -0.028008912163
       5        0.002298174458    -0.028997962084     0.027502193945
       6       -0.055473292171     0.062174238703    -0.026265299419
       7       -0.044666599891     0.012089646741    -0.053265983526
       8        0.058174804644    -0.058585275113     0.027384497161
       9        0.040347972706    -0.012079339913     0.055409304068
      10        0.062002891438    -0.059343851415     0.016821709398
      11        0.043608353602    -0.021304825930     0.055262685979
      12       -0.027128655863     0.005259899071    -0.059466573327
      13        0.096043869404     0.012559563378     0.000170737104
      14       -0.048001803712     0.070468357343    -0.025978603284
      15       -0.055341520671     0.011778927026     0.019640716978


*** tstop() called on daniele-Precision-5750 at Thu May 27 10:59:37 2021
Module time:
	user time   =      12.55 seconds =       0.21 minutes
	system time =       0.12 seconds =       0.00 minutes
	total time  =          1 seconds =       0.02 minutes
Total time:
	user time   =      87.30 seconds =       1.45 minutes
	system time =       1.40 seconds =       0.02 minutes
	total time  =         12 seconds =       0.20 minutes

			-----------------------------------------
			 OPTKING 2.0: for geometry optimizations 
			  - R.A. King,  Bethel University        
			-----------------------------------------
	At level 1: Red. Int., RFO, no backsteps, dynamic trust

	Previous internal coordinate definitions found.
	---Fragment 1 Geometry and Gradient---
	 O          -5.7124515924       -2.8333330503        2.4918841745
	 C          -0.5282809175        0.4888116909       -0.5929635358
	 C           3.7337769545        1.0464947546       -0.8243144307
	 C          -1.6734954114       -2.3288773066        2.3377966332
	 C           4.9008156343        3.8729159305       -3.7465323419
	 H          -1.9372050388        2.6991473460       -0.6134703277
	 H          -1.5969730550       -0.0303785693       -2.6358346202
	 H           5.2321659825       -1.1057164748       -0.7679127290
	 H           4.6325208337        1.5392399547        1.3039512750
	 H          -0.3134548645       -4.5154431643        2.0854871245
	 H          -0.6732902247       -2.1403772521        4.5190402713
	 H           4.2238770186        3.2789754256       -5.8951134940
	 H           7.9353614607        4.2710059428       -3.6555399865
	 H           3.5767496160        6.1250766319       -3.8538205738
	 H          -7.0134406965       -1.8197124334        3.6140635837
	            -0.0245767620       -0.0075522955       -0.0059051960
	             0.0446301031       -0.0280938357        0.0281845817
	            -0.0402775490        0.0209108454       -0.0313519636
	            -0.0512806762        0.0208686577       -0.0280089122
	             0.0022981745       -0.0289979621        0.0275021939
	            -0.0554732922        0.0621742387       -0.0262652994
	            -0.0446665999        0.0120896467       -0.0532659835
	             0.0581748046       -0.0585852751        0.0273844972
	             0.0403479727       -0.0120793399        0.0554093041
	             0.0620028914       -0.0593438514        0.0168217094
	             0.0436083536       -0.0213048259        0.0552626860
	            -0.0271286559        0.0052598991       -0.0594665733
	             0.0960438694        0.0125595634        0.0001707371
	            -0.0480018037        0.0704683573       -0.0259786033
	            -0.0553415207        0.0117789270        0.0196407170

	---Fragment 1 Intrafragment Coordinates---
	 - Coordinate -           - BOHR/RAD -       - ANG/DEG -
	 R(1,4)           =         4.073252	       2.155472
	 R(1,15)          =         1.994815	       1.055611
	 R(2,3)           =         4.304610	       2.277902
	 R(2,4)           =         4.223771	       2.235123
	 R(2,6)           =         2.621273	       1.387118
	 R(2,7)           =         2.363257	       1.250582
	 R(3,5)           =         4.229656	       2.238238
	 R(3,8)           =         2.623045	       1.388056
	 R(3,9)           =         2.362214	       1.250030
	 R(4,10)          =         2.587362	       1.369173
	 R(4,11)          =         2.407024	       1.273742
	 R(5,12)          =         2.329681	       1.232814
	 R(5,13)          =         3.061899	       1.620287
	 R(5,14)          =         2.614745	       1.383663
	 B(1,4,2)         =         1.958128	     112.192474
	 B(1,4,10)        =         2.004516	     114.850318
	 B(1,4,11)        =         1.968666	     112.796244
	 B(2,3,5)         =         1.978929	     113.384264
	 B(2,3,8)         =         2.046696	     117.267016
	 B(2,3,9)         =         1.934040	     110.812326
	 B(2,4,10)        =         1.932191	     110.706406
	 B(2,4,11)        =         2.053164	     117.637633
	 B(3,2,4)         =         1.973790	     113.089826
	 B(3,2,6)         =         2.007018	     114.993654
	 B(3,2,7)         =         2.015006	     115.451366
	 B(3,5,12)        =         1.967785	     112.745776
	 B(3,5,13)        =         1.917503	     109.864821
	 B(3,5,14)        =         2.053531	     117.658644
	 B(4,1,15)        =         2.220619	     127.232098
	 B(4,2,6)         =         2.006684	     114.974504
	 B(4,2,7)         =         1.907774	     109.307417
	 B(5,3,8)         =         1.988356	     113.924407
	 B(5,3,9)         =         1.958534	     112.215742
	 B(6,2,7)         =         1.506178	      86.297654
	 B(8,3,9)         =         1.505191	      86.241070
	 B(10,4,11)       =         1.506878	      86.337740
	 B(12,5,13)       =         1.926798	     110.397405
	 B(12,5,14)       =         1.605412	      91.983338
	 B(13,5,14)       =         1.972617	     113.022648
	*D(1,4,2,3)       =        -3.134507	    -179.594007
	 D(1,4,2,6)       =         0.795094	      45.555527
	 D(1,4,2,7)       =        -0.863513	     -49.475645
	*D(2,3,5,12)      =        -1.045317	     -59.892249
	 D(2,3,5,13)      =         3.080745	     176.513672
	 D(2,3,5,14)      =         0.790670	      45.302054
	*D(2,4,1,15)      =        -1.570331	     -89.973345
	 D(3,2,4,10)      =        -0.869974	     -49.845866
	 D(3,2,4,11)      =         0.821965	      47.095120
	*D(4,2,3,5)       =        -3.138783	    -179.839008
	 D(4,2,3,8)       =         0.769916	      44.112946
	 D(4,2,3,9)       =        -0.918159	     -52.606631
	 D(5,3,2,6)       =        -0.785355	     -44.997513
	 D(5,3,2,7)       =         0.928898	      53.221948
	 D(6,2,3,8)       =         3.123344	     178.954440
	 D(6,2,3,9)       =         1.435269	      82.234864
	 D(6,2,4,10)      =         3.059626	     175.303668
	 D(6,2,4,11)      =        -1.531620	     -87.755346
	 D(7,2,3,8)       =        -1.445588	     -82.826098
	 D(7,2,3,9)       =        -3.133663	    -179.545675
	 D(7,2,4,10)      =         1.401019	      80.272496
	 D(7,2,4,11)      =         3.092959	     177.213482
	 D(8,3,5,12)      =         1.355419	      77.659765
	 D(8,3,5,13)      =        -0.801705	     -45.934314
	 D(8,3,5,14)      =        -3.091780	    -177.145932
	 D(9,3,5,12)      =         3.030122	     173.613197
	 D(9,3,5,13)      =         0.872998	      50.019117
	 D(9,3,5,14)      =        -1.417076	     -81.192500
	 D(10,4,1,15)     =         2.486296	     142.454291
	 D(11,4,1,15)     =         0.796933	      45.660893

	Current energy   :      -232.8386078352

	Energy change for the previous step:
		Projected    :        -0.0037055465
		Actual       :         0.7409670331

	Performing BFGS update.
	Previous computed or guess Hessian on step 1.
	Steps to be used in Hessian update: 1
	Taking RFO optimization step.
	Going to follow RFO solution 1.
	Using RFO vector 1.

	Determining step-restricting scale parameter for RS-RFO.
	Maximum step size allowed    0.50000

	 Iter      |step|        alpha        rfo_root  
	------------------------------------------------
	    0     0.83509       1.00000           1
	    1     0.62554       1.93586           1
	    2     0.52932       2.80871           1
	    3     0.50231       3.15275           1
	    4     0.50002       3.18472           1
	    5     0.50000       3.18495           1
	------------------------------------------------
	Norm of target step-size    0.50000
	Projected energy change by RFO approximation:        -0.1220917527

	Back-transformation to cartesian coordinates...
	Could not converge backtransformation.
	Using first guess instead.

	Back-transformation to cartesian coordinates to adjust frozen coordinates...
	Successfully converged to displaced geometry.

	--- Internal Coordinate Step in ANG or DEG, aJ/ANG or AJ/DEG ---
	 ---------------------------------------------------------------------------
	   Coordinate                Previous        Force       Change         New 
	   ----------                --------       ------       ------       ------
	    1 R(1,4)          =      2.155472    -0.653336    -0.087163     2.068309
	    2 R(1,15)         =      1.055611    -0.437611    -0.027262     1.028349
	    3 R(2,3)          =      2.277902    -0.676080    -0.088330     2.189572
	    4 R(2,4)          =      2.235123    -0.693218    -0.087486     2.147637
	    5 R(2,6)          =      1.387118    -0.679252    -0.062241     1.324877
	    6 R(2,7)          =      1.250582    -0.524111    -0.043771     1.206811
	    7 R(3,5)          =      2.238238    -0.707759    -0.088585     2.149653
	    8 R(3,8)          =      1.388056    -0.674554    -0.061981     1.326075
	    9 R(3,9)          =      1.250030    -0.516946    -0.043163     1.206866
	   10 R(4,10)         =      1.369173    -0.668127    -0.060667     1.308506
	   11 R(4,11)         =      1.273742    -0.548004    -0.046272     1.227470
	   12 R(5,12)         =      1.232814    -0.505880    -0.041391     1.191423
	   13 R(5,13)         =      1.620287    -0.797506    -0.084523     1.535764
	   14 R(5,14)         =      1.383663    -0.709124    -0.063589     1.320075
	   15 B(1,4,2)        =    112.192474     0.000346     0.379300   112.571774
	   16 B(1,4,10)       =    114.850318    -0.000919    -1.276062   113.574256
	   17 B(1,4,11)       =    112.796244    -0.000214    -0.224879   112.571365
	   18 B(2,3,5)        =    113.384264     0.000510     0.523374   113.907638
	   19 B(2,3,8)        =    117.267016    -0.000744    -0.997948   116.269068
	   20 B(2,3,9)        =    110.812326    -0.000314    -0.364682   110.447644
	   21 B(2,4,10)       =    110.706406    -0.000210    -0.237233   110.469173
	   22 B(2,4,11)       =    117.637633    -0.000734    -1.037315   116.600318
	   23 B(3,2,4)        =    113.089826     0.000481     0.549861   113.639687
	   24 B(3,2,6)        =    114.993654    -0.000516    -0.676912   114.316741
	   25 B(3,2,7)        =    115.451366    -0.000438    -0.619173   114.832193
	   26 B(3,5,12)       =    112.745776    -0.001235    -1.374082   111.371694
	   27 B(3,5,13)       =    109.864821     0.000104     0.212239   110.077061
	   28 B(3,5,14)       =    117.658644    -0.001506    -1.842377   115.816266
	   29 B(4,1,15)       =    127.232098    -0.004205    -4.864306   122.367792
	   30 B(4,2,6)        =    114.974504    -0.000477    -0.665436   114.309068
	   31 B(4,2,7)        =    109.307417    -0.000382    -0.447802   108.859615
	   32 B(5,3,8)        =    113.924407    -0.000317    -0.394128   113.530279
	   33 B(5,3,9)        =    112.215742    -0.000449    -0.563164   111.652578
	   34 B(6,2,7)        =     86.297654     0.001438     2.058546    88.356200
	   35 B(8,3,9)        =     86.241070     0.001431     2.032458    88.273528
	   36 B(10,4,11)      =     86.337740     0.001904     2.667079    89.004819
	   37 B(12,5,13)      =    110.397405     0.000536     0.502807   110.900212
	   38 B(12,5,14)      =     91.983338     0.002004     2.536305    94.519642
	   39 B(13,5,14)      =    113.022648     0.000378     0.259377   113.282025
	   40 *D(1,4,2,3)     =   -179.594007     0.000000    -0.000000  -179.594007
	   41 D(1,4,2,6)      =     45.555527     0.000179     1.145093    46.700620
	   42 D(1,4,2,7)      =    -49.475645    -0.000121    -0.775646   -50.251291
	   43 *D(2,3,5,12)    =    -59.892249     0.000000    -0.000000   -59.892249
	   44 D(2,3,5,13)     =    176.513672     0.000024     0.165529   176.679201
	   45 D(2,3,5,14)     =     45.302054     0.000198     1.263723    46.565778
	   46 *D(2,4,1,15)    =    -89.973345    -0.000000    -0.000000   -89.973345
	   47 D(3,2,4,10)     =    -49.845866    -0.000262    -1.616823   -51.462690
	   48 D(3,2,4,11)     =     47.095120     0.000166     1.008540    48.103659
	   49 *D(4,2,3,5)     =   -179.839008     0.000000    -0.000000  -179.839008
	   50 D(4,2,3,8)      =     44.112946     0.000176     1.154546    45.267491
	   51 D(4,2,3,9)      =    -52.606631    -0.000105    -0.646374   -53.253005
	   52 D(5,3,2,6)      =    -44.997513    -0.000174    -1.139749   -46.137262
	   53 D(5,3,2,7)      =     53.221948     0.000113     0.685441    53.907389
	   54 D(6,2,3,8)      =    178.954440     0.000001     0.014797   178.969237
	   55 D(6,2,3,9)      =     82.234864    -0.000279    -1.786123    80.448741
	   56 D(6,2,4,10)     =    175.303668    -0.000083    -0.471731   174.831937
	   57 D(6,2,4,11)     =    -87.755346     0.000344     2.153632   -85.601714
	   58 D(7,2,3,8)      =    -82.826098     0.000289     1.839986   -80.986112
	   59 D(7,2,3,9)      =   -179.545675     0.000008     0.039067  -179.506608
	   60 D(7,2,4,10)     =     80.272496    -0.000383    -2.392469    77.880027
	   61 D(7,2,4,11)     =    177.213482     0.000044     0.232894   177.446376
	   62 D(8,3,5,12)     =     77.659765    -0.000218    -1.409815    76.249950
	   63 D(8,3,5,13)     =    -45.934314    -0.000193    -1.244286   -47.178600
	   64 D(8,3,5,14)     =   -177.145932    -0.000020    -0.146092  -177.292024
	   65 D(9,3,5,12)     =    173.613197     0.000088     0.540568   174.153765
	   66 D(9,3,5,13)     =     50.019117     0.000113     0.706097    50.725215
	   67 D(9,3,5,14)     =    -81.192500     0.000286     1.804291   -79.388209
	   68 D(10,4,1,15)    =    142.454291     0.000180     1.089524   143.543815
	   69 D(11,4,1,15)    =     45.660893    -0.000219    -1.373850    44.287043
	 ---------------------------------------------------------------------------
	Successfully symmetrized geometry.

  ==> Convergence Check <==

  Measures of convergence in internal coordinates in au.
  Criteria marked as inactive (o), active & met (*), and active & unmet ( ).
  ---------------------------------------------------------------------------------------------
   Step     Total Energy     Delta E     MAX Force     RMS Force      MAX Disp      RMS Disp   
  ---------------------------------------------------------------------------------------------
    Convergence Criteria             o    2.50e-03 *    1.70e-03 *    1.00e-02 *    6.70e-03 *
  ---------------------------------------------------------------------------------------------
      2    -232.83860784    7.41e-01 o    9.68e-02      3.67e-02      1.67e-01      6.02e-02    ~
  ---------------------------------------------------------------------------------------------

	Writing optimization data to binary file.
	Structure for next step:
	Cartesian Geometry (in Angstrom)
	    O    -2.8870450550  -1.4481127847   1.2470634900
	    C    -0.2462264015   0.2510446947  -0.3147342102
	    C     1.9192973005   0.5531034172  -0.4308931923
	    C    -0.8376451731  -1.1785914272   1.1747992582
	    C     2.5205434291   1.9866917449  -1.9155932879
	    H    -0.9536676439   1.3712067521  -0.3068689461
	    H    -0.7749642722  -0.0345877862  -1.3612725781
	    H     2.6661426149  -0.5426046488  -0.4199150909
	    H     2.3660871168   0.8245330809   0.6568710545
	    H    -0.1679707989  -2.2934378417   1.0304372644
	    H    -0.3399045746  -1.0489454552   2.2893076464
	    H     2.1717732305   1.6552080406  -3.0055321467
	    H     4.0418446439   2.1909388086  -1.8656303149
	    H     1.8422293634   3.1190791403  -1.9292241659
	    H    -3.4957220089  -0.8822092201   1.8526760498
			--------------------------
			 OPTKING Finished Execution 
			--------------------------

    Structure for next step:
    Molecular point group: c1
    Full point group: C1

    Geometry (in Angstrom), charge = 0, multiplicity = 1:

    O           -2.907389790761    -1.455913623626     1.260205532575
    C           -0.266571126816     0.243243862433    -0.301592173690
    C            1.898952583646     0.545302586105    -0.417751156243
    C           -0.857989900758    -1.186392265047     1.187941300506
    C            2.500198714655     1.978890919438    -1.902451257739
    H           -0.974012372053     1.363405924205    -0.293726909619
    H           -0.795308999579    -0.042388619607    -1.348130545717
    H            2.645797900986    -0.550405484199    -0.406773054842
    H            2.345742401733     0.816732250898     0.670013094832
    H           -0.188315523913    -2.301238683955     1.043579306207
    H           -0.360249300359    -1.056746292564     2.302449693139
    H            2.151428514649     1.647407213842    -2.992390120758
    H            4.021499935439     2.183137983944    -1.852488284500
    H            1.821884646309     3.111278319277    -1.916082135805
    H           -3.516066746984    -0.890010056844     1.865818094783

gradient() will perform analytic gradient computation.

*** tstart() called on daniele-Precision-5750
*** at Thu May 27 10:59:37 2021

   => Loading Basis Set <=

    Name: 6-311G
    Role: ORBITAL
    Keyword: BASIS
    atoms 1    entry O          line   126 file /home/daniele/anaconda3/envs/poltype/share/psi4/basis/6-311g.gbs 
    atoms 2-5  entry C          line    92 file /home/daniele/anaconda3/envs/poltype/share/psi4/basis/6-311g.gbs 
    atoms 6-15 entry H          line    21 file /home/daniele/anaconda3/envs/poltype/share/psi4/basis/6-311g.gbs 


         ---------------------------------------------------------
                                   SCF
               by Justin Turney, Rob Parrish, Andy Simmonett
                          and Daniel G. A. Smith
                              RKS Reference
                        8 Threads,    667 MiB Core
         ---------------------------------------------------------

  ==> Geometry <==

    Molecular point group: c1
    Full point group: C1

    Geometry (in Angstrom), charge = 0, multiplicity = 1:

       Center              X                  Y                   Z               Mass       
    ------------   -----------------  -----------------  -----------------  -----------------
         O           -2.907389790761    -1.455913623626     1.260205532575    15.994914619570
         C           -0.266571126816     0.243243862433    -0.301592173690    12.000000000000
         C            1.898952583646     0.545302586105    -0.417751156243    12.000000000000
         C           -0.857989900758    -1.186392265047     1.187941300506    12.000000000000
         C            2.500198714655     1.978890919438    -1.902451257739    12.000000000000
         H           -0.974012372053     1.363405924205    -0.293726909619     1.007825032230
         H           -0.795308999579    -0.042388619607    -1.348130545717     1.007825032230
         H            2.645797900986    -0.550405484199    -0.406773054842     1.007825032230
         H            2.345742401733     0.816732250898     0.670013094832     1.007825032230
         H           -0.188315523913    -2.301238683955     1.043579306207     1.007825032230
         H           -0.360249300359    -1.056746292564     2.302449693139     1.007825032230
         H            2.151428514649     1.647407213842    -2.992390120758     1.007825032230
         H            4.021499935439     2.183137983944    -1.852488284500     1.007825032230
         H            1.821884646309     3.111278319277    -1.916082135805     1.007825032230
         H           -3.516066746984    -0.890010056844     1.865818094783     1.007825032230

  Running in c1 symmetry.

  Rotational constants: A =      0.36275  B =      0.03229  C =      0.03041 [cm^-1]
  Rotational constants: A =  10874.92634  B =    968.16755  C =    911.68844 [MHz]
  Nuclear repulsion =  136.056670723548677

  Charge       = 0
  Multiplicity = 1
  Electrons    = 42
  Nalpha       = 21
  Nbeta        = 21

  ==> Algorithm <==

  SCF Algorithm Type is DF.
  DIIS enabled.
  MOM disabled.
  Fractional occupation disabled.
  Guess Type is READ.
  Energy threshold   = 1.00e-08
  Density threshold  = 1.00e-08
  Integral threshold = 0.00e+00

  ==> Primary Basis <==

  Basis Set: 6-311G
    Blend: 6-311G
    Number of shells: 65
    Number of basis function: 95
    Number of Cartesian functions: 95
    Spherical Harmonics?: true
    Max angular momentum: 1

  ==> DFT Potential <==

   => Composite Functional: WB97X-D <= 

    wB97X-D Hyb-GGA Exchange-Correlation Functional

    J.-D. Chai and M. Head-Gordon, Phys. Chem. Chem. Phys. 10, 6615 (2008)

    Deriv               =              1
    GGA                 =           TRUE
    Meta                =          FALSE

    Exchange Hybrid     =           TRUE
    MP2 Hybrid          =          FALSE

   => Exchange-Correlation Functionals <=

    1.0000   wB97D range-separated functional

   => Exact (HF) Exchange <=

    0.7780            HF,LR [omega = 0.2000]
    0.2220               HF 

   => Molecular Quadrature <=

    Radial Scheme          =       TREUTLER
    Pruning Scheme         =           FLAT
    Nuclear Scheme         =       TREUTLER

    BS radius alpha        =              1
    Pruning alpha          =              1
    Radial Points          =             75
    Spherical Points       =            302
    Total Points           =         336544
    Total Blocks           =           2573
    Max Points             =            256
    Max Functions          =             78

   => WB97X-D: Empirical Dispersion <=

    Chai and Head-Gordon Dispersion Correction
    Chai, J.-D.; Head-Gordon, M. (2010), J. Chem. Phys., 132: 6615-6620

        s6 =       1.000000

   => Loading Basis Set <=

    Name: (6-311G AUX)
    Role: JKFIT
    Keyword: DF_BASIS_SCF
    atoms 1    entry O          line   229 file /home/daniele/anaconda3/envs/poltype/share/psi4/basis/cc-pvtz-jkfit.gbs 
    atoms 2-5  entry C          line   125 file /home/daniele/anaconda3/envs/poltype/share/psi4/basis/cc-pvtz-jkfit.gbs 
    atoms 6-15 entry H          line    51 file /home/daniele/anaconda3/envs/poltype/share/psi4/basis/cc-pvtz-jkfit.gbs 

   => Loading Basis Set <=

    Name: 6-311G
    Role: ORBITAL
    Keyword: BASIS
    atoms 1    entry O          line   126 file /home/daniele/anaconda3/envs/poltype/share/psi4/basis/6-311g.gbs 
    atoms 2-5  entry C          line    92 file /home/daniele/anaconda3/envs/poltype/share/psi4/basis/6-311g.gbs 
    atoms 6-15 entry H          line    21 file /home/daniele/anaconda3/envs/poltype/share/psi4/basis/6-311g.gbs 

  Reading orbitals from file 180, no projection.

  ==> Pre-Iterations <==

   -------------------------------------------------------
    Irrep   Nso     Nmo     Nalpha   Nbeta   Ndocc  Nsocc
   -------------------------------------------------------
     A         95      95       0       0       0       0
   -------------------------------------------------------
    Total      95      95      21      21      21       0
   -------------------------------------------------------

  ==> Integral Setup <==

  ==> DiskDFJK: Density-Fitted J/K Matrices <==

    J tasked:                  Yes
    K tasked:                  Yes
    wK tasked:                 Yes
    Omega:               2.000E-01
    OpenMP threads:              8
    Integrals threads:           8
    Memory [MiB]:               32
    Algorithm:                Disk
    Integral Cache:           NONE
    Schwarz Cutoff:          1E-12
    Fitting Condition:       1E-10

   => Auxiliary Basis Set <=

  Basis Set: (6-311G AUX)
    Blend: CC-PVTZ-JKFIT
    Number of shells: 225
    Number of basis function: 695
    Number of Cartesian functions: 830
    Spherical Harmonics?: true
    Max angular momentum: 4

  Cached 100.0% of DFT collocation blocks in 0.554 [GiB].

  Minimum eigenvalue in the overlap matrix is 2.3479941515E-02.
  Using Symmetric Orthogonalization.

  SCF Guess: Orbitals guess was supplied from a previous computation.

  ==> Iterations <==

                           Total Energy        Delta E     RMS |[F,P]|

   @DF-RKS iter   0:  -233.19049292289628   -2.33190e+02   1.23074e-03 
   @DF-RKS iter   1:  -232.98325604970810    2.07237e-01   7.24339e-04 DIIS
   @DF-RKS iter   2:  -232.98336428110898   -1.08231e-04   8.65833e-04 DIIS
   @DF-RKS iter   3:  -232.98687515003357   -3.51087e-03   2.47437e-04 DIIS
   @DF-RKS iter   4:  -232.98708089013840   -2.05740e-04   5.51800e-05 DIIS
   @DF-RKS iter   5:  -232.98710638540589   -2.54953e-05   1.70621e-05 DIIS
   @DF-RKS iter   6:  -232.98710919323329   -2.80783e-06   1.01133e-05 DIIS
   @DF-RKS iter   7:  -232.98711015050702   -9.57274e-07   2.03089e-06 DIIS
   @DF-RKS iter   8:  -232.98711020822654   -5.77195e-08   1.65645e-06 DIIS
   @DF-RKS iter   9:  -232.98711023068373   -2.24572e-08   3.14775e-07 DIIS
   @DF-RKS iter  10:  -232.98711023303451   -2.35079e-09   1.91186e-07 DIIS
   @DF-RKS iter  11:  -232.98711023350592   -4.71402e-10   8.54162e-08 DIIS
   @DF-RKS iter  12:  -232.98711023382347   -3.17556e-10   2.58884e-08 DIIS
   @DF-RKS iter  13:  -232.98711023386070   -3.72324e-11   7.44371e-09 DIIS
  Energy and wave function converged.


  ==> Post-Iterations <==

    Orbital Energies [Eh]
    ---------------------

    Doubly Occupied:                                                      

       1A    -19.229148     2A    -10.424867     3A    -10.400072  
       4A    -10.399822     5A    -10.390702     6A     -1.010107  
       7A     -0.773086     8A     -0.752216     9A     -0.719323  
      10A     -0.696806    11A     -0.495413    12A     -0.462539  
      13A     -0.452385    14A     -0.447061    15A     -0.430348  
      16A     -0.424480    17A     -0.421566    18A     -0.411770  
      19A     -0.383826    20A     -0.353412    21A     -0.333085  

    Virtual:                                                              

      22A     -0.044810    23A      0.014805    24A      0.046694  
      25A      0.054697    26A      0.077828    27A      0.114417  
      28A      0.122686    29A      0.143316    30A      0.147885  
      31A      0.151905    32A      0.160524    33A      0.163671  
      34A      0.173362    35A      0.176884    36A      0.287451  
      37A      0.336410    38A      0.342113    39A      0.387288  
[...]

    1.0000   wB97D range-separated functional

   => Exact (HF) Exchange <=

    0.7780            HF,LR [omega = 0.2000]
    0.2220               HF 

   => Molecular Quadrature <=

    Radial Scheme          =       TREUTLER
    Pruning Scheme         =           FLAT
    Nuclear Scheme         =       TREUTLER

    BS radius alpha        =              1
    Pruning alpha          =              1
    Radial Points          =             75
    Spherical Points       =            302
    Total Points           =         336068
    Total Blocks           =           2547
    Max Points             =            256
    Max Functions          =             89


  -Total Gradient:
     Atom            X                  Y                   Z
    ------   -----------------  -----------------  -----------------
       1        0.000640063481     0.001664158142    -0.001864695061
       2        0.001119210596    -0.001479107350    -0.000380430490
       3       -0.000925611368     0.000202327508    -0.000279331138
       4       -0.001268467143     0.000601073704     0.000309833966
       5        0.000471782593     0.000195755166     0.000572657904
       6       -0.000389955421     0.000200958768    -0.000252362089
       7       -0.000351459826    -0.000086755382    -0.000454131647
       8        0.000367957176    -0.000140694700     0.000256865945
       9        0.000295503440     0.000063779589     0.000429399120
      10        0.000304543667    -0.000229927149     0.000263280885
      11        0.000133367031    -0.000002567232     0.000408915225
      12       -0.000063368446    -0.000103671746    -0.000348219195
      13       -0.000228332142    -0.000082697014     0.000034369043
      14       -0.000221972946     0.000146461719    -0.000159568663
      15        0.000024269851    -0.000972551428     0.001560513701


*** tstop() called on daniele-Precision-5750 at Thu May 27 11:00:15 2021
Module time:
	user time   =      13.75 seconds =       0.23 minutes
	system time =       0.12 seconds =       0.00 minutes
	total time  =          2 seconds =       0.03 minutes
Total time:
	user time   =     377.68 seconds =       6.29 minutes
	system time =       5.01 seconds =       0.08 minutes
	total time  =         50 seconds =       0.83 minutes

			-----------------------------------------
			 OPTKING 2.0: for geometry optimizations 
			  - R.A. King,  Bethel University        
			-----------------------------------------
	At level 1: Red. Int., RFO, no backsteps, dynamic trust

	Previous internal coordinate definitions found.
	---Fragment 1 Geometry and Gradient---
	 O          -3.7999031669       -2.1705919812        1.4565283324
	 C          -0.3287177950        0.2351107926       -0.4772534524
	 C           2.4806672146        0.9192602474       -0.3497795154
	 C          -1.1425341834       -1.5421144682        1.6336472803
	 C           3.2905622843        2.7119338299       -2.4702018027
	 H          -1.4666133119        1.9641684375       -0.3770959821
	 H          -0.7692134256       -0.6539988563       -2.2906328217
	 H           3.6144509773       -0.8111898247       -0.4373119225
	 H           2.8972281594        1.7889332866        1.4839490405
	 H          -0.1299281730       -3.3307027240        1.4862387623
	 H          -0.6962306296       -0.7164356967        3.4820199979
	 H           2.9539821979        1.8598389646       -4.3216015828
	 H           5.2954124185        3.1739905331       -2.3388869634
	 H           2.2222441792        4.4780362406       -2.3907181993
	 H          -4.8132072922       -0.9775073996        2.3959293059
	             0.0006400635        0.0016641581       -0.0018646951
	             0.0011192106       -0.0014791074       -0.0003804305
	            -0.0009256114        0.0002023275       -0.0002793311
	            -0.0012684671        0.0006010737        0.0003098340
	             0.0004717826        0.0001957552        0.0005726579
	            -0.0003899554        0.0002009588       -0.0002523621
	            -0.0003514598       -0.0000867554       -0.0004541316
	             0.0003679572       -0.0001406947        0.0002568659
	             0.0002955034        0.0000637796        0.0004293991
	             0.0003045437       -0.0002299271        0.0002632809
	             0.0001333670       -0.0000025672        0.0004089152
	            -0.0000633684       -0.0001036717       -0.0003482192
	            -0.0002283321       -0.0000826970        0.0000343690
	            -0.0002219729        0.0001464617       -0.0001595687
	             0.0000242699       -0.0009725514        0.0015605137

	---Fragment 1 Intrafragment Coordinates---
	 - Coordinate -           - BOHR/RAD -       - ANG/DEG -
	 R(1,4)           =         2.736415	       1.448048
	 R(1,15)          =         1.825571	       0.966051
	 R(2,3)           =         2.894297	       1.531596
	 R(2,4)           =         2.876930	       1.522406
	 R(2,6)           =         2.072312	       1.096620
	 R(2,7)           =         2.067099	       1.093862
	 R(3,5)           =         2.892369	       1.530576
	 R(3,8)           =         2.070648	       1.095740
	 R(3,9)           =         2.071814	       1.096357
	 R(4,10)          =         2.060618	       1.090432
	 R(4,11)          =         2.073021	       1.096995
	 R(5,12)          =         2.065680	       1.093111
	 R(5,13)          =         2.061593	       1.090948
	 R(5,14)          =         2.065609	       1.093073
	 B(1,4,2)         =         1.948829	     111.659697
	 B(1,4,10)        =         1.847547	     105.856643
	 B(1,4,11)        =         1.937203	     110.993530
	 B(2,3,5)         =         1.967103	     112.706685
	 B(2,3,8)         =         1.909306	     109.395188
	 B(2,3,9)         =         1.910669	     109.473286
	 B(2,4,10)        =         1.922718	     110.163632
	 B(2,4,11)        =         1.925456	     110.320519
	 B(3,2,4)         =         1.969566	     112.847809
	 B(3,2,6)         =         1.910950	     109.489355
	 B(3,2,7)         =         1.925333	     110.313465
	 B(3,5,12)        =         1.934535	     110.840693
	 B(3,5,13)        =         1.943914	     111.378053
	 B(3,5,14)        =         1.935740	     110.909739
	 B(4,1,15)        =         1.934374	     110.831493
	 B(4,2,6)         =         1.901426	     108.943703
	 B(4,2,7)         =         1.894082	     108.522905
	 B(5,3,8)         =         1.910973	     109.490711
	 B(5,3,9)         =         1.909639	     109.414281
	 B(6,2,7)         =         1.859038	     106.515041
	 B(8,3,9)         =         1.852636	     106.148197
	 B(10,4,11)       =         1.879375	     107.680238
	 B(12,5,13)       =         1.883881	     107.938449
	 B(12,5,14)       =         1.878537	     107.632267
	 B(13,5,14)       =         1.884810	     107.991646
	*D(1,4,2,3)       =        -3.134507	    -179.594007
	 D(1,4,2,6)       =         1.022361	      58.576974
	 D(1,4,2,7)       =        -0.995101	     -57.015060
	*D(2,3,5,12)      =        -1.045317	     -59.892249
	 D(2,3,5,13)      =         3.140092	     179.914045
	 D(2,3,5,14)      =         1.040327	      59.606366
	*D(2,4,1,15)      =        -1.570331	     -89.973345
	 D(3,2,4,10)      =        -1.086825	     -62.270489
	 D(3,2,4,11)      =         0.985753	      56.479492
	*D(4,2,3,5)       =        -3.138783	    -179.839008
	 D(4,2,3,8)       =         1.014102	      58.103740
	 D(4,2,3,9)       =        -1.009214	     -57.823686
	 D(5,3,2,6)       =        -1.017845	     -58.318241
	 D(5,3,2,7)       =         1.022576	      58.589275
	 D(6,2,3,8)       =         3.135039	     179.624506
	 D(6,2,3,9)       =         1.111724	      63.697080
	 D(6,2,4,10)      =         3.070043	     175.900493
	 D(6,2,4,11)      =        -1.140564	     -65.349527
	 D(7,2,3,8)       =        -1.107725	     -63.467978
	 D(7,2,3,9)       =        -3.131040	    -179.395404
	 D(7,2,4,10)      =         1.052581	      60.308458
	 D(7,2,4,11)      =         3.125159	     179.058439
	 D(8,3,5,12)      =         1.084043	      62.111104
	 D(8,3,5,13)      =        -1.013733	     -58.082602
	 D(8,3,5,14)      =        -3.113498	    -178.390281
	 D(9,3,5,12)      =         3.107718	     178.059137
	 D(9,3,5,13)      =         1.009942	      57.865431
	 D(9,3,5,14)      =        -1.089823	     -62.442249
	 D(10,4,1,15)     =         2.620348	     150.134899
	 D(11,4,1,15)     =         0.585963	      33.573222

	Current energy   :      -233.5817490348

	Energy change for the previous step:
		Projected    :        -0.0000348315
		Actual       :        -0.0000455147

	Performing BFGS update.
	Previous computed or guess Hessian on step 1.
	Steps to be used in Hessian update: 8 7
	Taking RFO optimization step.
	Going to follow RFO solution 1.
	Using RFO vector 1.
	Norm of target step-size    0.01370
	Projected energy change by RFO approximation:        -0.0000326581

	Back-transformation to cartesian coordinates...
	Could not converge backtransformation.
	Using first guess instead.

	Back-transformation to cartesian coordinates to adjust frozen coordinates...
	Successfully converged to displaced geometry.

	--- Internal Coordinate Step in ANG or DEG, aJ/ANG or AJ/DEG ---
	 ---------------------------------------------------------------------------
	   Coordinate                Previous        Force       Change         New 
	   ----------                --------       ------       ------       ------
	    1 R(1,4)          =      1.448048     0.006724     0.001642     1.449691
	    2 R(1,15)         =      0.966051    -0.001377    -0.000151     0.965900
	    3 R(2,3)          =      1.531596     0.001523     0.001231     1.532827
	    4 R(2,4)          =      1.522406     0.001086     0.000174     1.522580
	    5 R(2,6)          =      1.096620    -0.003099    -0.000644     1.095977
	    6 R(2,7)          =      1.093862    -0.004169    -0.000768     1.093093
	    7 R(3,5)          =      1.530576    -0.000430     0.000166     1.530742
	    8 R(3,8)          =      1.095740    -0.002645    -0.000575     1.095165
	    9 R(3,9)          =      1.096357    -0.003689    -0.000677     1.095680
	   10 R(4,10)         =      1.090432    -0.002781    -0.000501     1.089931
	   11 R(4,11)         =      1.096995    -0.003184    -0.000565     1.096430
	   12 R(5,12)         =      1.093111    -0.003074    -0.000431     1.092679
	   13 R(5,13)         =      1.090948     0.001952     0.000386     1.091333
	   14 R(5,14)         =      1.093073    -0.001938    -0.000377     1.092696
	   15 B(1,4,2)        =    111.659697     0.000023     0.025264   111.684961
	   16 B(1,4,10)       =    105.856643    -0.000011    -0.079403   105.777240
	   17 B(1,4,11)       =    110.993530    -0.000005    -0.031612   110.961918
	   18 B(2,3,5)        =    112.706685     0.000009    -0.012188   112.694497
	   19 B(2,3,8)        =    109.395188    -0.000012    -0.083501   109.311686
	   20 B(2,3,9)        =    109.473286    -0.000008    -0.082415   109.390871
	   21 B(2,4,10)       =    110.163632    -0.000011    -0.039143   110.124489
	   22 B(2,4,11)       =    110.320519    -0.000013    -0.041450   110.279069
	   23 B(3,2,4)        =    112.847809     0.000011    -0.064961   112.782849
	   24 B(3,2,6)        =    109.489355    -0.000011    -0.085994   109.403361
	   25 B(3,2,7)        =    110.313465    -0.000010    -0.098123   110.215342
	   26 B(3,5,12)       =    110.840693    -0.000005    -0.019007   110.821686
	   27 B(3,5,13)       =    111.378053     0.000005     0.002929   111.380981
	   28 B(3,5,14)       =    110.909739    -0.000006    -0.005612   110.904127
	   29 B(4,1,15)       =    110.831493    -0.000002    -0.047127   110.784366
	   30 B(4,2,6)        =    108.943703    -0.000003     0.011592   108.955295
	   31 B(4,2,7)        =    108.522905    -0.000001     0.051953   108.574858
	   32 B(5,3,8)        =    109.490711    -0.000001    -0.009711   109.481000
	   33 B(5,3,9)        =    109.414281    -0.000001     0.003934   109.418215
	   34 B(6,2,7)        =    106.515041     0.000014     0.203198   106.718239
	   35 B(8,3,9)        =    106.148197     0.000013     0.196308   106.344505
	   36 B(10,4,11)      =    107.680238     0.000016     0.170899   107.851137
	   37 B(12,5,13)      =    107.938449    -0.000001    -0.035073   107.903376
	   38 B(12,5,14)      =    107.632267     0.000011     0.108461   107.740728
	   39 B(13,5,14)      =    107.991646    -0.000003    -0.049681   107.941965
	   40 *D(1,4,2,3)     =   -179.594007     0.000000    -0.000000  -179.594007
	   41 D(1,4,2,6)      =     58.576974     0.000002     0.144336    58.721311
	   42 D(1,4,2,7)      =    -57.015060    -0.000001    -0.131151   -57.146211
	   43 *D(2,3,5,12)    =    -59.892249    -0.000000    -0.000000   -59.892249
	   44 D(2,3,5,13)     =    179.914045     0.000000     0.055205   179.969250
	   45 D(2,3,5,14)     =     59.606366     0.000001     0.119943    59.726309
	   46 *D(2,4,1,15)    =    -89.973345     0.000000    -0.000000   -89.973345
	   47 D(3,2,4,10)     =    -62.270489    -0.000001    -0.107813   -62.378302
	   48 D(3,2,4,11)     =     56.479492    -0.000000     0.052944    56.532436
	   49 *D(4,2,3,5)     =   -179.839008    -0.000000    -0.000000  -179.839008
	   50 D(4,2,3,8)      =     58.103740     0.000001     0.080177    58.183918
	   51 D(4,2,3,9)      =    -57.823686    -0.000000    -0.062029   -57.885715
	   52 D(5,3,2,6)      =    -58.318241    -0.000001    -0.089837   -58.408079
	   53 D(5,3,2,7)      =     58.589275     0.000000     0.048760    58.638034
	   54 D(6,2,3,8)      =    179.624506    -0.000000    -0.009660   179.614847
	   55 D(6,2,3,9)      =     63.697080    -0.000001    -0.151866    63.545214
	   56 D(6,2,4,10)     =    175.900493     0.000001     0.036523   175.937016
	   57 D(6,2,4,11)     =    -65.349527     0.000002     0.197281   -65.152246
	   58 D(7,2,3,8)      =    -63.467978     0.000001     0.128937   -63.339040
	   59 D(7,2,3,9)      =   -179.395404    -0.000000    -0.013269  -179.408673
	   60 D(7,2,4,10)     =     60.308458    -0.000003    -0.238965    60.069494
	   61 D(7,2,4,11)     =    179.058439    -0.000001    -0.078207   178.980232
	   62 D(8,3,5,12)     =     62.111104    -0.000002    -0.121941    61.989163
	   63 D(8,3,5,13)     =    -58.082602    -0.000002    -0.066736   -58.149338
	   64 D(8,3,5,14)     =   -178.390281    -0.000001    -0.001998  -178.392279
	   65 D(9,3,5,12)     =    178.059137     0.000001     0.110769   178.169906
	   66 D(9,3,5,13)     =     57.865431     0.000001     0.165974    58.031405
	   67 D(9,3,5,14)     =    -62.442249     0.000003     0.230712   -62.211537
	   68 D(10,4,1,15)    =    150.134899     0.000002     0.082663   150.217562
	   69 D(11,4,1,15)    =     33.573222    -0.000001    -0.058566    33.514656
	 ---------------------------------------------------------------------------
	Successfully symmetrized geometry.

  ==> Convergence Check <==

  Measures of convergence in internal coordinates in au.
  Criteria marked as inactive (o), active & met (*), and active & unmet ( ).
  ---------------------------------------------------------------------------------------------
   Step     Total Energy     Delta E     MAX Force     RMS Force      MAX Disp      RMS Disp   
  ---------------------------------------------------------------------------------------------
    Convergence Criteria             o    2.50e-03 *    1.70e-03 *    1.00e-02 *    6.70e-03 *
  ---------------------------------------------------------------------------------------------
      9    -233.58174903   -4.55e-05 o    8.16e-04 *    1.92e-04 *    4.17e-03 *    1.65e-03 *  ~
  ---------------------------------------------------------------------------------------------


  **** Optimization is complete! (in 9 steps) ****

  ==> Optimization Summary <==

  Measures of convergence in internal coordinates in au.
  --------------------------------------------------------------------------------------------------------------- ~
   Step         Total Energy             Delta E       MAX Force       RMS Force        MAX Disp        RMS Disp  ~
  --------------------------------------------------------------------------------------------------------------- ~
      1    -233.579574868277   -233.579574868277      0.01458441      0.00379490      1.37539555      0.40848707  ~
      2    -232.838607835193      0.740967033084      0.09679978      0.03671433      0.16740152      0.06022686  ~
      3    -232.987110233861     -0.148502398667      0.09867278      0.03535279      0.33563471      0.11553074  ~
      4    -233.250188619976     -0.263078386115      0.09686927      0.03032128      0.36825071      0.11300031  ~
      5    -233.454771728114     -0.204583108138      0.08832163      0.02234559      0.38996535      0.09912251  ~
      6    -233.561881767826     -0.107110039712      0.04308368      0.01100621      0.16411279      0.04852699  ~
      7    -233.580827798891     -0.018946031065      0.00365700      0.00166808      0.05348373      0.01981622  ~
      8    -233.581703520150     -0.000875721259      0.00179220      0.00056290      0.01081110      0.00336605  ~
      9    -233.581749034838     -0.000045514688      0.00081616      0.00019217      0.00417072      0.00165007  ~
  --------------------------------------------------------------------------------------------------------------- ~

	Writing optimization data to binary file.
	Final energy is   -233.5817490348376
	Final (previous) structure:
	Cartesian Geometry (in Angstrom)
	    O    -2.0108221508  -1.1486278056   0.7707615972
	    C    -0.1739499652   0.1244152729  -0.2525516497
	    C     1.3127125521   0.4864515717  -0.1850953476
	    C    -0.6046030499  -0.8160518296   0.8644889076
	    C     1.7412905643   1.4350935740  -1.3071744946
	    H    -0.7760983385   1.0393931710  -0.1995505992
	    H    -0.4070502134  -0.3460812892  -1.2121506825
	    H     1.9126850787  -0.4292631671  -0.2314155024
	    H     1.5331471100   0.9466627230   0.7852720109
	    H    -0.0687550279  -1.7625319701   0.7864836795
	    H    -0.3684293811  -0.3791214421   1.8426056227
	    H     1.5631800537   0.9841843917  -2.2868930622
	    H     2.8022115620   1.6796034504  -1.2376856745
	    H     1.1759609716   2.3696747178  -1.2651135832
	    H    -2.5470395993  -0.5172746371   1.2678711821
	Saving final (previous) structure.
			--------------------------
			 OPTKING Finished Execution 
			--------------------------

    Final optimized geometry and variables:
    Molecular point group: c1
    Full point group: C1

    Geometry (in Angstrom), charge = 0, multiplicity = 1:

    O           -2.010822158685    -1.148627810138     0.770761600191
    C           -0.173949965870     0.124415273415    -0.252551650717
    C            1.312712557212     0.486451573582    -0.185095348305
    C           -0.604603052261    -0.816051832829     0.864488911026
    C            1.741290571117     1.435093579607    -1.307174499753
    H           -0.776098341540     1.039393175052    -0.199550599954
    H           -0.407050214978    -0.346081290558    -1.212150687242
    H            1.912685086256    -0.429263168767    -0.231415503339
    H            1.533147116056     0.946662726675     0.785272014012
    H           -0.068755028202    -1.762531977071     0.786483682607
    H           -0.368429382529    -0.379121443613     1.842605629991
    H            1.563180059859     0.984184395599    -2.286893071234
    H            2.802211572995     1.679603456997    -1.237685679377
    H            1.175960976191     2.369674727086    -1.265113588201
    H           -2.547039609264    -0.517274639107     1.267871187074

	Removing binary optimization data file.
	Cleaning optimization helper files.

    Psi4 stopped on: Thursday, 27 May 2021 11:00AM
    Psi4 wall time for execution: 0:00:49.46

*** Psi4 exiting successfully. Buy a developer a beer!
