
    -----------------------------------------------------------------------
          Psi4: An Open-Source Ab Initio Electronic Structure Package
                               Psi4 1.3.2 release

                         Git: Rev {HEAD} ecbda83 


    R. M. Parrish, L. A. Burns, D. G. A. Smith, A. C. Simmonett,
    A. E. DePrince III, E. G. Hohenstein, U. Bozkaya, A. Yu. Sokolov,
    R. Di Remigio, R. M. Richard, J. F. Gonthier, A. M. James,
    H. R. McAlexander, A. Kumar, M. Saitow, X. Wang, B. P. Pritchard,
    P. Verma, H. F. Schaefer III, K. Patkowski, R. A. King, E. F. Valeev,
    F. A. Evangelista, J. M. Turney, T. D. Crawford, and C. D. Sherrill,
    J. Chem. Theory Comput. 13(7) pp 3185--3197 (2017).
    (doi: 10.1021/acs.jctc.7b00174)


                         Additional Contributions by
    P. Kraus, H. Kruse, M. H. Lechner, M. C. Schieber, R. A. Shaw,
    A. Alenaizan, R. Galvelis, Z. L. Glick, S. Lehtola, and J. P. Misiewicz

    -----------------------------------------------------------------------


    Psi4 started on: Thursday, 27 May 2021 11:44AM

    Process ID: 228981
    Host:       daniele-Precision-5750
    PSIDATADIR: /home/daniele/anaconda3/envs/poltype/share/psi4
    Memory:     500.0 MiB
    Threads:    1
    
  ==> Input File <==

--------------------------------------------------------------------------
molecule { 
0 1
 O   -1.936029   -0.548706   -0.710606
 C   -0.003909    0.653618    0.033223
 C    1.105382   -0.348347    0.365332
 C   -1.395170    0.173951    0.422267
 C    2.495394    0.154394   -0.029860
 H    0.207853    1.594404    0.553273
 H   -0.016609    0.875310   -1.035949
 H    0.891451   -1.293389   -0.141349
 H    1.086527   -0.556238    1.440586
 H   -1.342882   -0.469476    1.308999
 H   -2.039885    1.029813    0.654923
 H    2.546994    0.347880   -1.103650
 H    3.267715   -0.576315    0.217089
 H    2.735883    1.086146    0.488381
 H   -2.826102   -0.874127   -0.522334
}
memory 700MB
set_num_threads(8)
psi4_io.set_default_path("/home/daniele/PSI4_sctatch/Psi4-1butanol_3D")
set freeze_core True
E, wfn = energy('wb97x-d/6-311+G*',return_wfn=True)
oeprop(wfn,"WIBERG_LOWDIN_INDICES")
clean()
--------------------------------------------------------------------------

  Memory set to 667.572 MiB by Python driver.
  Threads set to 8 by Python driver.

*** tstart() called on daniele-Precision-5750
*** at Thu May 27 11:44:11 2021

   => Loading Basis Set <=

    Name: 6-311+G*
    Role: ORBITAL
    Keyword: BASIS
    atoms 1    entry O          line   172 file /home/daniele/anaconda3/envs/poltype/share/psi4/basis/6-311pgs.gbs 
    atoms 2-5  entry C          line   130 file /home/daniele/anaconda3/envs/poltype/share/psi4/basis/6-311pgs.gbs 
    atoms 6-15 entry H          line    47 file /home/daniele/anaconda3/envs/poltype/share/psi4/basis/6-311pgs.gbs 


         ---------------------------------------------------------
                                   SCF
               by Justin Turney, Rob Parrish, Andy Simmonett
                          and Daniel G. A. Smith
                              RKS Reference
                        8 Threads,    667 MiB Core
         ---------------------------------------------------------

  ==> Geometry <==

    Molecular point group: c1
    Full point group: C1

    Geometry (in Angstrom), charge = 0, multiplicity = 1:

       Center              X                  Y                   Z               Mass       
    ------------   -----------------  -----------------  -----------------  -----------------
         O           -1.936028847907    -0.548706037515    -0.710605797757    15.994914619570
         C           -0.003908847907     0.653617962485     0.033223202243    12.000000000000
         C            1.105382152093    -0.348347037515     0.365332202243    12.000000000000
         C           -1.395169847907     0.173950962485     0.422267202243    12.000000000000
         C            2.495394152093     0.154393962485    -0.029859797757    12.000000000000
         H            0.207853152093     1.594403962485     0.553273202243     1.007825032230
         H           -0.016608847907     0.875309962485    -1.035948797757     1.007825032230
         H            0.891451152093    -1.293389037515    -0.141348797757     1.007825032230
         H            1.086527152093    -0.556238037515     1.440586202243     1.007825032230
         H           -1.342881847907    -0.469476037515     1.308999202243     1.007825032230
         H           -2.039884847907     1.029812962485     0.654923202243     1.007825032230
         H            2.546994152093     0.347879962485    -1.103649797757     1.007825032230
         H            3.267715152093    -0.576315037515     0.217089202243     1.007825032230
         H            2.735883152093     1.086145962485     0.488381202243     1.007825032230
         H           -2.826101847907    -0.874127037515    -0.522333797757     1.007825032230

  Running in c1 symmetry.

  Rotational constants: A =      0.45079  B =      0.07299  C =      0.07034 [cm^-1]
  Rotational constants: A =  13514.41781  B =   2188.13977  C =   2108.63987 [MHz]
  Nuclear repulsion =  186.218248049455013

  Charge       = 0
  Multiplicity = 1
  Electrons    = 42
  Nalpha       = 21
  Nbeta        = 21

  ==> Algorithm <==

  SCF Algorithm Type is DF.
  DIIS enabled.
  MOM disabled.
  Fractional occupation disabled.
  Guess Type is SAD.
  Energy threshold   = 1.00e-06
  Density threshold  = 1.00e-06
  Integral threshold = 0.00e+00

  ==> Primary Basis <==

  Basis Set: 6-311+G*
    Blend: 6-311+G*
    Number of shells: 80
    Number of basis function: 140
    Number of Cartesian functions: 145
    Spherical Harmonics?: true
    Max angular momentum: 2

  ==> DFT Potential <==

   => Composite Functional: WB97X-D <= 

    wB97X-D Hyb-GGA Exchange-Correlation Functional

    J.-D. Chai and M. Head-Gordon, Phys. Chem. Chem. Phys. 10, 6615 (2008)

    Deriv               =              1
    GGA                 =           TRUE
    Meta                =          FALSE

    Exchange Hybrid     =           TRUE
    MP2 Hybrid          =          FALSE

   => Exchange-Correlation Functionals <=

    1.0000   wB97D range-separated functional

   => Exact (HF) Exchange <=

    0.7780            HF,LR [omega = 0.2000]
    0.2220               HF 

   => Molecular Quadrature <=

    Radial Scheme          =       TREUTLER
    Pruning Scheme         =           FLAT
    Nuclear Scheme         =       TREUTLER

    BS radius alpha        =              1
    Pruning alpha          =              1
    Radial Points          =             75
    Spherical Points       =            302
    Total Points           =         339750
    Total Blocks           =           2564
    Max Points             =            256
    Max Functions          =            136

   => WB97X-D: Empirical Dispersion <=

    Chai and Head-Gordon Dispersion Correction
    Chai, J.-D.; Head-Gordon, M. (2010), J. Chem. Phys., 132: 6615-6620

        s6 =       1.000000

   => Loading Basis Set <=

    Name: (6-311+G* AUX)
    Role: JKFIT
    Keyword: DF_BASIS_SCF
    atoms 1    entry O          line   324 file /home/daniele/anaconda3/envs/poltype/share/psi4/basis/heavy-aug-cc-pvtz-jkfit.gbs 
    atoms 2-5  entry C          line   200 file /home/daniele/anaconda3/envs/poltype/share/psi4/basis/heavy-aug-cc-pvtz-jkfit.gbs 
    atoms 6-15 entry H          line   116 file /home/daniele/anaconda3/envs/poltype/share/psi4/basis/heavy-aug-cc-pvtz-jkfit.gbs 

  ==> Pre-Iterations <==

   -------------------------------------------------------
    Irrep   Nso     Nmo     Nalpha   Nbeta   Ndocc  Nsocc
   -------------------------------------------------------
     A        140     140       0       0       0       0
   -------------------------------------------------------
    Total     140     140      21      21      21       0
   -------------------------------------------------------

  ==> Integral Setup <==

  ==> DiskDFJK: Density-Fitted J/K Matrices <==

    J tasked:                  Yes
    K tasked:                  Yes
    wK tasked:                 Yes
    Omega:               2.000E-01
    OpenMP threads:              8
    Integrals threads:           8
    Memory [MiB]:               77
    Algorithm:                Disk
    Integral Cache:           NONE
    Schwarz Cutoff:          1E-12
    Fitting Condition:       1E-10

   => Auxiliary Basis Set <=

  Basis Set: (6-311+G* AUX)
    Blend: HEAVY-AUG-CC-PVTZ-JKFIT
    Number of shells: 250
    Number of basis function: 820
    Number of Cartesian functions: 1005
    Spherical Harmonics?: true
    Max angular momentum: 4

  Cached 50.0% of DFT collocation blocks in 0.513 [GiB].

  Minimum eigenvalue in the overlap matrix is 2.1496614806E-05.
  Using Symmetric Orthogonalization.

  SCF Guess: Superposition of Atomic Densities via on-the-fly atomic UHF.

  ==> Iterations <==

                           Total Energy        Delta E     RMS |[F,P]|

   @DF-RKS iter SAD:  -232.90996982664723   -2.32910e+02   0.00000e+00 
   @DF-RKS iter   1:  -233.24371646269682   -3.33747e-01   6.47098e-03 DIIS
   @DF-RKS iter   2:  -233.34317377092171   -9.94573e-02   6.00049e-03 DIIS
   @DF-RKS iter   3:  -233.64049554871184   -2.97322e-01   7.48605e-04 DIIS
   @DF-RKS iter   4:  -233.64411663850760   -3.62109e-03   2.85770e-04 DIIS
   @DF-RKS iter   5:  -233.64478726980934   -6.70631e-04   4.06410e-05 DIIS
   @DF-RKS iter   6:  -233.64480717246244   -1.99027e-05   1.45040e-05 DIIS
   @DF-RKS iter   7:  -233.64480925170358   -2.07924e-06   3.46953e-06 DIIS
   @DF-RKS iter   8:  -233.64480939936044   -1.47657e-07   5.64023e-07 DIIS
  Energy and wave function converged.


  ==> Post-Iterations <==

    Orbital Energies [Eh]
    ---------------------

    Doubly Occupied:                                                      

       1A    -19.244810     2A    -10.328269     3A    -10.273665  
       4A    -10.272961     5A    -10.265336     6A     -1.116209  
       7A     -0.893586     8A     -0.819695     9A     -0.723954  
      10A     -0.672171    11A     -0.610973    12A     -0.543412  
      13A     -0.538695    14A     -0.516936    15A     -0.471640  
      16A     -0.461080    17A     -0.441899    18A     -0.415580  
      19A     -0.409641    20A     -0.403681    21A     -0.357986  

    Virtual:                                                              

      22A      0.063884    23A      0.076926    24A      0.086556  
      25A      0.090832    26A      0.109708    27A      0.114574  
      28A      0.115980    29A      0.132786    30A      0.136697  
      31A      0.145687    32A      0.155344    33A      0.162098  
      34A      0.184142    35A      0.203253    36A      0.216063  
      37A      0.225854    38A      0.236900    39A      0.243291  
      40A      0.248390    41A      0.256605    42A      0.264016  
      43A      0.268153    44A      0.280236    45A      0.300618  
      46A      0.316519    47A      0.322890    48A      0.323843  
      49A      0.336188    50A      0.342744    51A      0.350070  
      52A      0.360701    53A      0.367229    54A      0.408241  
      55A      0.434594    56A      0.489259    57A      0.492940  
      58A      0.530274    59A      0.538501    60A      0.542998  
      61A      0.579786    62A      0.613220    63A      0.634242  
      64A      0.654310    65A      0.679814    66A      0.695380  
      67A      0.720660    68A      0.728729    69A      0.738338  
      70A      0.742681    71A      0.756720    72A      0.768818  
      73A      0.789512    74A      0.808647    75A      0.815621  
      76A      0.830718    77A      0.843935    78A      0.949347  
      79A      1.063452    80A      1.081280    81A      1.116718  
      82A      1.146507    83A      1.178501    84A      1.195763  
      85A      1.259473    86A      1.381458    87A      1.437396  
      88A      1.508424    89A      1.604188    90A      1.618115  
      91A      1.632450    92A      1.663884    93A      1.671689  
      94A      1.695015    95A      1.716745    96A      1.726662  
      97A      1.795003    98A      1.816881    99A      1.838018  
     100A      1.913417   101A      1.939328   102A      2.004279  
     103A      2.047168   104A      2.230792   105A      2.276438  
     106A      2.308142   107A      2.545071   108A      2.577647  
     109A      2.597678   110A      2.601946   111A      2.608586  
     112A      2.651672   113A      2.671612   114A      2.697515  
     115A      2.727326   116A      2.898564   117A      2.924033  
     118A      3.016519   119A      3.064844   120A      3.110415  
     121A      3.135365   122A      3.155192   123A      3.228334  
     124A      3.286156   125A      3.301421   126A      3.333731  
     127A      3.365877   128A      3.484016   129A      3.714843  
     130A      3.908482   131A      4.048360   132A      4.191166  
     133A      5.124924   134A      5.270570   135A      5.526359  
     136A     23.556966   137A     23.727549   138A     23.813489  
     139A     23.871452   140A     50.008380  

    Final Occupation by Irrep:
              A 
    DOCC [    21 ]

  @DF-RKS Final Energy:  -233.64480939936044

   => Energetics <=

    Nuclear Repulsion Energy =            186.2182480494550134
    One-Electron Energy =                -684.4457809989089583
    Two-Electron Energy =                 287.8296870290224660
    DFT Exchange-Correlation Energy =     -23.2400094167144005
    Empirical Dispersion Energy =          -0.0069540622145619
    VV10 Nonlocal Energy =                  0.0000000000000000
    Total Energy =                       -233.6448093993604118

Computation Completed


Properties will be evaluated at   0.000000,   0.000000,   0.000000 [a0]

Properties computed using the SCF density matrix

  Nuclear Dipole Moment: [e a0]
     X:     4.2196      Y:     1.0886      Z:     1.7403

  Electronic Dipole Moment: [e a0]
     X:    -4.5444      Y:    -0.9935      Z:    -1.1368

  Dipole Moment: [e a0]
     X:    -0.3248      Y:     0.0951      Z:     0.6035     Total:     0.6919

  Dipole Moment: [D]
     X:    -0.8255      Y:     0.2417      Z:     1.5338     Total:     1.7586


*** tstop() called on daniele-Precision-5750 at Thu May 27 11:44:18 2021
Module time:
	user time   =      53.07 seconds =       0.88 minutes
	system time =       1.79 seconds =       0.03 minutes
	total time  =          7 seconds =       0.12 minutes
Total time:
	user time   =      53.07 seconds =       0.88 minutes
	system time =       1.79 seconds =       0.03 minutes
	total time  =          7 seconds =       0.12 minutes


Properties will be evaluated at   0.000000,   0.000000,   0.000000 [a0]
OEProp: No title given, name of density matrix used for the following properties is 'SCF density'


  Wiberg Bond Indices using Orthogonal Lowdin Orbitals:

  Irrep: 1 Size: 15 x 15

                 1                   2                   3                   4                   5

    1     0.00000000000000     0.12183301823398     0.02907554715186     1.31381012019310     0.00297168091426
    2     0.12183301823398     0.00000000000000     1.15135007623512     1.15593750742262     0.11369720659639
    3     0.02907554715186     1.15135007623512     0.00000000000000     0.11004479766024     1.20498832729842
    4     1.31381012019310     1.15593750742262     0.11004479766024     0.00000000000000     0.02130472080774
    5     0.00297168091426     0.11369720659639     1.20498832729842     0.02130472080774     0.00000000000000
    6     0.00797149794761     0.85703122353120     0.03981770619783     0.04934429552887     0.01385669690238
    7     0.02064177543937     0.85127080254200     0.03732268917497     0.03954141981607     0.01274739693107
    8     0.00402187903666     0.03847178519609     0.86335736448676     0.01246474248754     0.03888164359806
    9     0.00098008846316     0.03991351944172     0.86560448347008     0.01510567238662     0.03939139202263
   10     0.05033582896207     0.03985375187710     0.02302103368382     0.86372531265771     0.00261683830935
   11     0.05280515991451     0.04647815359401     0.01034319481323     0.87125325640481     0.00118748443560
   12     0.00021651163759     0.01432508084706     0.04125324855081     0.00171234669587     0.90991351514565
   13     0.00021359564520     0.01194311265353     0.04796689335040     0.00144550892046     0.91519713833880
   14     0.00037682120047     0.01432856808911     0.04190373598077     0.00156688990816     0.91015142414760
   15     0.86359978281196     0.01189655662325     0.00075811525921     0.03697408946699     0.00022640091770

                 6                   7                   8                   9                  10

    1     0.00797149794761     0.02064177543937     0.00402187903666     0.00098008846316     0.05033582896207
    2     0.85703122353120     0.85127080254200     0.03847178519609     0.03991351944172     0.03985375187710
    3     0.03981770619783     0.03732268917497     0.86335736448676     0.86560448347008     0.02302103368382
    4     0.04934429552887     0.03954141981607     0.01246474248754     0.01510567238662     0.86372531265771
    5     0.01385669690238     0.01274739693107     0.03888164359806     0.03939139202263     0.00261683830935
    6     0.00000000000000     0.00733887854216     0.00877796040089     0.00466268583082     0.00058769600818
    7     0.00733887854216     0.00000000000000     0.00438003385073     0.00843197427790     0.00608557187104
    8     0.00877796040089     0.00438003385073     0.00000000000000     0.00729676912355     0.00082819275369
    9     0.00466268583082     0.00843197427790     0.00729676912355     0.00000000000000     0.00208409370329
   10     0.00058769600818     0.00608557187104     0.00082819275369     0.00208409370329     0.00000000000000
   11     0.00589221748743     0.00113420271960     0.00024321662862     0.00024017906177     0.00921563911730
   12     0.00055004055736     0.00097645237337     0.00373038897822     0.00999480082169     0.00020381552828
   13     0.00035470851175     0.00034701955241     0.00308876926601     0.00307550354890     0.00006303714480
   14     0.00109655809629     0.00049023335745     0.01000107734433     0.00386179712472     0.00004070470544
   15     0.00053709408802     0.00085141027175     0.00007748992026     0.00001102186574     0.00290745888759

                11                  12                  13                  14                  15

    1     0.05280515991451     0.00021651163759     0.00021359564520     0.00037682120047     0.86359978281196
    2     0.04647815359401     0.01432508084706     0.01194311265353     0.01432856808911     0.01189655662325
    3     0.01034319481323     0.04125324855081     0.04796689335040     0.04190373598077     0.00075811525921
    4     0.87125325640481     0.00171234669587     0.00144550892046     0.00156688990816     0.03697408946699
    5     0.00118748443560     0.90991351514565     0.91519713833880     0.91015142414760     0.00022640091770
    6     0.00589221748743     0.00055004055736     0.00035470851175     0.00109655809629     0.00053709408802
    7     0.00113420271960     0.00097645237337     0.00034701955241     0.00049023335745     0.00085141027175
    8     0.00024321662862     0.00373038897822     0.00308876926601     0.01000107734433     0.00007748992026
    9     0.00024017906177     0.00999480082169     0.00307550354890     0.00386179712472     0.00001102186574
   10     0.00921563911730     0.00020381552828     0.00006303714480     0.00004070470544     0.00290745888759
   11     0.00000000000000     0.00007582625854     0.00034698358996     0.00004987089332     0.00320642856915
   12     0.00007582625854     0.00000000000000     0.00956222984365     0.00811689799967     0.00000709981651
   13     0.00034698358996     0.00956222984365     0.00000000000000     0.00946388197201     0.00002222592256
   14     0.00004987089332     0.00811689799967     0.00946388197201     0.00000000000000     0.00005845402025
   15     0.00320642856915     0.00000709981651     0.00002222592256     0.00005845402025     0.00000000000000



  Atomic Valences: 

 #  #
 Irrep: 1
      1:  2.4688533
      2:  4.4683304
      3:  4.4668072
      4:  4.4942307
      5:  4.1871319
      6:  0.9978193
      7:  0.9915599
      8:  0.9956213
      9:  1.0006540
     10:  1.0015690
     11:  1.0024718
     12:  1.0006383
     13:  1.0030906
     14:  1.0015069
     15:  0.9211336


    Psi4 stopped on: Thursday, 27 May 2021 11:44AM
    Psi4 wall time for execution: 0:00:07.62

*** Psi4 exiting successfully. Buy a developer a beer!
