
    -----------------------------------------------------------------------
          Psi4: An Open-Source Ab Initio Electronic Structure Package
                               Psi4 1.3.2 release

                         Git: Rev {HEAD} ecbda83 


    R. M. Parrish, L. A. Burns, D. G. A. Smith, A. C. Simmonett,
    A. E. DePrince III, E. G. Hohenstein, U. Bozkaya, A. Yu. Sokolov,
    R. Di Remigio, R. M. Richard, J. F. Gonthier, A. M. James,
    H. R. McAlexander, A. Kumar, M. Saitow, X. Wang, B. P. Pritchard,
    P. Verma, H. F. Schaefer III, K. Patkowski, R. A. King, E. F. Valeev,
    F. A. Evangelista, J. M. Turney, T. D. Crawford, and C. D. Sherrill,
    J. Chem. Theory Comput. 13(7) pp 3185--3197 (2017).
    (doi: 10.1021/acs.jctc.7b00174)


                         Additional Contributions by
    P. Kraus, H. Kruse, M. H. Lechner, M. C. Schieber, R. A. Shaw,
    A. Alenaizan, R. Galvelis, Z. L. Glick, S. Lehtola, and J. P. Misiewicz

    -----------------------------------------------------------------------


    Psi4 started on: Thursday, 27 May 2021 11:04AM

    Process ID: 226028
    Host:       daniele-Precision-5750
    PSIDATADIR: /home/daniele/anaconda3/envs/poltype/share/psi4
    Memory:     500.0 MiB
    Threads:    1
    
  ==> Input File <==

--------------------------------------------------------------------------
molecule { 
0 1
 O   -2.403297    0.415944   -0.291906
 C   -0.005723    0.233768   -0.131717
 C    1.232088   -0.408601    0.545281
 C   -1.361939   -0.250317    0.429302
 C    2.577495    0.087634   -0.022127
 H    0.036496    1.325643   -0.023460
 H    0.014548    0.026691   -1.209651
 H    1.182528   -1.500366    0.439274
 H    1.204951   -0.206254    1.624221
 H   -1.450215   -1.340654    0.338993
 H   -1.427140   -0.016092    1.498873
 H    2.660949   -0.131160   -1.091982
 H    3.416212   -0.401192    0.485050
 H    2.689448    1.168891    0.113717
 H   -2.641326   -0.125026   -1.068447
}
set optking { 
  frozen_dihedral = ("
    2 4 1 15
    4 2 3 5
    3 2 4 1
    12 5 3 2
  ")
}
set {
  geom_maxiter 400
  g_convergence GAU_LOOSE
  dynamic_level 1
}
memory 700MB
set_num_threads(8)
psi4_io.set_default_path("/home/daniele/PSI4_sctatch/Psi4-1butanol_3D")
for _ in range(1):
  try:
    set opt_coordinates both
    optimize('wb97x-d/6-311G')
    break
  except OptimizationConvergenceError:
    break
  else:
    try:
      set opt_coordinates cartesian
      optimize('wb97x-d/6-311G')
      break
    except OptimizationConvergenceError:
      pass
clean()
--------------------------------------------------------------------------

  Memory set to 667.572 MiB by Python driver.
  Threads set to 8 by Python driver.
gradient() will perform analytic gradient computation.

*** tstart() called on daniele-Precision-5750
*** at Thu May 27 11:04:41 2021

   => Loading Basis Set <=

    Name: 6-311G
    Role: ORBITAL
    Keyword: BASIS
    atoms 1    entry O          line   126 file /home/daniele/anaconda3/envs/poltype/share/psi4/basis/6-311g.gbs 
    atoms 2-5  entry C          line    92 file /home/daniele/anaconda3/envs/poltype/share/psi4/basis/6-311g.gbs 
    atoms 6-15 entry H          line    21 file /home/daniele/anaconda3/envs/poltype/share/psi4/basis/6-311g.gbs 


         ---------------------------------------------------------
                                   SCF
               by Justin Turney, Rob Parrish, Andy Simmonett
                          and Daniel G. A. Smith
                              RKS Reference
                        8 Threads,    667 MiB Core
         ---------------------------------------------------------

  ==> Geometry <==

    Molecular point group: c1
    Full point group: C1

    Geometry (in Angstrom), charge = 0, multiplicity = 1:

       Center              X                  Y                   Z               Mass       
    ------------   -----------------  -----------------  -----------------  -----------------
         O           -2.357308271683     0.397126233906    -0.376890940832    15.994914619570
         C            0.040265728317     0.214950233906    -0.216701940832    12.000000000000
         C            1.278076728317    -0.427418766094     0.460296059168    12.000000000000
         C           -1.315950271683    -0.269134766094     0.344317059168    12.000000000000
         C            2.623483728317     0.068816233906    -0.107111940832    12.000000000000
         H            0.082484728317     1.306825233906    -0.108444940832     1.007825032230
         H            0.060536728317     0.007873233906    -1.294635940832     1.007825032230
         H            1.228516728317    -1.519183766094     0.354289059168     1.007825032230
         H            1.250939728317    -0.225071766094     1.539236059168     1.007825032230
         H           -1.404226271683    -1.359471766094     0.254008059168     1.007825032230
         H           -1.381151271683    -0.034909766094     1.413888059168     1.007825032230
         H            2.706937728317    -0.149977766094    -1.176966940832     1.007825032230
         H            3.462200728317    -0.420009766094     0.400065059168     1.007825032230
         H            2.735436728317     1.150073233906     0.028732059168     1.007825032230
         H           -2.595337271683    -0.143843766094    -1.153431940832     1.007825032230

  Running in c1 symmetry.

  Rotational constants: A =      0.59636  B =      0.06450  C =      0.06120 [cm^-1]
  Rotational constants: A =  17878.32014  B =   1933.81080  C =   1834.66174 [MHz]
  Nuclear repulsion =  183.262560582432371

  Charge       = 0
  Multiplicity = 1
  Electrons    = 42
  Nalpha       = 21
  Nbeta        = 21

  ==> Algorithm <==

  SCF Algorithm Type is DF.
  DIIS enabled.
  MOM disabled.
  Fractional occupation disabled.
  Guess Type is SAD.
  Energy threshold   = 1.00e-08
  Density threshold  = 1.00e-08
  Integral threshold = 0.00e+00

  ==> Primary Basis <==

  Basis Set: 6-311G
    Blend: 6-311G
    Number of shells: 65
    Number of basis function: 95
    Number of Cartesian functions: 95
    Spherical Harmonics?: true
    Max angular momentum: 1

  ==> DFT Potential <==

   => Composite Functional: WB97X-D <= 

    wB97X-D Hyb-GGA Exchange-Correlation Functional

    J.-D. Chai and M. Head-Gordon, Phys. Chem. Chem. Phys. 10, 6615 (2008)

    Deriv               =              1
    GGA                 =           TRUE
    Meta                =          FALSE

    Exchange Hybrid     =           TRUE
    MP2 Hybrid          =          FALSE

   => Exchange-Correlation Functionals <=

    1.0000   wB97D range-separated functional

   => Exact (HF) Exchange <=

    0.7780            HF,LR [omega = 0.2000]
    0.2220               HF 

   => Molecular Quadrature <=

    Radial Scheme          =       TREUTLER
    Pruning Scheme         =           FLAT
    Nuclear Scheme         =       TREUTLER

    BS radius alpha        =              1
    Pruning alpha          =              1
    Radial Points          =             75
    Spherical Points       =            302
    Total Points           =         336067
    Total Blocks           =           2567
    Max Points             =            256
    Max Functions          =             89

   => WB97X-D: Empirical Dispersion <=

    Chai and Head-Gordon Dispersion Correction
    Chai, J.-D.; Head-Gordon, M. (2010), J. Chem. Phys., 132: 6615-6620

        s6 =       1.000000

   => Loading Basis Set <=

    Name: (6-311G AUX)
    Role: JKFIT
    Keyword: DF_BASIS_SCF
    atoms 1    entry O          line   229 file /home/daniele/anaconda3/envs/poltype/share/psi4/basis/cc-pvtz-jkfit.gbs 
    atoms 2-5  entry C          line   125 file /home/daniele/anaconda3/envs/poltype/share/psi4/basis/cc-pvtz-jkfit.gbs 
    atoms 6-15 entry H          line    51 file /home/daniele/anaconda3/envs/poltype/share/psi4/basis/cc-pvtz-jkfit.gbs 

  ==> Pre-Iterations <==

   -------------------------------------------------------
    Irrep   Nso     Nmo     Nalpha   Nbeta   Ndocc  Nsocc
   -------------------------------------------------------
     A         95      95       0       0       0       0
   -------------------------------------------------------
    Total      95      95      21      21      21       0
   -------------------------------------------------------

  ==> Integral Setup <==

  ==> DiskDFJK: Density-Fitted J/K Matrices <==

    J tasked:                  Yes
    K tasked:                  Yes
    wK tasked:                 Yes
    Omega:               2.000E-01
    OpenMP threads:              8
    Integrals threads:           8
    Memory [MiB]:               34
    Algorithm:                Disk
    Integral Cache:           NONE
    Schwarz Cutoff:          1E-12
    Fitting Condition:       1E-10

   => Auxiliary Basis Set <=

  Basis Set: (6-311G AUX)
    Blend: CC-PVTZ-JKFIT
    Number of shells: 225
    Number of basis function: 695
    Number of Cartesian functions: 830
    Spherical Harmonics?: true
    Max angular momentum: 4

  Cached 100.0% of DFT collocation blocks in 0.661 [GiB].

  Minimum eigenvalue in the overlap matrix is 2.5444181102E-03.
  Using Symmetric Orthogonalization.

  SCF Guess: Superposition of Atomic Densities via on-the-fly atomic UHF.

  ==> Iterations <==

                           Total Energy        Delta E     RMS |[F,P]|

   @DF-RKS iter SAD:  -232.83951011210766   -2.32840e+02   0.00000e+00 
   @DF-RKS iter   1:  -233.28516125196427   -4.45651e-01   8.17075e-03 DIIS
   @DF-RKS iter   2:  -233.39029888074694   -1.05138e-01   7.08143e-03 DIIS
   @DF-RKS iter   3:  -233.57711551283427   -1.86817e-01   8.10953e-04 DIIS
   @DF-RKS iter   4:  -233.57908828398544   -1.97277e-03   3.37082e-04 DIIS
   @DF-RKS iter   5:  -233.57953523390077   -4.46950e-04   3.47928e-05 DIIS
   @DF-RKS iter   6:  -233.57954168335473   -6.44945e-06   1.68050e-05 DIIS
   @DF-RKS iter   7:  -233.57954297184372   -1.28849e-06   1.87089e-06 DIIS
   @DF-RKS iter   8:  -233.57954300710418   -3.52605e-08   3.49089e-07 DIIS
   @DF-RKS iter   9:  -233.57954300849269   -1.38851e-09   1.24891e-07 DIIS
   @DF-RKS iter  10:  -233.57954300861894   -1.26249e-10   4.99444e-08 DIIS
   @DF-RKS iter  11:  -233.57954300864083   -2.18847e-11   7.46453e-09 DIIS
  Energy and wave function converged.


  ==> Post-Iterations <==

    Orbital Energies [Eh]
    ---------------------

    Doubly Occupied:                                                      

       1A    -19.238284     2A    -10.332432     3A    -10.284930  
       4A    -10.279179     5A    -10.273226     6A     -1.125909  
       7A     -0.893062     8A     -0.819550     9A     -0.730796  
      10A     -0.681545    11A     -0.601893    12A     -0.559984  
      13A     -0.527583    14A     -0.518233    15A     -0.478523  
      16A     -0.460616    17A     -0.442909    18A     -0.419585  
      19A     -0.413299    20A     -0.400182    21A     -0.347313  

    Virtual:                                                              

      22A      0.111819    23A      0.124413    24A      0.145919  
      25A      0.156852    26A      0.170109    27A      0.198111  
      28A      0.206558    29A      0.216837    30A      0.221715  
      31A      0.237999    32A      0.257664    33A      0.295525  
      34A      0.305770    35A      0.324006    36A      0.382787  
      37A      0.386052    38A      0.409199    39A      0.449806  
      40A      0.452233    41A      0.463097    42A      0.498987  
      43A      0.523386    44A      0.603487    45A      0.608378  
      46A      0.643701    47A      0.650242    48A      0.670071  
      49A      0.672131    50A      0.678359    51A      0.688978  
      52A      0.697168    53A      0.702310    54A      0.710686  
      55A      0.719183    56A      0.722724    57A      0.746468  
      58A      0.847995    59A      0.975365    60A      1.020600  
      61A      1.048419    62A      1.078686    63A      1.107715  
      64A      1.163687    65A      1.578734    66A      2.291480  
      67A      2.342803    68A      2.344619    69A      2.349747  
      70A      2.358824    71A      2.360614    72A      2.384853  
      73A      2.391152    74A      2.409494    75A      2.433297  
      76A      2.866128    77A      2.905209    78A      2.919226  
      79A      2.938307    80A      2.946934    81A      2.956125  
      82A      2.981567    83A      3.069400    84A      3.089859  
      85A      3.158544    86A      3.182741    87A      3.296133  
      88A      4.965535    89A      5.008094    90A      5.151667  
      91A     23.428480    92A     23.571506    93A     23.640532  
      94A     23.711884    95A     49.960042  

    Final Occupation by Irrep:
              A 
    DOCC [    21 ]

  @DF-RKS Final Energy:  -233.57954300864083

   => Energetics <=

    Nuclear Repulsion Energy =            183.2625605824323713
    One-Electron Energy =                -678.3249063033167658
    Two-Electron Energy =                 284.7076947753819809
    DFT Exchange-Correlation Energy =     -23.2179277540886879
    Empirical Dispersion Energy =          -0.0069643090496721
    VV10 Nonlocal Energy =                  0.0000000000000000
    Total Energy =                       -233.5795430086407976

Computation Completed


Properties will be evaluated at   0.000000,   0.000000,   0.000000 [a0]

Properties computed using the SCF density matrix

  Nuclear Dipole Moment: [e a0]
     X:     5.7507      Y:    -1.2990      Z:     0.2389

  Electronic Dipole Moment: [e a0]
     X:    -5.4013      Y:     0.6029      Z:    -0.4529

  Dipole Moment: [e a0]
     X:     0.3494      Y:    -0.6961      Z:    -0.2140     Total:     0.8078

  Dipole Moment: [D]
     X:     0.8881      Y:    -1.7694      Z:    -0.5439     Total:     2.0531


*** tstop() called on daniele-Precision-5750 at Thu May 27 11:04:45 2021
Module time:
	user time   =      29.70 seconds =       0.49 minutes
	system time =       0.75 seconds =       0.01 minutes
	total time  =          4 seconds =       0.07 minutes
Total time:
	user time   =      29.70 seconds =       0.49 minutes
	system time =       0.75 seconds =       0.01 minutes
	total time  =          4 seconds =       0.07 minutes

*** tstart() called on daniele-Precision-5750
*** at Thu May 27 11:04:45 2021


         ------------------------------------------------------------
                                   SCF GRAD                          
                          Rob Parrish, Justin Turney,                
                       Andy Simmonett, and Alex Sokolov              
         ------------------------------------------------------------

  ==> Geometry <==

    Molecular point group: c1
    Full point group: C1

    Geometry (in Angstrom), charge = 0, multiplicity = 1:

       Center              X                  Y                   Z               Mass       
    ------------   -----------------  -----------------  -----------------  -----------------
         O           -2.357308271683     0.397126233906    -0.376890940832    15.994914619570
         C            0.040265728317     0.214950233906    -0.216701940832    12.000000000000
         C            1.278076728317    -0.427418766094     0.460296059168    12.000000000000
         C           -1.315950271683    -0.269134766094     0.344317059168    12.000000000000
         C            2.623483728317     0.068816233906    -0.107111940832    12.000000000000
         H            0.082484728317     1.306825233906    -0.108444940832     1.007825032230
         H            0.060536728317     0.007873233906    -1.294635940832     1.007825032230
         H            1.228516728317    -1.519183766094     0.354289059168     1.007825032230
         H            1.250939728317    -0.225071766094     1.539236059168     1.007825032230
         H           -1.404226271683    -1.359471766094     0.254008059168     1.007825032230
         H           -1.381151271683    -0.034909766094     1.413888059168     1.007825032230
         H            2.706937728317    -0.149977766094    -1.176966940832     1.007825032230
         H            3.462200728317    -0.420009766094     0.400065059168     1.007825032230
         H            2.735436728317     1.150073233906     0.028732059168     1.007825032230
         H           -2.595337271683    -0.143843766094    -1.153431940832     1.007825032230

  Nuclear repulsion =  183.262560582432371

  ==> Basis Set <==

  Basis Set: 6-311G
    Blend: 6-311G
    Number of shells: 65
    Number of basis function: 95
    Number of Cartesian functions: 95
    Spherical Harmonics?: true
    Max angular momentum: 1

  ==> DFJKGrad: Density-Fitted SCF Gradients <==

    Gradient:                    1
    J tasked:                  Yes
    K tasked:                  Yes
    wK tasked:                 Yes
    Omega:               2.000E-01
    OpenMP threads:              8
    Integrals threads:           8
    Memory [MiB]:              500
    Schwarz Cutoff:          0E+00
    Fitting Condition:       1E-10

   => Auxiliary Basis Set <=

  Basis Set: (6-311G AUX)
    Blend: CC-PVTZ-JKFIT
    Number of shells: 225
    Number of basis function: 695
    Number of Cartesian functions: 830
    Spherical Harmonics?: true
    Max angular momentum: 4

  ==> DFT Potential <==

   => Composite Functional: WB97X-D <= 

    wB97X-D Hyb-GGA Exchange-Correlation Functional

    J.-D. Chai and M. Head-Gordon, Phys. Chem. Chem. Phys. 10, 6615 (2008)

    Deriv               =              1
    GGA                 =           TRUE
    Meta                =          FALSE

    Exchange Hybrid     =           TRUE
    MP2 Hybrid          =          FALSE

   => Exchange-Correlation Functionals <=

    1.0000   wB97D range-separated functional

   => Exact (HF) Exchange <=

    0.7780            HF,LR [omega = 0.2000]
    0.2220               HF 

   => Molecular Quadrature <=

    Radial Scheme          =       TREUTLER
    Pruning Scheme         =           FLAT
    Nuclear Scheme         =       TREUTLER

    BS radius alpha        =              1
    Pruning alpha          =              1
    Radial Points          =             75
    Spherical Points       =            302
    Total Points           =         336067
    Total Blocks           =           2567
    Max Points             =            256
    Max Functions          =             89


  -Total Gradient:
     Atom            X                  Y                   Z
    ------   -----------------  -----------------  -----------------
       1        0.015377152711     0.004951698087     0.005582806228
       2       -0.004920570015     0.005470771380    -0.006853991582
       3        0.002421900231    -0.001781773834     0.002063818545
       4       -0.024442334924     0.001119822624    -0.000822926097
       5        0.003157695784     0.000791192074    -0.001385029907
       6        0.000862428359     0.003253447525    -0.000073534042
       7       -0.000332106288     0.000455698597    -0.001577458473
       8        0.000644998327    -0.001619539645     0.000277624434
       9        0.000849775493    -0.000308566135     0.001935955846
      10       -0.001090233495    -0.000649631393     0.000481831871
      11        0.004500697234    -0.003674973240     0.005923997455
      12        0.000749172378    -0.000650452530    -0.001615788373
      13        0.001785454005    -0.001080003857     0.001002449124
      14        0.000911410272     0.001937061298     0.000659131230
      15       -0.000554018921    -0.008306944221    -0.005658177309


*** tstop() called on daniele-Precision-5750 at Thu May 27 11:04:46 2021
Module time:
	user time   =      12.81 seconds =       0.21 minutes
	system time =       0.12 seconds =       0.00 minutes
	total time  =          1 seconds =       0.02 minutes
Total time:
	user time   =      42.52 seconds =       0.71 minutes
	system time =       0.87 seconds =       0.01 minutes
	total time  =          5 seconds =       0.08 minutes

			-----------------------------------------
			 OPTKING 2.0: for geometry optimizations 
			  - R.A. King,  Bethel University        
			-----------------------------------------
	At level 1: Red. Int., RFO, no backsteps, dynamic trust

	Internal coordinates to be generated automatically.
	Detected frag 1 with atoms:  1 2 3 4 5 6 7 8 9 10 11 12 13 14 15
	---Fragment 1 Bond Connectivity---
	 1 : 4 15
	 2 : 3 4 6 7
	 3 : 2 5 8 9
	 4 : 1 2 10 11
	 5 : 3 12 13 14
	 6 : 2
	 7 : 2
	 8 : 3
	 9 : 3
	 10 : 4
	 11 : 4
	 12 : 5
	 13 : 5
	 14 : 5
	 15 : 1

	Assuming in current code that numbering for constraints corresponds to unified fragment.
	Frozen dihedral atom list: 
	     2     4     1    15
	     4     2     3     5
	     3     2     4     1
	    12     5     3     2
	---Fragment 1 Geometry and Gradient---
	 O          -4.4546670268        0.7504598193       -0.7122206573
	 C           0.0760911988        0.4061970727       -0.4095073190
	 C           2.4152149838       -0.8077044088        0.8698334885
	 C          -2.4867856082       -0.5085909988        0.6506649422
	 C           4.9576657411        0.1300438351       -0.2024122329
	 H           0.1558735461        2.4695417859       -0.2049312379
	 H           0.1143978371        0.0148782558       -2.4465073603
	 H           2.3215601571       -2.8708412522        0.6695092911
	 H           2.3639334860       -0.4253239965        2.9087345943
	 H          -2.6536030717       -2.5690293132        0.4800056655
	 H          -2.6099976413       -0.0659698970        2.6718612039
	 H           5.1153709452       -0.2834169028       -2.2241451769
	 H           6.5426111679       -0.7937034279        0.7560133942
	 H           5.1692262500        2.1733234363        0.0542957228
	 H          -4.9044766467       -0.2718253228       -2.1796704725
	             0.0153771527        0.0049516981        0.0055828062
	            -0.0049205700        0.0054707714       -0.0068539916
	             0.0024219002       -0.0017817738        0.0020638185
	            -0.0244423349        0.0011198226       -0.0008229261
	             0.0031576958        0.0007911921       -0.0013850299
	             0.0008624284        0.0032534475       -0.0000735340
	            -0.0003321063        0.0004556986       -0.0015774585
	             0.0006449983       -0.0016195396        0.0002776244
	             0.0008497755       -0.0003085661        0.0019359558
	            -0.0010902335       -0.0006496314        0.0004818319
	             0.0045006972       -0.0036749732        0.0059239975
	             0.0007491724       -0.0006504525       -0.0016157884
	             0.0017854540       -0.0010800039        0.0010024491
	             0.0009114103        0.0019370613        0.0006591312
	            -0.0005540189       -0.0083069442       -0.0056581773

	Previous optimization step data not found.  Starting new optimization.

	---Fragment 1 Intrafragment Coordinates---
	 - Coordinate -           - BOHR/RAD -       - ANG/DEG -
	 R(1,4)           =         2.704667	       1.431248
	 R(1,15)          =         1.844127	       0.975870
	 R(2,3)           =         2.929466	       1.550207
	 R(2,4)           =         2.920469	       1.545446
	 R(2,6)           =         2.074996	       1.098041
	 R(2,7)           =         2.074600	       1.097831
	 R(3,5)           =         2.914299	       1.542181
	 R(3,8)           =         2.074954	       1.098018
	 R(3,9)           =         2.075081	       1.098086
	 R(4,10)          =         2.074213	       1.097626
	 R(4,11)          =         2.072759	       1.096857
	 R(5,12)          =         2.069595	       1.095183
	 R(5,13)          =         2.069768	       1.095274
	 R(5,14)          =         2.070181	       1.095492
	 B(1,4,2)         =         1.885739	     108.044900
	 B(1,4,10)        =         1.941685	     111.250364
	 B(1,4,11)        =         1.926991	     110.408425
	 B(2,3,5)         =         1.985135	     113.739884
	 B(2,3,8)         =         1.911143	     109.500443
	 B(2,3,9)         =         1.910290	     109.451530
	 B(2,4,10)        =         1.930356	     110.601279
	 B(2,4,11)        =         1.916927	     109.831826
	 B(3,2,4)         =         1.995864	     114.354578
	 B(3,2,6)         =         1.915898	     109.772869
	 B(3,2,7)         =         1.913351	     109.626959
	 B(3,5,12)        =         1.940792	     111.199191
	 B(3,5,13)        =         1.932718	     110.736583
	 B(3,5,14)        =         1.940270	     111.169277
	 B(4,1,15)        =         1.896938	     108.686563
	 B(4,2,6)         =         1.885386	     108.024641
	 B(4,2,7)         =         1.889731	     108.273635
	 B(5,3,8)         =         1.900537	     108.892774
	 B(5,3,9)         =         1.900514	     108.891454
	 B(6,2,7)         =         1.858404	     106.478696
	 B(8,3,9)         =         1.851434	     106.079341
	 B(10,4,11)       =         1.862488	     106.712718
	 B(12,5,13)       =         1.880563	     107.748341
	 B(12,5,14)       =         1.886547	     108.091182
	 B(13,5,14)       =         1.880554	     107.747834
	*D(1,4,2,3)       =        -3.134838	    -179.612975
	 D(1,4,2,6)       =         1.009730	      57.853249
	 D(1,4,2,7)       =        -0.996263	     -57.081667
	*D(2,3,5,12)      =        -1.044697	     -59.856713
	 D(2,3,5,13)      =        -3.135002	    -179.622359
	 D(2,3,5,14)      =         1.058233	      60.632305
	*D(2,4,1,15)      =         1.570328	      89.973142
	 D(3,2,4,10)      =        -1.005796	     -57.627880
	 D(3,2,4,11)      =         1.045426	      59.898500
	*D(4,2,3,5)       =        -3.138397	    -179.816911
	 D(4,2,3,8)       =         1.014212	      58.110047
	 D(4,2,3,9)       =        -1.008482	     -57.781790
	 D(5,3,2,6)       =        -1.016461	     -58.238928
	 D(5,3,2,7)       =         1.019111	      58.390786
	 D(6,2,3,8)       =         3.136148	     179.688030
	 D(6,2,3,9)       =         1.113454	      63.796193
	 D(6,2,4,10)      =         3.138771	     179.838345
	 D(6,2,4,11)      =        -1.093192	     -62.635276
	 D(7,2,3,8)       =        -1.111465	     -63.682256
	 D(7,2,3,9)       =        -3.134159	    -179.574093
	 D(7,2,4,10)      =         1.132779	      64.903429
	 D(7,2,4,11)      =        -3.099184	    -177.570192
	 D(8,3,5,12)      =         1.091734	      62.551772
	 D(8,3,5,13)      =        -0.998570	     -57.213874
	 D(8,3,5,14)      =        -3.088521	    -176.959209
	 D(9,3,5,12)      =         3.103175	     177.798821
	 D(9,3,5,13)      =         1.012870	      58.033175
	 D(9,3,5,14)      =        -1.077080	     -61.712161
	 D(10,4,1,15)     =        -0.551723	     -31.611415
	 D(11,4,1,15)     =        -2.616243	    -149.899708

	Current energy   :      -233.5795430086

	Generating empirical Hessian (Schlegel '84) for each fragment.
	Taking RFO optimization step.
	Going to follow RFO solution 1.
	Using RFO vector 1.
	Norm of target step-size    0.17442
	Projected energy change by RFO approximation:        -0.0027204185

	Back-transformation to cartesian coordinates...
	Could not converge backtransformation.
	Using first guess instead.

	Back-transformation to cartesian coordinates to adjust frozen coordinates...
	Successfully converged to displaced geometry.

	--- Internal Coordinate Step in ANG or DEG, aJ/ANG or AJ/DEG ---
	 ---------------------------------------------------------------------------
	   Coordinate                Previous        Force       Change         New 
	   ----------                --------       ------       ------       ------
	    1 R(1,4)          =      1.431248     0.101602     0.820743     2.251991
	    2 R(1,15)         =      0.975870    -0.076270     0.092557     1.068427
	    3 R(2,3)          =      1.550207    -0.089159     0.827838     2.378044
	    4 R(2,4)          =      1.545446    -0.078144     0.814831     2.360277
	    5 R(2,6)          =      1.098041    -0.026853     0.169373     1.267414
	    6 R(2,7)          =      1.097831    -0.012047     0.332635     1.430466
	    7 R(3,5)          =      1.542181    -0.054366     0.824325     2.366505
	    8 R(3,8)          =      1.098018    -0.012627     0.170210     1.268228
	    9 R(3,9)          =      1.098086    -0.015176     0.340838     1.438924
	   10 R(4,10)         =      1.097626    -0.005607     0.196878     1.294505
	   11 R(4,11)         =      1.096857    -0.038998     0.297798     1.394655
	   12 R(5,12)         =      1.095183    -0.014524     0.338314     1.433496
	   13 R(5,13)         =      1.095274    -0.019073     0.605824     1.701098
	   14 R(5,14)         =      1.095492    -0.017252     0.153053     1.248546
	   15 B(1,4,2)        =    108.044900     0.001111     3.875513   111.920413
	   16 B(1,4,10)       =    111.250364    -0.000273     7.219198   118.469562
	   17 B(1,4,11)       =    110.408425    -0.000676     0.008296   110.416721
	   18 B(2,3,5)        =    113.739884    -0.000294    -1.827488   111.912396
	   19 B(2,3,8)        =    109.500443     0.000060    13.076538   122.576982
	   20 B(2,3,9)        =    109.451530     0.000028    -1.873094   107.578437
	   21 B(2,4,10)       =    110.601279    -0.000345     3.679192   114.280471
	   22 B(2,4,11)       =    109.831826    -0.000054     5.434648   115.266473
	   23 B(3,2,4)        =    114.354578    -0.000220    -1.223277   113.131301
	   24 B(3,2,6)        =    109.772869     0.000167    10.615879   120.388748
	   25 B(3,2,7)        =    109.626959    -0.000035     1.280049   110.907008
	   26 B(3,5,12)       =    111.199191    -0.000045     5.354679   116.553870
	   27 B(3,5,13)       =    110.736583     0.000025    -2.023520   108.713064
	   28 B(3,5,14)       =    111.169277    -0.000048     4.921079   116.090356
	   29 B(4,1,15)       =    108.686563     0.000533    11.650960   120.337523
	   30 B(4,2,6)        =    108.024641     0.000012    -0.612276   107.412365
	   31 B(4,2,7)        =    108.273635     0.000098    10.131233   118.404868
	   32 B(5,3,8)        =    108.892774     0.000125    -1.275296   107.617478
	   33 B(5,3,9)        =    108.891454     0.000123    12.478339   121.369793
	   34 B(6,2,7)        =    106.478696    -0.000009   -22.556716    83.921980
	   35 B(8,3,9)        =    106.079341    -0.000023   -22.059515    84.019826
	   36 B(10,4,11)      =    106.712718     0.000203   -23.044448    83.668270
	   37 B(12,5,13)      =    107.748341     0.000025     1.979262   109.727602
	   38 B(12,5,14)      =    108.091182     0.000017   -17.120267    90.970915
	   39 B(13,5,14)      =    107.747834     0.000031     6.181668   113.929503
	   40 *D(1,4,2,3)     =   -179.612975    -0.000000     0.000000  -179.612975
	   41 D(1,4,2,6)      =     57.853249    -0.000018   -12.739999    45.113250
	   42 D(1,4,2,7)      =    -57.081667    -0.000028     9.704555   -47.377112
	   43 *D(2,3,5,12)    =    -59.856713    -0.000000     0.000000   -59.856713
	   44 D(2,3,5,13)     =   -179.622359    -0.000004    -4.824397  -184.446757
	   45 D(2,3,5,14)     =     60.632305    -0.000010   -15.073571    45.558734
	   46 *D(2,4,1,15)    =     89.973142     0.000000     0.000000    89.973142
	   47 D(3,2,4,10)     =    -57.627880     0.000039    16.194167   -41.433713
	   48 D(3,2,4,11)     =     59.898500     0.000040    -6.793728    53.104772
	   49 *D(4,2,3,5)     =   -179.816911    -0.000000     0.000000  -179.816911
	   50 D(4,2,3,8)      =     58.110047    -0.000001    -8.029601    50.080447
	   51 D(4,2,3,9)      =    -57.781790    -0.000005    13.691234   -44.090556
	   52 D(5,3,2,6)      =    -58.238928    -0.000003     7.306162   -50.932766
	   53 D(5,3,2,7)      =     58.390786     0.000012   -14.009111    44.381675
	   54 D(6,2,3,8)      =    179.688030    -0.000003    -0.723439   178.964592
	   55 D(6,2,3,9)      =     63.796193    -0.000008    20.997396    84.793589
	   56 D(6,2,4,10)     =    179.838345     0.000021     3.454168   183.292513
	   57 D(6,2,4,11)     =    -62.635276     0.000023   -19.533726   -82.169002
	   58 D(7,2,3,8)      =    -63.682256     0.000012   -22.038712   -85.720967
	   59 D(7,2,3,9)      =   -179.574093     0.000007    -0.317877  -179.891970
	   60 D(7,2,4,10)     =     64.903429     0.000011    25.898722    90.802150
	   61 D(7,2,4,11)     =   -177.570192     0.000012     2.910827  -174.659364
	   62 D(8,3,5,12)     =     62.551772    -0.000007    15.038785    77.590558
	   63 D(8,3,5,13)     =    -57.213874    -0.000012    10.214388   -46.999485
	   64 D(8,3,5,14)     =   -176.959209    -0.000017    -0.034785  -176.993995
	   65 D(9,3,5,12)     =    177.798821     0.000017    -6.448044   171.350777
	   66 D(9,3,5,13)     =     58.033175     0.000013   -11.272441    46.760734
	   67 D(9,3,5,14)     =    -61.712161     0.000007   -21.521615   -83.233775
	   68 D(10,4,1,15)    =    -31.611415    -0.000030   -14.671712   -46.283126
	   69 D(11,4,1,15)    =   -149.899708     0.000051     9.718473  -140.181235
	 ---------------------------------------------------------------------------
	Successfully symmetrized geometry.

  ==> Convergence Check <==

  Measures of convergence in internal coordinates in au.
  Criteria marked as inactive (o), active & met (*), and active & unmet ( ).
  --------------------------------------------------------------------------------------------- ~
   Step     Total Energy     Delta E     MAX Force     RMS Force      MAX Disp      RMS Disp    ~
  --------------------------------------------------------------------------------------------- ~
    Convergence Criteria             o    2.50e-03 *    1.70e-03 *    1.00e-02 *    6.70e-03 *  ~
  --------------------------------------------------------------------------------------------- ~
      1    -233.57954301   -2.34e+02 o    1.46e-02      3.80e-03      1.56e+00      4.69e-01    ~
  ---------------------------------------------------------------------------------------------

	Writing optimization data to binary file.
	Structure for next step:
	Cartesian Geometry (in Angstrom)
	    O    -3.2082227067  -1.7187878923   2.0442796088
	    C    -0.3939857102   0.0249576974   0.1336759410
	    C     1.9397210521   0.0993735083  -0.3172889287
	    C    -0.9900900572  -1.6759890453   1.6576001897
	    C     2.4898633710   1.8226677003  -1.8430505819
	    H    -1.0146245975   1.0755967509   0.4761699674
	    H    -1.1514214596   0.1535817690  -1.0729645412
	    H     2.6051999812  -0.9295639586  -0.6441341933
	    H     2.6295068285  -0.0380308251   0.9380270288
	    H    -0.3747888051  -2.7991957818   1.4690449233
	    H    -0.2863606210  -1.6698772176   2.8616722508
	    H     1.8769921413   1.7526716719  -3.1370371914
	    H     4.1815319657   1.8830076062  -2.0114292728
	    H     1.9622012083   2.9339586505  -1.6298098365
	    H    -3.8506166914  -2.3177281196   1.4358915220
			--------------------------
			 OPTKING Finished Execution 
			--------------------------

    Structure for next step:
    Molecular point group: c1
    Full point group: C1

    Geometry (in Angstrom), charge = 0, multiplicity = 1:

    O           -3.098330636156    -1.392151670759     1.680524922668
    C           -0.284093628644     0.351593925761    -0.230078752647
    C            2.049613142826     0.426009736989    -0.681043624053
    C           -0.880197977920    -1.349352823554     1.293845502060
    C            2.599755463876     2.149303935806    -2.206805283286
    H           -0.904732518379     1.402232983439     0.112415275107
    H           -1.041529380996     0.480217997893    -1.436719239550
    H            2.715092074609    -0.602927733988    -1.007888890001
    H            2.739398921945     0.288605403020     0.574272338343
    H           -0.264896723453    -2.472559564458     1.105290234958
    H           -0.176468538954    -1.343240995900     2.497917567942
    H            1.986884231808     2.079307907093    -3.500791897906
    H            4.291424065293     2.209643841934    -2.375183974841
    H            2.072093299160     3.260594890303    -1.993564537029
    H           -3.740724623412    -1.991091900415     1.072136833530

gradient() will perform analytic gradient computation.

*** tstart() called on daniele-Precision-5750
*** at Thu May 27 11:04:47 2021

   => Loading Basis Set <=

    Name: 6-311G
    Role: ORBITAL
    Keyword: BASIS
    atoms 1    entry O          line   126 file /home/daniele/anaconda3/envs/poltype/share/psi4/basis/6-311g.gbs 
    atoms 2-5  entry C          line    92 file /home/daniele/anaconda3/envs/poltype/share/psi4/basis/6-311g.gbs 
    atoms 6-15 entry H          line    21 file /home/daniele/anaconda3/envs/poltype/share/psi4/basis/6-311g.gbs 


         ---------------------------------------------------------
                                   SCF
               by Justin Turney, Rob Parrish, Andy Simmonett
                          and Daniel G. A. Smith
                              RKS Reference
                        8 Threads,    667 MiB Core
         ---------------------------------------------------------

  ==> Geometry <==

    Molecular point group: c1
    Full point group: C1

    Geometry (in Angstrom), charge = 0, multiplicity = 1:

       Center              X                  Y                   Z               Mass       
    ------------   -----------------  -----------------  -----------------  -----------------
         O           -3.098330636156    -1.392151670759     1.680524922668    15.994914619570
         C           -0.284093628644     0.351593925761    -0.230078752647    12.000000000000
         C            2.049613142826     0.426009736989    -0.681043624053    12.000000000000
         C           -0.880197977920    -1.349352823554     1.293845502060    12.000000000000
         C            2.599755463876     2.149303935806    -2.206805283286    12.000000000000
         H           -0.904732518379     1.402232983439     0.112415275107     1.007825032230
         H           -1.041529380996     0.480217997893    -1.436719239550     1.007825032230
         H            2.715092074609    -0.602927733988    -1.007888890001     1.007825032230
         H            2.739398921945     0.288605403020     0.574272338343     1.007825032230
         H           -0.264896723453    -2.472559564458     1.105290234958     1.007825032230
         H           -0.176468538954    -1.343240995900     2.497917567942     1.007825032230
         H            1.986884231808     2.079307907093    -3.500791897906     1.007825032230
         H            4.291424065293     2.209643841934    -2.375183974841     1.007825032230
         H            2.072093299160     3.260594890303    -1.993564537029     1.007825032230
         H           -3.740724623412    -1.991091900415     1.072136833530     1.007825032230

  Running in c1 symmetry.

  Rotational constants: A =      0.30020  B =      0.02740  C =      0.02568 [cm^-1]
  Rotational constants: A =   8999.89904  B =    821.38242  C =    769.83196 [MHz]
  Nuclear repulsion =  125.517896222501250

  Charge       = 0
  Multiplicity = 1
  Electrons    = 42
  Nalpha       = 21
  Nbeta        = 21

  ==> Algorithm <==

  SCF Algorithm Type is DF.
  DIIS enabled.
  MOM disabled.
  Fractional occupation disabled.
  Guess Type is READ.
  Energy threshold   = 1.00e-08
  Density threshold  = 1.00e-08
  Integral threshold = 0.00e+00

  ==> Primary Basis <==

  Basis Set: 6-311G
    Blend: 6-311G
    Number of shells: 65
    Number of basis function: 95
    Number of Cartesian functions: 95
    Spherical Harmonics?: true
    Max angular momentum: 1

  ==> DFT Potential <==

   => Composite Functional: WB97X-D <= 

    wB97X-D Hyb-GGA Exchange-Correlation Functional

    J.-D. Chai and M. Head-Gordon, Phys. Chem. Chem. Phys. 10, 6615 (2008)

    Deriv               =              1
    GGA                 =           TRUE
    Meta                =          FALSE

    Exchange Hybrid     =           TRUE
    MP2 Hybrid          =          FALSE

   => Exchange-Correlation Functionals <=

    1.0000   wB97D range-separated functional

   => Exact (HF) Exchange <=

    0.7780            HF,LR [omega = 0.2000]
    0.2220               HF 

   => Molecular Quadrature <=

    Radial Scheme          =       TREUTLER
    Pruning Scheme         =           FLAT
    Nuclear Scheme         =       TREUTLER

    BS radius alpha        =              1
    Pruning alpha          =              1
    Radial Points          =             75
    Spherical Points       =            302
    Total Points           =         336623
    Total Blocks           =           2571
    Max Points             =            256
    Max Functions          =             77

   => WB97X-D: Empirical Dispersion <=

    Chai and Head-Gordon Dispersion Correction
    Chai, J.-D.; Head-Gordon, M. (2010), J. Chem. Phys., 132: 6615-6620

        s6 =       1.000000

   => Loading Basis Set <=

    Name: (6-311G AUX)
    Role: JKFIT
    Keyword: DF_BASIS_SCF
    atoms 1    entry O          line   229 file /home/daniele/anaconda3/envs/poltype/share/psi4/basis/cc-pvtz-jkfit.gbs 
    atoms 2-5  entry C          line   125 file /home/daniele/anaconda3/envs/poltype/share/psi4/basis/cc-pvtz-jkfit.gbs 
    atoms 6-15 entry H          line    51 file /home/daniele/anaconda3/envs/poltype/share/psi4/basis/cc-pvtz-jkfit.gbs 

   => Loading Basis Set <=

    Name: 6-311G
    Role: ORBITAL
    Keyword: BASIS
    atoms 1    entry O          line   126 file /home/daniele/anaconda3/envs/poltype/share/psi4/basis/6-311g.gbs 
    atoms 2-5  entry C          line    92 file /home/daniele/anaconda3/envs/poltype/share/psi4/basis/6-311g.gbs 
    atoms 6-15 entry H          line    21 file /home/daniele/anaconda3/envs/poltype/share/psi4/basis/6-311g.gbs 

  Reading orbitals from file 180, no projection.

  ==> Pre-Iterations <==

   -------------------------------------------------------
    Irrep   Nso     Nmo     Nalpha   Nbeta   Ndocc  Nsocc
   -------------------------------------------------------
     A         95      95       0       0       0       0
   -------------------------------------------------------
    Total      95      95      21      21      21       0
   -------------------------------------------------------

  ==> Integral Setup <==

  ==> DiskDFJK: Density-Fitted J/K Matrices <==

    J tasked:                  Yes
    K tasked:                  Yes
    wK tasked:                 Yes
    Omega:               2.000E-01
    OpenMP threads:              8
    Integrals threads:           8
    Memory [MiB]:               31
    Algorithm:                Disk
    Integral Cache:           NONE
    Schwarz Cutoff:          1E-12
    Fitting Condition:       1E-10

   => Auxiliary Basis Set <=

  Basis Set: (6-311G AUX)
    Blend: CC-PVTZ-JKFIT
    Number of shells: 225
    Number of basis function: 695
    Number of Cartesian functions: 830
    Spherical Harmonics?: true
    Max angular momentum: 4

  Cached 100.0% of DFT collocation blocks in 0.526 [GiB].

  Minimum eigenvalue in the overlap matrix is 3.2278729077E-02.
  Using Symmetric Orthogonalization.

  SCF Guess: Orbitals guess was supplied from a previous computation.

  ==> Iterations <==

                           Total Energy        Delta E     RMS |[F,P]|

   @DF-RKS iter   0:  -230.65068882082500   -2.30651e+02   1.37382e-02 
   @DF-RKS iter   1:  -232.40525871773360   -1.75457e+00   5.95521e-03 DIIS
   @DF-RKS iter   2:  -232.39989223763985    5.36648e-03   7.21954e-03 DIIS
   @DF-RKS iter   3:  -232.68020401470909   -2.80312e-01   2.16955e-03 DIIS
   @DF-RKS iter   4:  -232.70003807073158   -1.98341e-02   7.88392e-04 DIIS
   @DF-RKS iter   5:  -232.70783862957558   -7.80056e-03   3.92287e-04 DIIS
   @DF-RKS iter   6:  -232.71003721869994   -2.19859e-03   2.10567e-04 DIIS
   @DF-RKS iter   7:  -232.71135182284760   -1.31460e-03   1.04606e-04 DIIS
   @DF-RKS iter   8:  -232.71176876065334   -4.16938e-04   8.59526e-05 DIIS
   @DF-RKS iter   9:  -232.71203419397122   -2.65433e-04   2.84579e-05 DIIS
   @DF-RKS iter  10:  -232.71209021257602   -5.60186e-05   8.23089e-06 DIIS
   @DF-RKS iter  11:  -232.71209240279427   -2.19022e-06   6.13704e-06 DIIS
   @DF-RKS iter  12:  -232.71209275201898   -3.49225e-07   1.59254e-06 DIIS
   @DF-RKS iter  13:  -232.71209279230936   -4.02904e-08   7.61456e-07 DIIS
   @DF-RKS iter  14:  -232.71209279849418   -6.18482e-09   2.43957e-07 DIIS
   @DF-RKS iter  15:  -232.71209279958117   -1.08699e-09   7.62284e-08 DIIS
   @DF-RKS iter  16:  -232.71209279969915   -1.17979e-10   3.40160e-08 DIIS
   @DF-RKS iter  17:  -232.71209279970813   -8.98126e-12   9.86856e-09 DIIS
  Energy and wave function converged.


  ==> Post-Iterations <==

    Orbital Energies [Eh]
    ---------------------

    Doubly Occupied:                                                      

       1A    -19.234268     2A    -10.436646     3A    -10.428332  
       4A    -10.425322     5A    -10.421902     6A     -0.997203  
       7A     -0.751504     8A     -0.735585     9A     -0.713165  
      10A     -0.696282    11A     -0.478916    12A     -0.448814  
      13A     -0.434623    14A     -0.429054    15A     -0.423758  
      16A     -0.415668    17A     -0.408615    18A     -0.400152  
      19A     -0.372071    20A     -0.344064    21A     -0.322437  

    Virtual:                                                              

      22A     -0.095534    23A     -0.034372    24A     -0.002881  
      25A      0.016603    26A      0.036804    27A      0.091990  
      28A      0.095308    29A      0.109366    30A      0.115417  
      31A      0.129917    32A      0.139136    33A      0.142540  
      34A      0.151205    35A      0.156252    36A      0.284017  
      37A      0.330567    38A      0.334994    39A      0.358751  
      40A      0.388730    41A      0.396985    42A      0.425945  
      43A      0.440028    44A      0.454390    45A      0.480267  
      46A      0.516427    47A      0.551470    48A      0.564138  
      49A      0.576586    50A      0.588030    51A      0.600651  
      52A      0.609859    53A      0.615257    54A      0.677478  
      55A      0.684994    56A      0.702155    57A      0.737962  
      58A      0.779630    59A      0.786758    60A      0.856123  
      61A      0.941150    62A      0.956950    63A      0.986063  
      64A      1.093035    65A      1.284710    66A      2.261783  
      67A      2.274133    68A      2.295476    69A      2.318072  
      70A      2.329557    71A      2.352465    72A      2.391565  
      73A      2.413813    74A      2.440845    75A      2.447761  
      76A      2.650500    77A      2.695577    78A      2.747707  
      79A      2.765531    80A      2.778082    81A      2.782832  
      82A      2.813565    83A      2.824179    84A      2.855173  
      85A      2.887464    86A      2.893530    87A      2.911671  
      88A      4.922700    89A      4.943154    90A      5.047769  
      91A     23.299000    92A     23.312752    93A     23.341836  
      94A     23.381837    95A     49.849111  

    Final Occupation by Irrep:
              A 
    DOCC [    21 ]

  @DF-RKS Final Energy:  -232.71209279970813

   => Energetics <=

    Nuclear Repulsion Energy =            125.5178962225012498
    One-Electron Energy =                -562.8585355863692712
    Two-Electron Energy =                 226.7283281373011050
    DFT Exchange-Correlation Energy =     -22.0954885622524948
    Empirical Dispersion Energy =          -0.0042930108887140
    VV10 Nonlocal Energy =                  0.0000000000000000
    Total Energy =                       -232.7120927997081310

Computation Completed


Properties will be evaluated at   0.000000,   0.000000,   0.000000 [a0]

Properties computed using the SCF density matrix

  Nuclear Dipole Moment: [e a0]
     X:     7.1816      Y:     3.0971      Z:    -4.6344

  Electronic Dipole Moment: [e a0]
     X:    -6.1193      Y:    -3.0409      Z:     3.7100

  Dipole Moment: [e a0]
     X:     1.0623      Y:     0.0562      Z:    -0.9244     Total:     1.4093

  Dipole Moment: [D]
     X:     2.7002      Y:     0.1429      Z:    -2.3495     Total:     3.5821


*** tstop() called on daniele-Precision-5750 at Thu May 27 11:04:51 2021
Module time:
	user time   =      31.59 seconds =       0.53 minutes
	system time =       0.37 seconds =       0.01 minutes
	total time  =          4 seconds =       0.07 minutes
Total time:
	user time   =      74.77 seconds =       1.25 minutes
	system time =       1.26 seconds =       0.02 minutes
	total time  =         10 seconds =       0.17 minutes

*** tstart() called on daniele-Precision-5750
*** at Thu May 27 11:04:51 2021


         ------------------------------------------------------------
                                   SCF GRAD                          
                          Rob Parrish, Justin Turney,                
                       Andy Simmonett, and Alex Sokolov              
         ------------------------------------------------------------

  ==> Geometry <==

    Molecular point group: c1
    Full point group: C1

    Geometry (in Angstrom), charge = 0, multiplicity = 1:

       Center              X                  Y                   Z               Mass       
    ------------   -----------------  -----------------  -----------------  -----------------
         O           -3.098330636156    -1.392151670759     1.680524922668    15.994914619570
         C           -0.284093628644     0.351593925761    -0.230078752647    12.000000000000
         C            2.049613142826     0.426009736989    -0.681043624053    12.000000000000
         C           -0.880197977920    -1.349352823554     1.293845502060    12.000000000000
         C            2.599755463876     2.149303935806    -2.206805283286    12.000000000000
         H           -0.904732518379     1.402232983439     0.112415275107     1.007825032230
         H           -1.041529380996     0.480217997893    -1.436719239550     1.007825032230
         H            2.715092074609    -0.602927733988    -1.007888890001     1.007825032230
         H            2.739398921945     0.288605403020     0.574272338343     1.007825032230
         H           -0.264896723453    -2.472559564458     1.105290234958     1.007825032230
         H           -0.176468538954    -1.343240995900     2.497917567942     1.007825032230
         H            1.986884231808     2.079307907093    -3.500791897906     1.007825032230
         H            4.291424065293     2.209643841934    -2.375183974841     1.007825032230
         H            2.072093299160     3.260594890303    -1.993564537029     1.007825032230
         H           -3.740724623412    -1.991091900415     1.072136833530     1.007825032230

  Nuclear repulsion =  125.517896222501250

  ==> Basis Set <==

  Basis Set: 6-311G
    Blend: 6-311G
    Number of shells: 65
    Number of basis function: 95
    Number of Cartesian functions: 95
    Spherical Harmonics?: true
    Max angular momentum: 1

  ==> DFJKGrad: Density-Fitted SCF Gradients <==

    Gradient:                    1
    J tasked:                  Yes
    K tasked:                  Yes
    wK tasked:                 Yes
    Omega:               2.000E-01
    OpenMP threads:              8
    Integrals threads:           8
    Memory [MiB]:              500
    Schwarz Cutoff:          0E+00
    Fitting Condition:       1E-10

   => Auxiliary Basis Set <=

  Basis Set: (6-311G AUX)
    Blend: CC-PVTZ-JKFIT
    Number of shells: 225
    Number of basis function: 695
    Number of Cartesian functions: 830
    Spherical Harmonics?: true
    Max angular momentum: 4

  ==> DFT Potential <==

   => Composite Functional: WB97X-D <= 

    wB97X-D Hyb-GGA Exchange-Correlation Functional

    J.-D. Chai and M. Head-Gordon, Phys. Chem. Chem. Phys. 10, 6615 (2008)

    Deriv               =              1
    GGA                 =           TRUE
    Meta                =          FALSE

    Exchange Hybrid     =           TRUE
    MP2 Hybrid          =          FALSE

   => Exchange-Correlation Functionals <=

    1.0000   wB97D range-separated functional

   => Exact (HF) Exchange <=

    0.7780            HF,LR [omega = 0.2000]
    0.2220               HF 

   => Molecular Quadrature <=

    Radial Scheme          =       TREUTLER
    Pruning Scheme         =           FLAT
    Nuclear Scheme         =       TREUTLER

    BS radius alpha        =              1
    Pruning alpha          =              1
    Radial Points          =             75
    Spherical Points       =            302
    Total Points           =         336623
    Total Blocks           =           2571
    Max Points             =            256
    Max Functions          =             77


  -Total Gradient:
     Atom            X                  Y                   Z
    ------   -----------------  -----------------  -----------------
       1       -0.023183194547     0.020649586482     0.025842676333
       2        0.052483389234    -0.033184840095     0.039049280093
       3       -0.047902857880     0.027542248297    -0.039816226759
       4       -0.055018652516     0.034318916854    -0.031199868411
       5        0.003299008522    -0.025863880688     0.048425972823
       6       -0.051617570184     0.051877857178    -0.008902905105
       7       -0.052026157010     0.034164116469    -0.061652984283
       8        0.054652364825    -0.048247387260     0.009220531161
       9        0.048553732939    -0.034440849286     0.064506315927
      10        0.051225476978    -0.053088936784     0.017040364447
      11        0.057843698061    -0.026123104204     0.060795612398
      12       -0.043084925661     0.017123611768    -0.078037660989
      13        0.092631502043     0.003704439377    -0.011012594928
      14       -0.036943553114     0.058157580745    -0.011912203118
      15       -0.050987000627    -0.026938407183    -0.022297445266


*** tstop() called on daniele-Precision-5750 at Thu May 27 11:04:52 2021
Module time:
	user time   =      12.68 seconds =       0.21 minutes
	system time =       0.09 seconds =       0.00 minutes
	total time  =          1 seconds =       0.02 minutes
Total time:
	user time   =      87.46 seconds =       1.46 minutes
	system time =       1.35 seconds =       0.02 minutes
	total time  =         11 seconds =       0.18 minutes

			-----------------------------------------
			 OPTKING 2.0: for geometry optimizations 
			  - R.A. King,  Bethel University        
			-----------------------------------------
	At level 1: Red. Int., RFO, no backsteps, dynamic trust

	Previous internal coordinate definitions found.
	---Fragment 1 Geometry and Gradient---
	 O          -5.8549963484       -2.6307853828        3.1757318508
	 C          -0.5368591521        0.6644162271       -0.4347858298
	 C           3.8732075031        0.8050417297       -1.2869859289
	 C          -1.6633331145       -2.5499072831        2.4450136475
	 C           4.9128258199        4.0615957990       -4.1702575976
	 H          -1.7096966765        2.6498363028        0.2124340823
	 H          -1.9682052817        0.9074804965       -2.7150058819
	 H           5.1307804264       -1.1393682907       -1.9046339670
	 H           5.1767137109        0.5453851700        1.0852174409
	 H          -0.5005822589       -4.6724604057        2.0886958332
	 H          -0.3334772084       -2.5383576027        4.7203800874
	 H           3.7546670411        3.9293224749       -6.6155379093
	 H           8.1096161716        4.1756216961       -4.4884472100
	 H           3.9156888418        6.1616313487       -3.7672909884
	 H          -7.0689450490       -3.7626183824        2.0260449844
	            -0.0231831945        0.0206495865        0.0258426763
	             0.0524833892       -0.0331848401        0.0390492801
	            -0.0479028579        0.0275422483       -0.0398162268
	            -0.0550186525        0.0343189169       -0.0311998684
	             0.0032990085       -0.0258638807        0.0484259728
	            -0.0516175702        0.0518778572       -0.0089029051
	            -0.0520261570        0.0341641165       -0.0616529843
	             0.0546523648       -0.0482473873        0.0092205312
	             0.0485537329       -0.0344408493        0.0645063159
	             0.0512254770       -0.0530889368        0.0170403644
	             0.0578436981       -0.0261231042        0.0607956124
	            -0.0430849257        0.0171236118       -0.0780376610
	             0.0926315020        0.0037044394       -0.0110125949
	            -0.0369435531        0.0581575807       -0.0119122031
	            -0.0509870006       -0.0269384072       -0.0222974453

	---Fragment 1 Intrafragment Coordinates---
	 - Coordinate -           - BOHR/RAD -       - ANG/DEG -
	 R(1,4)           =         4.255647	       2.251991
	 R(1,15)          =         2.019034	       1.068427
	 R(2,3)           =         4.493852	       2.378044
	 R(2,4)           =         4.460276	       2.360277
	 R(2,6)           =         2.395065	       1.267414
	 R(2,7)           =         2.703190	       1.430466
	 R(3,5)           =         4.472047	       2.366505
	 R(3,8)           =         2.396604	       1.268228
	 R(3,9)           =         2.719172	       1.438924
	 R(4,10)          =         2.446259	       1.294505
	 R(4,11)          =         2.635516	       1.394655
	 R(5,12)          =         2.708916	       1.433496
	 R(5,13)          =         3.214610	       1.701098
	 R(5,14)          =         2.359410	       1.248546
	 B(1,4,2)         =         1.953380	     111.920413
	 B(1,4,10)        =         2.067684	     118.469562
	 B(1,4,11)        =         1.927135	     110.416721
	 B(2,3,5)         =         1.953240	     111.912396
	 B(2,3,8)         =         2.139372	     122.576982
	 B(2,3,9)         =         1.877598	     107.578437
	 B(2,4,10)        =         1.994570	     114.280471
	 B(2,4,11)        =         2.011779	     115.266473
	 B(3,2,4)         =         1.974514	     113.131301
	 B(3,2,6)         =         2.101180	     120.388748
	 B(3,2,7)         =         1.935692	     110.907008
	 B(3,5,12)        =         2.034249	     116.553870
	 B(3,5,13)        =         1.897401	     108.713064
	 B(3,5,14)        =         2.026159	     116.090356
	 B(4,1,15)        =         2.100286	     120.337523
	 B(4,2,6)         =         1.874699	     107.412365
	 B(4,2,7)         =         2.066555	     118.404868
	 B(5,3,8)         =         1.878279	     107.617478
	 B(5,3,9)         =         2.118302	     121.369793
	 B(6,2,7)         =         1.464715	      83.921980
	 B(8,3,9)         =         1.466423	      84.019826
	 B(10,4,11)       =         1.460287	      83.668270
	 B(12,5,13)       =         1.915108	     109.727602
	 B(12,5,14)       =         1.587742	      90.970915
	 B(13,5,14)       =         1.988445	     113.929503
	*D(1,4,2,3)       =        -3.134838	    -179.612975
	 D(1,4,2,6)       =         0.787375	      45.113250
	 D(1,4,2,7)       =        -0.826887	     -47.377112
	*D(2,3,5,12)      =        -1.044697	     -59.856713
	 D(2,3,5,13)      =         3.063982	     175.553243
	 D(2,3,5,14)      =         0.795150	      45.558734
	*D(2,4,1,15)      =         1.570328	      89.973142
	 D(3,2,4,10)      =        -0.723155	     -41.433713
	 D(3,2,4,11)      =         0.926853	      53.104772
	*D(4,2,3,5)       =        -3.138397	    -179.816911
	 D(4,2,3,8)       =         0.874069	      50.080447
	 D(4,2,3,9)       =        -0.769525	     -44.090556
	 D(5,3,2,6)       =        -0.888944	     -50.932766
	 D(5,3,2,7)       =         0.774606	      44.381675
	 D(6,2,3,8)       =         3.123521	     178.964592
	 D(6,2,3,9)       =         1.479927	      84.793589
	 D(6,2,4,10)      =        -3.084127	    -176.707487
	 D(6,2,4,11)      =        -1.434120	     -82.169002
	 D(7,2,3,8)       =        -1.496113	     -85.720967
	 D(7,2,3,9)       =        -3.139707	    -179.891970
	 D(7,2,4,10)      =         1.584796	      90.802150
	 D(7,2,4,11)      =        -3.048381	    -174.659364
	 D(8,3,5,12)      =         1.354211	      77.590558
	 D(8,3,5,13)      =        -0.820296	     -46.999485
	 D(8,3,5,14)      =        -3.089128	    -176.993995
	 D(9,3,5,12)      =         2.990635	     171.350777
	 D(9,3,5,13)      =         0.816129	      46.760734
	 D(9,3,5,14)      =        -1.452703	     -83.233775
	 D(10,4,1,15)     =        -0.807793	     -46.283126
	 D(11,4,1,15)     =        -2.446624	    -140.181235

	Current energy   :      -232.7120927997

	Energy change for the previous step:
		Projected    :        -0.0027204185
		Actual       :         0.8674502089

	Performing BFGS update.
	Previous computed or guess Hessian on step 1.
	Steps to be used in Hessian update: 1
	Taking RFO optimization step.
	Going to follow RFO solution 1.
	Using RFO vector 1.

	Determining step-restricting scale parameter for RS-RFO.
	Maximum step size allowed    0.50000

	 Iter      |step|        alpha        rfo_root  
	------------------------------------------------
	    0     0.84314       1.00000           1
	    1     0.62942       1.92810           1
	    2     0.53075       2.80666           1
	    3     0.50253       3.16266           1
	    4     0.50002       3.19736           1
	    5     0.50000       3.19763           1
	------------------------------------------------
	Norm of target step-size    0.50000
	Projected energy change by RFO approximation:        -0.1229695944

	Back-transformation to cartesian coordinates...
	Could not converge backtransformation.
	Using first guess instead.

	Back-transformation to cartesian coordinates to adjust frozen coordinates...
	Successfully converged to displaced geometry.

	--- Internal Coordinate Step in ANG or DEG, aJ/ANG or AJ/DEG ---
	 ---------------------------------------------------------------------------
	   Coordinate                Previous        Force       Change         New 
	   ----------                --------       ------       ------       ------
	    1 R(1,4)          =      2.251991    -0.607655    -0.084865     2.167127
	    2 R(1,15)         =      1.068427    -0.481547    -0.031640     1.036787
	    3 R(2,3)          =      2.378044    -0.604431    -0.084145     2.293899
	    4 R(2,4)          =      2.360277    -0.612002    -0.084095     2.276182
	    5 R(2,6)          =      1.267414    -0.542822    -0.045819     1.221594
	    6 R(2,7)          =      1.430466    -0.680780    -0.063609     1.366857
	    7 R(3,5)          =      2.366505    -0.629000    -0.085523     2.280982
	    8 R(3,8)          =      1.268228    -0.538988    -0.045163     1.223065
	    9 R(3,9)          =      1.438924    -0.682497    -0.064202     1.374722
	   10 R(4,10)         =      1.294505    -0.559542    -0.048006     1.246499
	   11 R(4,11)         =      1.394655    -0.671997    -0.061368     1.333287
	   12 R(5,12)         =      1.433496    -0.725268    -0.066506     1.366990
	   13 R(5,13)         =      1.701098    -0.768997    -0.084305     1.616793
	   14 R(5,14)         =      1.248546    -0.538547    -0.044121     1.204425
	   15 B(1,4,2)        =    111.920413     0.000486     0.528909   112.449322
	   16 B(1,4,10)       =    118.469562    -0.000598    -0.810191   117.659371
	   17 B(1,4,11)       =    110.416721    -0.000583    -0.777510   109.639212
	   18 B(2,3,5)        =    111.912396     0.000724     0.803472   112.715868
	   19 B(2,3,8)        =    122.576982    -0.001214    -1.708484   120.868498
	   20 B(2,3,9)        =    107.578437    -0.000076     0.025573   107.604010
	   21 B(2,4,10)       =    114.280471    -0.000520    -0.678511   113.601961
	   22 B(2,4,11)       =    115.266473    -0.000641    -0.860587   114.405886
	   23 B(3,2,4)        =    113.131301     0.000596     0.661233   113.792534
	   24 B(3,2,6)        =    120.388748    -0.000774    -1.110757   119.277991
	   25 B(3,2,7)        =    110.907008    -0.000256    -0.272562   110.634446
	   26 B(3,5,12)       =    116.553870    -0.001668    -2.006882   114.546988
	   27 B(3,5,13)       =    108.713064     0.000182     0.311624   109.024688
	   28 B(3,5,14)       =    116.090356    -0.001297    -1.572302   114.518054
	   29 B(4,1,15)       =    120.337523    -0.003091    -3.551372   116.786151
	   30 B(4,2,6)        =    107.412365    -0.000239    -0.223927   107.188438
	   31 B(4,2,7)        =    118.404868    -0.000799    -1.126494   117.278374
	   32 B(5,3,8)        =    107.617478    -0.000045     0.059433   107.676911
	   33 B(5,3,9)        =    121.369793    -0.000975    -1.385526   119.984267
	   34 B(6,2,7)        =     83.921980     0.001491     2.177705    86.099685
	   35 B(8,3,9)        =     84.019826     0.001445     2.105897    86.125723
	   36 B(10,4,11)      =     83.668270     0.002047     2.921483    86.589753
	   37 B(12,5,13)      =    109.727602     0.000616     0.620861   110.348463
	   38 B(12,5,14)      =     90.970915     0.002163     2.769878    93.740794
	   39 B(13,5,14)      =    113.929503     0.000248     0.120476   114.049978
	   40 *D(1,4,2,3)     =   -179.612975     0.000000    -0.000000  -179.612975
	   41 D(1,4,2,6)      =     45.113250     0.000179     1.179558    46.292809
	   42 D(1,4,2,7)      =    -47.377112    -0.000134    -0.884151   -48.261263
	   43 *D(2,3,5,12)    =    -59.856713     0.000000    -0.000000   -59.856713
	   44 D(2,3,5,13)     =    175.553243     0.000063     0.406451   175.959694
	   45 D(2,3,5,14)     =     45.558734     0.000199     1.271686    46.830420
	   46 *D(2,4,1,15)    =     89.973142    -0.000000    -0.000000    89.973142
	   47 D(3,2,4,10)     =    -41.433713    -0.000220    -1.405157   -42.838870
	   48 D(3,2,4,11)     =     53.104772     0.000215     1.350852    54.455625
	   49 *D(4,2,3,5)     =   -179.816911     0.000000    -0.000000  -179.816911
	   50 D(4,2,3,8)      =     50.080447     0.000118     0.775775    50.856222
	   51 D(4,2,3,9)      =    -44.090556    -0.000181    -1.199962   -45.290518
	   52 D(5,3,2,6)      =    -50.932766    -0.000116    -0.753362   -51.686127
	   53 D(5,3,2,7)      =     44.381675     0.000193     1.274574    45.656249
	   54 D(6,2,3,8)      =    178.964592     0.000001     0.022414   178.987005
	   55 D(6,2,3,9)      =     84.793589    -0.000297    -1.953323    82.840266
	   56 D(6,2,4,10)     =   -176.707487    -0.000042    -0.225599  -176.933086
	   57 D(6,2,4,11)     =    -82.169002     0.000393     2.530411   -79.638591
	   58 D(7,2,3,8)      =    -85.720967     0.000311     2.050349   -83.670618
	   59 D(7,2,3,9)      =   -179.891970     0.000012     0.074613  -179.817357
	   60 D(7,2,4,10)     =     90.802150    -0.000355    -2.289308    88.512843
	   61 D(7,2,4,11)     =   -174.659364     0.000080     0.466702  -174.192662
	   62 D(8,3,5,12)     =     77.590558    -0.000251    -1.623858    75.966700
	   63 D(8,3,5,13)     =    -46.999485    -0.000188    -1.217407   -48.216892
	   64 D(8,3,5,14)     =   -176.993995    -0.000052    -0.352172  -177.346167
	   65 D(9,3,5,12)     =    171.350777     0.000068     0.470822   171.821600
	   66 D(9,3,5,13)     =     46.760734     0.000132     0.877273    47.638007
	   67 D(9,3,5,14)     =    -83.233775     0.000267     1.742508   -81.491267
	   68 D(10,4,1,15)    =    -46.283126     0.000216     1.373958   -44.909168
	   69 D(11,4,1,15)    =   -140.181235    -0.000219    -1.373244  -141.554479
	 ---------------------------------------------------------------------------
	Successfully symmetrized geometry.

  ==> Convergence Check <==

  Measures of convergence in internal coordinates in au.
  Criteria marked as inactive (o), active & met (*), and active & unmet ( ).
  ---------------------------------------------------------------------------------------------
   Step     Total Energy     Delta E     MAX Force     RMS Force      MAX Disp      RMS Disp   
  ---------------------------------------------------------------------------------------------
    Convergence Criteria             o    2.50e-03 *    1.70e-03 *    1.00e-02 *    6.70e-03 *
  ---------------------------------------------------------------------------------------------
      2    -232.71209280    8.67e-01 o    9.33e-02      3.60e-02      1.62e-01      6.02e-02    ~
  ---------------------------------------------------------------------------------------------

	Writing optimization data to binary file.
	Structure for next step:
	Cartesian Geometry (in Angstrom)
	    O    -2.9714621933  -1.3367729567   1.6218892958
	    C    -0.2540354842   0.3475265981  -0.2283774717
	    C     1.9942009526   0.4293203168  -0.6763924840
	    C    -0.8386732815  -1.2900417684   1.2404902235
	    C     2.5397782797   2.0862480835  -2.1460238248
	    H    -0.8315480685   1.3665864582   0.1184497503
	    H    -0.9790600784   0.4411702774  -1.3833098412
	    H     2.6050157705  -0.5771040967  -1.0079099344
	    H     2.6608549039   0.3264674377   0.5214619667
	    H    -0.2643094433  -2.3763805237   1.0313653027
	    H    -0.1772177982  -1.2540664399   2.3975708034
	    H     1.9360865896   1.9828618475  -3.3681245214
	    H     4.1470431776   2.1326432211  -2.3150437676
	    H     2.0408295873   3.1549743125  -1.9020686718
	    H    -3.5442157738  -1.9372468479   1.0003496698
			--------------------------
			 OPTKING Finished Execution 
			--------------------------

    Structure for next step:
    Molecular point group: c1
    Full point group: C1

    Geometry (in Angstrom), charge = 0, multiplicity = 1:

    O           -2.990630544978    -1.347309624818     1.631708250554
    C           -0.273203825229     0.336989936528    -0.218558524178
    C            1.975032620444     0.418783655614    -0.666573538268
    C           -0.857841624792    -1.300578436322     1.250309176743
    C            2.520609949653     2.075711428805    -2.136204884875
    H           -0.850716411796     1.356049800654     0.128268699133
    H           -0.998228422208     0.430633616202    -1.373490898269
    H            2.585847440729    -0.587640761826    -0.998090989923
    H            2.641686574302     0.315930776079     0.531280917151
    H           -0.283477784360    -2.386917195957     1.041184255173
    H           -0.196386138904    -1.264603107702     2.407389761236
    H            1.916918257170     1.972325192433    -3.358305586212
    H            4.127874853921     2.122106566552    -2.305224828275
    H            2.021661255267     3.144437662000    -1.892249730888
    H           -3.563384127747    -1.947783518431     1.010168622159

gradient() will perform analytic gradient computation.

*** tstart() called on daniele-Precision-5750
*** at Thu May 27 11:04:52 2021

   => Loading Basis Set <=

    Name: 6-311G
    Role: ORBITAL
    Keyword: BASIS
    atoms 1    entry O          line   126 file /home/daniele/anaconda3/envs/poltype/share/psi4/basis/6-311g.gbs 
    atoms 2-5  entry C          line    92 file /home/daniele/anaconda3/envs/poltype/share/psi4/basis/6-311g.gbs 
    atoms 6-15 entry H          line    21 file /home/daniele/anaconda3/envs/poltype/share/psi4/basis/6-311g.gbs 


         ---------------------------------------------------------
                                   SCF
               by Justin Turney, Rob Parrish, Andy Simmonett
                          and Daniel G. A. Smith
                              RKS Reference
                        8 Threads,    667 MiB Core
         ---------------------------------------------------------

  ==> Geometry <==

    Molecular point group: c1
    Full point group: C1

    Geometry (in Angstrom), charge = 0, multiplicity = 1:

       Center              X                  Y                   Z               Mass       
    ------------   -----------------  -----------------  -----------------  -----------------
         O           -2.990630544978    -1.347309624818     1.631708250554    15.994914619570
         C           -0.273203825229     0.336989936528    -0.218558524178    12.000000000000
         C            1.975032620444     0.418783655614    -0.666573538268    12.000000000000
         C           -0.857841624792    -1.300578436322     1.250309176743    12.000000000000
         C            2.520609949653     2.075711428805    -2.136204884875    12.000000000000
         H           -0.850716411796     1.356049800654     0.128268699133     1.007825032230
         H           -0.998228422208     0.430633616202    -1.373490898269     1.007825032230
         H            2.585847440729    -0.587640761826    -0.998090989923     1.007825032230
         H            2.641686574302     0.315930776079     0.531280917151     1.007825032230
         H           -0.283477784360    -2.386917195957     1.041184255173     1.007825032230
         H           -0.196386138904    -1.264603107702     2.407389761236     1.007825032230
         H            1.916918257170     1.972325192433    -3.358305586212     1.007825032230
         H            4.127874853921     2.122106566552    -2.305224828275     1.007825032230
         H            2.021661255267     3.144437662000    -1.892249730888     1.007825032230
         H           -3.563384127747    -1.947783518431     1.010168622159     1.007825032230

  Running in c1 symmetry.

  Rotational constants: A =      0.32889  B =      0.02930  C =      0.02754 [cm^-1]
  Rotational constants: A =   9859.87476  B =    878.37545  C =    825.65438 [MHz]
  Nuclear repulsion =  130.306253037721405

  Charge       = 0
  Multiplicity = 1
  Electrons    = 42
  Nalpha       = 21
  Nbeta        = 21

  ==> Algorithm <==

  SCF Algorithm Type is DF.
  DIIS enabled.
  MOM disabled.
  Fractional occupation disabled.
  Guess Type is READ.
  Energy threshold   = 1.00e-08
  Density threshold  = 1.00e-08
  Integral threshold = 0.00e+00

  ==> Primary Basis <==

  Basis Set: 6-311G
    Blend: 6-311G
    Number of shells: 65
    Number of basis function: 95
    Number of Cartesian functions: 95
    Spherical Harmonics?: true
    Max angular momentum: 1

  ==> DFT Potential <==

   => Composite Functional: WB97X-D <= 

    wB97X-D Hyb-GGA Exchange-Correlation Functional

    J.-D. Chai and M. Head-Gordon, Phys. Chem. Chem. Phys. 10, 6615 (2008)

    Deriv               =              1
    GGA                 =           TRUE
    Meta                =          FALSE

    Exchange Hybrid     =           TRUE
    MP2 Hybrid          =          FALSE

   => Exchange-Correlation Functionals <=

    1.0000   wB97D range-separated functional

   => Exact (HF) Exchange <=

    0.7780            HF,LR [omega = 0.2000]
    0.2220               HF 

   => Molecular Quadrature <=

    Radial Scheme          =       TREUTLER
    Pruning Scheme         =           FLAT
    Nuclear Scheme         =       TREUTLER

    BS radius alpha        =              1
    Pruning alpha          =              1
    Radial Points          =             75
    Spherical Points       =            302
    Total Points           =         336571
    Total Blocks           =           2558
    Max Points             =            256
    Max Functions          =             77

   => WB97X-D: Empirical Dispersion <=

    Chai and Head-Gordon Dispersion Correction
    Chai, J.-D.; Head-Gordon, M. (2010), J. Chem. Phys., 132: 6615-6620

        s6 =       1.000000

   => Loading Basis Set <=

    Name: (6-311G AUX)
    Role: JKFIT
    Keyword: DF_BASIS_SCF
    atoms 1    entry O          line   229 file /home/daniele/anaconda3/envs/poltype/share/psi4/basis/cc-pvtz-jkfit.gbs 
    atoms 2-5  entry C          line   125 file /home/daniele/anaconda3/envs/poltype/share/psi4/basis/cc-pvtz-jkfit.gbs 
    atoms 6-15 entry H          line    51 file /home/daniele/anaconda3/envs/poltype/share/psi4/basis/cc-pvtz-jkfit.gbs 

   => Loading Basis Set <=

    Name: 6-311G
    Role: ORBITAL
    Keyword: BASIS
    atoms 1    entry O          line   126 file /home/daniele/anaconda3/envs/poltype/share/psi4/basis/6-311g.gbs 
    atoms 2-5  entry C          line    92 file /home/daniele/anaconda3/envs/poltype/share/psi4/basis/6-311g.gbs 
    atoms 6-15 entry H          line    21 file /home/daniele/anaconda3/envs/poltype/share/psi4/basis/6-311g.gbs 

  Reading orbitals from file 180, no projection.

  ==> Pre-Iterations <==

   -------------------------------------------------------
    Irrep   Nso     Nmo     Nalpha   Nbeta   Ndocc  Nsocc
   -------------------------------------------------------
     A         95      95       0       0       0       0
   -------------------------------------------------------
    Total      95      95      21      21      21       0
   -------------------------------------------------------

  ==> Integral Setup <==

  ==> DiskDFJK: Density-Fitted J/K Matrices <==

    J tasked:                  Yes
    K tasked:                  Yes
    wK tasked:                 Yes
    Omega:               2.000E-01
    OpenMP threads:              8
    Integrals threads:           8
    Memory [MiB]:               31
    Algorithm:                Disk
    Integral Cache:           NONE
    Schwarz Cutoff:          1E-12
    Fitting Condition:       1E-10

   => Auxiliary Basis Set <=

  Basis Set: (6-311G AUX)
    Blend: CC-PVTZ-JKFIT
    Number of shells: 225
    Number of basis function: 695
    Number of Cartesian functions: 830
    Spherical Harmonics?: true
    Max angular momentum: 4

  Cached 100.0% of DFT collocation blocks in 0.539 [GiB].

  Minimum eigenvalue in the overlap matrix is 2.9544054366E-02.
  Using Symmetric Orthogonalization.

  SCF Guess: Orbitals guess was supplied from a previous computation.

  ==> Iterations <==

                           Total Energy        Delta E     RMS |[F,P]|

   @DF-RKS iter   0:  -233.06071592215366   -2.33061e+02   1.19175e-03 
   @DF-RKS iter   1:  -232.85339852523094    2.07317e-01   7.75578e-04 DIIS
   @DF-RKS iter   2:  -232.85176574139200    1.63278e-03   1.13723e-03 DIIS
   @DF-RKS iter   3:  -232.85756140845970   -5.79567e-03   2.85459e-04 DIIS
   @DF-RKS iter   4:  -232.85786126745759   -2.99859e-04   6.01755e-05 DIIS
   @DF-RKS iter   5:  -232.85789819020914   -3.69228e-05   2.75554e-05 DIIS
   @DF-RKS iter   6:  -232.85790504711994   -6.85691e-06   1.24527e-05 DIIS
   @DF-RKS iter   7:  -232.85790728270018   -2.23558e-06   4.14435e-06 DIIS
   @DF-RKS iter   8:  -232.85790745009172   -1.67392e-07   2.38430e-06 DIIS
   @DF-RKS iter   9:  -232.85790751806175   -6.79700e-08   4.65014e-07 DIIS
   @DF-RKS iter  10:  -232.85790752219140   -4.12965e-09   4.29228e-07 DIIS
   @DF-RKS iter  11:  -232.85790752427340   -2.08200e-09   1.30448e-07 DIIS
   @DF-RKS iter  12:  -232.85790752522902   -9.55623e-10   4.74710e-08 DIIS
   @DF-RKS iter  13:  -232.85790752537869   -1.49669e-10   1.34811e-08 DIIS
   @DF-RKS iter  14:  -232.85790752538696   -8.27072e-12   7.94421e-09 DIIS
  Energy and wave function converged.


  ==> Post-Iterations <==

    Orbital Energies [Eh]
    ---------------------

    Doubly Occupied:                                                      

       1A    -19.234160     2A    -10.428258     3A    -10.412982  
       4A    -10.411417     5A    -10.406096     6A     -1.008076  
       7A     -0.761973     8A     -0.745109     9A     -0.719557  
      10A     -0.700495    11A     -0.487823    12A     -0.457500  
      13A     -0.445241    14A     -0.435619    15A     -0.428840  
      16A     -0.423340    17A     -0.414180    18A     -0.404684  
      19A     -0.379275    20A     -0.349370    21A     -0.328522  

    Virtual:                                                              

      22A     -0.070906    23A     -0.011350    24A      0.018571  
      25A      0.033926    26A      0.055483    27A      0.104289  
      28A      0.112607    29A      0.127764    30A      0.134087  
[...]

    0.7780            HF,LR [omega = 0.2000]
    0.2220               HF 

   => Molecular Quadrature <=

    Radial Scheme          =       TREUTLER
    Pruning Scheme         =           FLAT
    Nuclear Scheme         =       TREUTLER

    BS radius alpha        =              1
    Pruning alpha          =              1
    Radial Points          =             75
    Spherical Points       =            302
    Total Points           =         336065
    Total Blocks           =           2537
    Max Points             =            256
    Max Functions          =             89


  -Total Gradient:
     Atom            X                  Y                   Z
    ------   -----------------  -----------------  -----------------
       1        0.000954221808     0.001750595657    -0.001911155612
       2        0.001272161255     0.000830520514     0.001587435262
       3       -0.001105459755    -0.000129427135    -0.000450634015
       4       -0.001189689127    -0.000343153435    -0.000498301225
       5        0.000248077690    -0.000645634320     0.000205599079
       6       -0.000297668746     0.000521318605     0.000124990248
       7       -0.000228971750     0.000069973129    -0.000214467248
       8        0.000255450128    -0.000499000188    -0.000108316803
       9        0.000185298455    -0.000087195746     0.000147026809
      10       -0.000009104753    -0.000380483600     0.000007368873
      11        0.000233759405    -0.000155138337     0.000270668729
      12       -0.000137668840     0.000154955724    -0.000167555771
      13       -0.000226471609    -0.000035892757     0.000047850291
      14       -0.000062927144     0.000441393730     0.000012039963
      15        0.000001763629    -0.001583956716     0.000991969373


*** tstop() called on daniele-Precision-5750 at Thu May 27 11:05:33 2021
Module time:
	user time   =      13.30 seconds =       0.22 minutes
	system time =       0.15 seconds =       0.00 minutes
	total time  =          2 seconds =       0.03 minutes
Total time:
	user time   =     400.26 seconds =       6.67 minutes
	system time =       5.14 seconds =       0.09 minutes
	total time  =         52 seconds =       0.87 minutes

			-----------------------------------------
			 OPTKING 2.0: for geometry optimizations 
			  - R.A. King,  Bethel University        
			-----------------------------------------
	At level 1: Red. Int., RFO, no backsteps, dynamic trust

	Previous internal coordinate definitions found.
	---Fragment 1 Geometry and Gradient---
	 O          -3.7086048691       -1.3807501552        2.3658769146
	 C          -0.3448415269        0.4555572269       -0.2567286503
	 C           2.4444478090        0.3294576247       -1.0145531792
	 C          -1.0604402348       -1.5312091437        1.6965672682
	 C           3.1595625848        2.3343292880       -2.9718558224
	 H          -0.7989839241        2.3228594481        0.5048796900
	 H          -1.5274008774        0.1985112235       -1.9387277481
	 H           2.8723627172       -1.5531427510       -1.7663787682
	 H           3.6234829235        0.5610337363        0.6716216324
	 H          -0.5775496635       -3.4251251153        1.0060582754
	 H          -0.0186818816       -1.2162025289        3.4462517537
	 H           2.0482801959        2.1097315164       -4.6984934338
	 H           5.1538518295        2.2110564181       -3.4800865139
	 H           2.8054879261        4.2346985477       -2.2432838311
	 H          -4.7161412178       -2.4395648685        1.2715527245
	             0.0009542218        0.0017505957       -0.0019111556
	             0.0012721613        0.0008305205        0.0015874353
	            -0.0011054598       -0.0001294271       -0.0004506340
	            -0.0011896891       -0.0003431534       -0.0004983012
	             0.0002480777       -0.0006456343        0.0002055991
	            -0.0002976687        0.0005213186        0.0001249902
	            -0.0002289718        0.0000699731       -0.0002144672
	             0.0002554501       -0.0004990002       -0.0001083168
	             0.0001852985       -0.0000871957        0.0001470268
	            -0.0000091048       -0.0003804836        0.0000073689
	             0.0002337594       -0.0001551383        0.0002706687
	            -0.0001376688        0.0001549557       -0.0001675558
	            -0.0002264716       -0.0000358928        0.0000478503
	            -0.0000629271        0.0004413937        0.0000120400
	             0.0000017636       -0.0015839567        0.0009919694

	---Fragment 1 Intrafragment Coordinates---
	 - Coordinate -           - BOHR/RAD -       - ANG/DEG -
	 R(1,4)           =         2.735578	       1.447606
	 R(1,15)          =         1.825860	       0.966203
	 R(2,3)           =         2.893153	       1.530991
	 R(2,4)           =         2.876576	       1.522218
	 R(2,6)           =         2.067150	       1.093889
	 R(2,7)           =         2.072110	       1.096513
	 R(3,5)           =         2.891701	       1.530222
	 R(3,8)           =         2.071844	       1.096373
	 R(3,9)           =         2.070492	       1.095657
	 R(4,10)          =         2.072897	       1.096930
	 R(4,11)          =         2.060555	       1.090399
	 R(5,12)          =         2.065592	       1.093064
	 R(5,13)          =         2.061719	       1.091015
	 R(5,14)          =         2.065814	       1.093182
	 B(1,4,2)         =         1.948696	     111.652070
	 B(1,4,10)        =         1.936134	     110.932296
	 B(1,4,11)        =         1.847569	     105.857894
	 B(2,3,5)         =         1.966545	     112.674757
	 B(2,3,8)         =         1.911106	     109.498310
	 B(2,3,9)         =         1.907960	     109.318040
	 B(2,4,10)        =         1.925048	     110.297136
	 B(2,4,11)        =         1.923286	     110.196146
	 B(3,2,4)         =         1.968821	     112.805135
	 B(3,2,6)         =         1.925899	     110.345861
	 B(3,2,7)         =         1.909416	     109.401453
	 B(3,5,12)        =         1.936242	     110.938467
	 B(3,5,13)        =         1.944011	     111.383604
	 B(3,5,14)        =         1.935517	     110.896968
	 B(4,1,15)        =         1.934401	     110.833015
	 B(4,2,6)         =         1.895540	     108.606414
	 B(4,2,7)         =         1.900269	     108.877421
	 B(5,3,8)         =         1.910591	     109.468815
	 B(5,3,9)         =         1.910134	     109.442609
	 B(6,2,7)         =         1.860582	     106.603487
	 B(8,3,9)         =         1.854110	     106.232685
	 B(10,4,11)       =         1.880479	     107.743538
	 B(12,5,13)       =         1.883721	     107.929285
	 B(12,5,14)       =         1.878237	     107.615074
	 B(13,5,14)       =         1.883606	     107.922657
	*D(1,4,2,3)       =        -3.134838	    -179.612975
	 D(1,4,2,6)       =         1.007677	      57.735632
	 D(1,4,2,7)       =        -1.011783	     -57.970876
	*D(2,3,5,12)      =        -1.044697	     -59.856713
	 D(2,3,5,13)      =         3.139698	     179.891422
	 D(2,3,5,14)      =         1.041543	      59.676001
	*D(2,4,1,15)      =         1.570328	      89.973142
	 D(3,2,4,10)      =        -0.973683	     -55.787915
	 D(3,2,4,11)      =         1.100360	      63.045966
	*D(4,2,3,5)       =        -3.138397	    -179.816911
	 D(4,2,3,8)       =         1.014068	      58.101810
	 D(4,2,3,9)       =        -1.010504	     -57.897610
	 D(5,3,2,6)       =        -1.014802	     -58.143849
	 D(5,3,2,7)       =         1.026914	      58.837843
	 D(6,2,3,8)       =         3.137663	     179.774872
	 D(6,2,3,9)       =         1.113092	      63.775452
	 D(6,2,4,10)      =        -3.114353	    -178.439308
	 D(6,2,4,11)      =        -1.040311	     -59.605427
	 D(7,2,3,8)       =        -1.103806	     -63.243436
	 D(7,2,3,9)       =        -3.128378	    -179.242856
	 D(7,2,4,10)      =         1.149372	      65.854185
	 D(7,2,4,11)      =        -3.059770	    -175.311935
	 D(8,3,5,12)      =         1.086314	      62.241208
	 D(8,3,5,13)      =        -1.012477	     -58.010657
	 D(8,3,5,14)      =        -3.110632	    -178.226078
	 D(9,3,5,12)      =         3.111825	     178.294428
	 D(9,3,5,13)      =         1.013034	      58.042564
	 D(9,3,5,14)      =        -1.085121	     -62.172857
	 D(10,4,1,15)     =        -0.584562	     -33.492922
	 D(11,4,1,15)     =        -2.619725	    -150.099186

	Current energy   :      -233.5817257153

	Energy change for the previous step:
		Projected    :        -0.0004192368
		Actual       :        -0.0001880519

	Performing BFGS update.
	Previous computed or guess Hessian on step 1.
	Steps to be used in Hessian update: 9 8
	Taking RFO optimization step.
	Going to follow RFO solution 1.
	Using RFO vector 1.
	Norm of target step-size    0.00994
	Projected energy change by RFO approximation:        -0.0000063412

	Back-transformation to cartesian coordinates...
	Successfully converged to displaced geometry.

	Back-transformation to cartesian coordinates to adjust frozen coordinates...
	Successfully converged to displaced geometry.

	--- Internal Coordinate Step in ANG or DEG, aJ/ANG or AJ/DEG ---
	 ---------------------------------------------------------------------------
	   Coordinate                Previous        Force       Change         New 
	   ----------                --------       ------       ------       ------
	    1 R(1,4)          =      1.447606     0.009693     0.001808     1.449414
	    2 R(1,15)         =      0.966203    -0.002777    -0.000217     0.965986
	    3 R(2,3)          =      1.530991     0.005500     0.001336     1.532326
	    4 R(2,4)          =      1.522218     0.002493     0.000499     1.522717
	    5 R(2,6)          =      1.093889    -0.004753    -0.000695     1.093194
	    6 R(2,7)          =      1.096513    -0.002492    -0.000393     1.096120
	    7 R(3,5)          =      1.530222     0.001041     0.000461     1.530683
	    8 R(3,8)          =      1.096373    -0.004349    -0.000629     1.095743
	    9 R(3,9)          =      1.095657    -0.001879    -0.000288     1.095369
	   10 R(4,10)         =      1.096930    -0.002797    -0.000400     1.096530
	   11 R(4,11)         =      1.090399    -0.002723    -0.000428     1.089971
	   12 R(5,12)         =      1.093064    -0.001632    -0.000233     1.092831
	   13 R(5,13)         =      1.091015     0.001866     0.000216     1.091231
	   14 R(5,14)         =      1.093182    -0.003540    -0.000469     1.092712
	   15 B(1,4,2)        =    111.652070     0.000027     0.053081   111.705150
	   16 B(1,4,10)       =    110.932296    -0.000002     0.030930   110.963226
	   17 B(1,4,11)       =    105.857894    -0.000008    -0.051936   105.805958
	   18 B(2,3,5)        =    112.674757     0.000017     0.015144   112.689901
	   19 B(2,3,8)        =    109.498310    -0.000011    -0.081782   109.416528
	   20 B(2,3,9)        =    109.318040    -0.000006    -0.004636   109.313404
	   21 B(2,4,10)       =    110.297136    -0.000017    -0.049073   110.248062
	   22 B(2,4,11)       =    110.196146    -0.000012    -0.056984   110.139162
	   23 B(3,2,4)        =    112.805135     0.000018     0.001067   112.806202
	   24 B(3,2,6)        =    110.345861    -0.000010    -0.091161   110.254700
	   25 B(3,2,7)        =    109.401453    -0.000007     0.002393   109.403846
	   26 B(3,5,12)       =    110.938467    -0.000011    -0.042013   110.896453
	   27 B(3,5,13)       =    111.383604     0.000006     0.000927   111.384530
	   28 B(3,5,14)       =    110.896968    -0.000015    -0.064242   110.832726
	   29 B(4,1,15)       =    110.833015    -0.000001    -0.015501   110.817514
	   30 B(4,2,6)        =    108.606414    -0.000005    -0.019810   108.586605
	   31 B(4,2,7)        =    108.877421    -0.000005     0.022085   108.899507
	   32 B(5,3,8)        =    109.468815    -0.000004    -0.034879   109.433936
	   33 B(5,3,9)        =    109.442609    -0.000004     0.020765   109.463375
	   34 B(6,2,7)        =    106.603487     0.000009     0.091974   106.695461
	   35 B(8,3,9)        =    106.232685     0.000008     0.089914   106.322599
	   36 B(10,4,11)      =    107.743538     0.000012     0.074546   107.818084
	   37 B(12,5,13)      =    107.929285     0.000002     0.021867   107.951152
	   38 B(12,5,14)      =    107.615074     0.000015     0.070516   107.685590
	   39 B(13,5,14)      =    107.922657     0.000004     0.018936   107.941593
	   40 *D(1,4,2,3)     =   -179.612975     0.000000     0.000000  -179.612975
	   41 D(1,4,2,6)      =     57.735632     0.000001     0.129576    57.865208
	   42 D(1,4,2,7)      =    -57.970876    -0.000000     0.019313   -57.951563
	   43 *D(2,3,5,12)    =    -59.856713     0.000000     0.000000   -59.856713
	   44 D(2,3,5,13)     =    179.891422     0.000000     0.000099   179.891521
	   45 D(2,3,5,14)     =     59.676001     0.000000     0.018882    59.694883
	   46 *D(2,4,1,15)    =     89.973142    -0.000000     0.000000    89.973142
	   47 D(3,2,4,10)     =    -55.787915     0.000001     0.042012   -55.745903
	   48 D(3,2,4,11)     =     63.045966     0.000000     0.067928    63.113894
	   49 *D(4,2,3,5)     =   -179.816911    -0.000000     0.000000  -179.816911
	   50 D(4,2,3,8)      =     58.101810     0.000000     0.092722    58.194532
	   51 D(4,2,3,9)      =    -57.897610     0.000000     0.033402   -57.864208
	   52 D(5,3,2,6)      =    -58.143849    -0.000000    -0.090551   -58.234400
	   53 D(5,3,2,7)      =     58.837843    -0.000000    -0.030550    58.807293
	   54 D(6,2,3,8)      =    179.774872     0.000000     0.002171   179.777043
	   55 D(6,2,3,9)      =     63.775452    -0.000000    -0.057149    63.718303
	   56 D(6,2,4,10)     =   -178.439308     0.000002     0.171588  -178.267719
	   57 D(6,2,4,11)     =    -59.605427     0.000001     0.197504   -59.407923
	   58 D(7,2,3,8)      =    -63.243436     0.000000     0.062172   -63.181264
	   59 D(7,2,3,9)      =   -179.242856     0.000000     0.002852  -179.240004
	   60 D(7,2,4,10)     =     65.854185     0.000001     0.061325    65.915509
	   61 D(7,2,4,11)     =   -175.311935    -0.000000     0.087241  -175.224694
	   62 D(8,3,5,12)     =     62.241208    -0.000001    -0.119195    62.122013
	   63 D(8,3,5,13)     =    -58.010657    -0.000001    -0.119095   -58.129752
	   64 D(8,3,5,14)     =   -178.226078    -0.000001    -0.100312  -178.326390
	   65 D(9,3,5,12)     =    178.294428    -0.000000    -0.019086   178.275342
	   66 D(9,3,5,13)     =     58.042564     0.000000    -0.018987    58.023577
	   67 D(9,3,5,14)     =    -62.172857     0.000000    -0.000204   -62.173061
	   68 D(10,4,1,15)    =    -33.492922     0.000001     0.002713   -33.490209
	   69 D(11,4,1,15)    =   -150.099186    -0.000001    -0.071800  -150.170986
	 ---------------------------------------------------------------------------
	Successfully symmetrized geometry.

  ==> Convergence Check <==

  Measures of convergence in internal coordinates in au.
  Criteria marked as inactive (o), active & met (*), and active & unmet ( ).
  ---------------------------------------------------------------------------------------------
   Step     Total Energy     Delta E     MAX Force     RMS Force      MAX Disp      RMS Disp   
  ---------------------------------------------------------------------------------------------
    Convergence Criteria             o    2.50e-03 *    1.70e-03 *    1.00e-02 *    6.70e-03 *
  ---------------------------------------------------------------------------------------------
     10    -233.58172572   -1.88e-04 o    1.18e-03 *    2.37e-04 *    3.45e-03 *    1.20e-03 *  ~
  ---------------------------------------------------------------------------------------------


  **** Optimization is complete! (in 10 steps) ****

  ==> Optimization Summary <==

  Measures of convergence in internal coordinates in au.
  --------------------------------------------------------------------------------------------------------------- ~
   Step         Total Energy             Delta E       MAX Force       RMS Force        MAX Disp        RMS Disp  ~
  --------------------------------------------------------------------------------------------------------------- ~
      1    -233.579543008641   -233.579543008641      0.01460431      0.00380096      1.56438651      0.46905822  ~
      2    -232.712092799708      0.867450208933      0.09333932      0.03595588      0.16161523      0.06022274  ~
      3    -232.857907525387     -0.145814725679      0.09727103      0.03504731      0.33547032      0.11962813  ~
      4    -233.131849504837     -0.273941979450      0.09720757      0.03102119      0.35108889      0.11682484  ~
      5    -233.352793324342     -0.220943819505      0.09512923      0.02582078      0.37931473      0.10513046  ~
      6    -233.500801854366     -0.148008530024      0.07568608      0.02081127      0.27167211      0.06954179  ~
      7    -233.570484766527     -0.069682912160      0.03444555      0.00835648      0.13486429      0.03830906  ~
      8    -233.581231255267     -0.010746488740      0.00311591      0.00129941      0.06526656      0.02158255  ~
      9    -233.581537663405     -0.000306408138      0.00441292      0.00137090      0.01612988      0.00503803  ~
     10    -233.581725715333     -0.000188051928      0.00117647      0.00023704      0.00344710      0.00119617  ~
  --------------------------------------------------------------------------------------------------------------- ~

	Writing optimization data to binary file.
	Final energy is   -233.5817257153325
	Final (previous) structure:
	Cartesian Geometry (in Angstrom)
	    O    -1.9625091724  -0.7306615129   1.2519681415
	    C    -0.1824822766   0.2410705017  -0.1358549505
	    C     1.2935460681   0.1743414662  -0.5368784193
	    C    -0.5611608033  -0.8102809804   0.8977847312
	    C     1.6719685090   1.2352738565  -1.5726383684
	    H    -0.4228040827   1.2292042787   0.2671708250
	    H    -0.8082657327   0.1050476151  -1.0259305380
	    H     1.5199888848  -0.8218877455  -0.9347273859
	    H     1.9174645788   0.2968862665   0.3554068607
	    H    -0.3056261188  -1.8124981476   0.5323831098
	    H    -0.0098860260  -0.6435866593   1.8236778831
	    H     1.0839031965   1.1164218347  -2.4863356399
	    H     2.7273009246   1.1700406633  -1.8415824671
	    H     1.4846002695   2.2409059567  -1.1870946758
	    H    -2.4956744450  -1.2909621273   0.6728767213
	Saving final (previous) structure.
			--------------------------
			 OPTKING Finished Execution 
			--------------------------

    Final optimized geometry and variables:
    Molecular point group: c1
    Full point group: C1

    Geometry (in Angstrom), charge = 0, multiplicity = 1:

    O           -1.962509180091    -0.730661515773     1.251968146459
    C           -0.182482277348     0.241070502612    -0.135854951055
    C            1.293546073185     0.174341466859    -0.536878421448
    C           -0.561160805551    -0.810280983599     0.897784734705
    C            1.671968515587     1.235273861401    -1.572638374596
    H           -0.422804084343     1.229204283499     0.267170826063
    H           -0.808265735872     0.105047615556    -1.025930542012
    H            1.519988890743    -0.821887748728    -0.934727389564
    H            1.917464586366     0.296886267688     0.355406862083
    H           -0.305626119968    -1.812498154702     0.532383111925
    H           -0.009886025996    -0.643586661877     1.823677890306
    H            1.083903200731     1.116421839111    -2.486335649642
    H            2.727300935322     1.170040667948    -1.841582474312
    H            1.484600275308     2.240905965513    -1.187094680483
    H           -2.495674454772    -1.290962132355     0.672876723972

	Removing binary optimization data file.
	Cleaning optimization helper files.

    Psi4 stopped on: Thursday, 27 May 2021 11:05AM
    Psi4 wall time for execution: 0:00:52.30

*** Psi4 exiting successfully. Buy a developer a beer!
