
    -----------------------------------------------------------------------
          Psi4: An Open-Source Ab Initio Electronic Structure Package
                               Psi4 1.3.2 release

                         Git: Rev {HEAD} ecbda83 


    R. M. Parrish, L. A. Burns, D. G. A. Smith, A. C. Simmonett,
    A. E. DePrince III, E. G. Hohenstein, U. Bozkaya, A. Yu. Sokolov,
    R. Di Remigio, R. M. Richard, J. F. Gonthier, A. M. James,
    H. R. McAlexander, A. Kumar, M. Saitow, X. Wang, B. P. Pritchard,
    P. Verma, H. F. Schaefer III, K. Patkowski, R. A. King, E. F. Valeev,
    F. A. Evangelista, J. M. Turney, T. D. Crawford, and C. D. Sherrill,
    J. Chem. Theory Comput. 13(7) pp 3185--3197 (2017).
    (doi: 10.1021/acs.jctc.7b00174)


                         Additional Contributions by
    P. Kraus, H. Kruse, M. H. Lechner, M. C. Schieber, R. A. Shaw,
    A. Alenaizan, R. Galvelis, Z. L. Glick, S. Lehtola, and J. P. Misiewicz

    -----------------------------------------------------------------------


    Psi4 started on: Thursday, 27 May 2021 10:58AM

    Process ID: 225362
    Host:       daniele-Precision-5750
    PSIDATADIR: /home/daniele/anaconda3/envs/poltype/share/psi4
    Memory:     500.0 MiB
    Threads:    1
    
  ==> Input File <==

--------------------------------------------------------------------------
molecule { 
0 1
 O   -2.348490    0.165086   -0.622429
 C    0.028088    0.137012   -0.255607
 C    1.243240   -0.418417    0.530549
 C   -1.336076   -0.430140    0.195051
 C    2.596772    0.160730    0.071230
 H   -0.007380    1.230096   -0.160045
 H    0.149973   -0.076948   -1.325687
 H    1.272952   -1.511783    0.433252
 H    1.112924   -0.211529    1.601096
 H   -1.346642   -1.521571    0.087266
 H   -1.503063   -0.215350    1.258654
 H    2.783678   -0.060474   -0.985132
 H    3.420021   -0.267966    0.652659
 H    2.626285    1.247951    0.201021
 H   -2.967203    0.652212   -0.046459
}
set optking { 
  frozen_dihedral = ("
    2 4 1 15
    4 2 3 5
    3 2 4 1
    12 5 3 2
  ")
}
set {
  geom_maxiter 400
  g_convergence GAU_LOOSE
  dynamic_level 1
}
memory 700MB
set_num_threads(8)
psi4_io.set_default_path("/home/daniele/PSI4_sctatch/Psi4-1butanol_3D")
for _ in range(1):
  try:
    set opt_coordinates both
    optimize('wb97x-d/6-311G')
    break
  except OptimizationConvergenceError:
    break
  else:
    try:
      set opt_coordinates cartesian
      optimize('wb97x-d/6-311G')
      break
    except OptimizationConvergenceError:
      pass
clean()
--------------------------------------------------------------------------

  Memory set to 667.572 MiB by Python driver.
  Threads set to 8 by Python driver.
gradient() will perform analytic gradient computation.

*** tstart() called on daniele-Precision-5750
*** at Thu May 27 10:58:19 2021

   => Loading Basis Set <=

    Name: 6-311G
    Role: ORBITAL
    Keyword: BASIS
    atoms 1    entry O          line   126 file /home/daniele/anaconda3/envs/poltype/share/psi4/basis/6-311g.gbs 
    atoms 2-5  entry C          line    92 file /home/daniele/anaconda3/envs/poltype/share/psi4/basis/6-311g.gbs 
    atoms 6-15 entry H          line    21 file /home/daniele/anaconda3/envs/poltype/share/psi4/basis/6-311g.gbs 


         ---------------------------------------------------------
                                   SCF
               by Justin Turney, Rob Parrish, Andy Simmonett
                          and Daniel G. A. Smith
                              RKS Reference
                        8 Threads,    667 MiB Core
         ---------------------------------------------------------

  ==> Geometry <==

    Molecular point group: c1
    Full point group: C1

    Geometry (in Angstrom), charge = 0, multiplicity = 1:

       Center              X                  Y                   Z               Mass       
    ------------   -----------------  -----------------  -----------------  -----------------
         O           -2.326961268672     0.228676637178    -0.599060684806    15.994914619570
         C            0.049616731328     0.200602637178    -0.232238684806    12.000000000000
         C            1.264768731328    -0.354826362822     0.553917315194    12.000000000000
         C           -1.314547268672    -0.366549362822     0.218419315194    12.000000000000
         C            2.618300731328     0.224320637178     0.094598315194    12.000000000000
         H            0.014148731328     1.293686637178    -0.136676684806     1.007825032230
         H            0.171501731328    -0.013357362822    -1.302318684806     1.007825032230
         H            1.294480731328    -1.448192362822     0.456620315194     1.007825032230
         H            1.134452731328    -0.147938362822     1.624464315194     1.007825032230
         H           -1.325113268672    -1.457980362822     0.110634315194     1.007825032230
         H           -1.481534268672    -0.151759362822     1.282022315194     1.007825032230
         H            2.805206731328     0.003116637178    -0.961763684806     1.007825032230
         H            3.441549731328    -0.204375362822     0.676027315194     1.007825032230
         H            2.647813731328     1.311541637178     0.224389315194     1.007825032230
         H           -2.945674268672     0.715802637178    -0.023090684806     1.007825032230

  Running in c1 symmetry.

  Rotational constants: A =      0.60543  B =      0.06426  C =      0.06098 [cm^-1]
  Rotational constants: A =  18150.46196  B =   1926.55961  C =   1828.23054 [MHz]
  Nuclear repulsion =  183.143236814941986

  Charge       = 0
  Multiplicity = 1
  Electrons    = 42
  Nalpha       = 21
  Nbeta        = 21

  ==> Algorithm <==

  SCF Algorithm Type is DF.
  DIIS enabled.
  MOM disabled.
  Fractional occupation disabled.
  Guess Type is SAD.
  Energy threshold   = 1.00e-08
  Density threshold  = 1.00e-08
  Integral threshold = 0.00e+00

  ==> Primary Basis <==

  Basis Set: 6-311G
    Blend: 6-311G
    Number of shells: 65
    Number of basis function: 95
    Number of Cartesian functions: 95
    Spherical Harmonics?: true
    Max angular momentum: 1

  ==> DFT Potential <==

   => Composite Functional: WB97X-D <= 

    wB97X-D Hyb-GGA Exchange-Correlation Functional

    J.-D. Chai and M. Head-Gordon, Phys. Chem. Chem. Phys. 10, 6615 (2008)

    Deriv               =              1
    GGA                 =           TRUE
    Meta                =          FALSE

    Exchange Hybrid     =           TRUE
    MP2 Hybrid          =          FALSE

   => Exchange-Correlation Functionals <=

    1.0000   wB97D range-separated functional

   => Exact (HF) Exchange <=

    0.7780            HF,LR [omega = 0.2000]
    0.2220               HF 

   => Molecular Quadrature <=

    Radial Scheme          =       TREUTLER
    Pruning Scheme         =           FLAT
    Nuclear Scheme         =       TREUTLER

    BS radius alpha        =              1
    Pruning alpha          =              1
    Radial Points          =             75
    Spherical Points       =            302
    Total Points           =         336090
    Total Blocks           =           2576
    Max Points             =            256
    Max Functions          =             89

   => WB97X-D: Empirical Dispersion <=

    Chai and Head-Gordon Dispersion Correction
    Chai, J.-D.; Head-Gordon, M. (2010), J. Chem. Phys., 132: 6615-6620

        s6 =       1.000000

   => Loading Basis Set <=

    Name: (6-311G AUX)
    Role: JKFIT
    Keyword: DF_BASIS_SCF
    atoms 1    entry O          line   229 file /home/daniele/anaconda3/envs/poltype/share/psi4/basis/cc-pvtz-jkfit.gbs 
    atoms 2-5  entry C          line   125 file /home/daniele/anaconda3/envs/poltype/share/psi4/basis/cc-pvtz-jkfit.gbs 
    atoms 6-15 entry H          line    51 file /home/daniele/anaconda3/envs/poltype/share/psi4/basis/cc-pvtz-jkfit.gbs 

  ==> Pre-Iterations <==

   -------------------------------------------------------
    Irrep   Nso     Nmo     Nalpha   Nbeta   Ndocc  Nsocc
   -------------------------------------------------------
     A         95      95       0       0       0       0
   -------------------------------------------------------
    Total      95      95      21      21      21       0
   -------------------------------------------------------

  ==> Integral Setup <==

  ==> DiskDFJK: Density-Fitted J/K Matrices <==

    J tasked:                  Yes
    K tasked:                  Yes
    wK tasked:                 Yes
    Omega:               2.000E-01
    OpenMP threads:              8
    Integrals threads:           8
    Memory [MiB]:               34
    Algorithm:                Disk
    Integral Cache:           NONE
    Schwarz Cutoff:          1E-12
    Fitting Condition:       1E-10

   => Auxiliary Basis Set <=

  Basis Set: (6-311G AUX)
    Blend: CC-PVTZ-JKFIT
    Number of shells: 225
    Number of basis function: 695
    Number of Cartesian functions: 830
    Spherical Harmonics?: true
    Max angular momentum: 4

  Cached 100.0% of DFT collocation blocks in 0.660 [GiB].

  Minimum eigenvalue in the overlap matrix is 2.5762077702E-03.
  Using Symmetric Orthogonalization.

  SCF Guess: Superposition of Atomic Densities via on-the-fly atomic UHF.

  ==> Iterations <==

                           Total Energy        Delta E     RMS |[F,P]|

   @DF-RKS iter SAD:  -232.83784993040206   -2.32838e+02   0.00000e+00 
   @DF-RKS iter   1:  -233.28250846737390   -4.44659e-01   8.19900e-03 DIIS
   @DF-RKS iter   2:  -233.38493258563747   -1.02424e-01   7.16679e-03 DIIS
   @DF-RKS iter   3:  -233.57637946337073   -1.91447e-01   8.25315e-04 DIIS
   @DF-RKS iter   4:  -233.57843072075838   -2.05126e-03   3.32665e-04 DIIS
   @DF-RKS iter   5:  -233.57886950189558   -4.38781e-04   3.37623e-05 DIIS
   @DF-RKS iter   6:  -233.57887565852187   -6.15663e-06   1.62831e-05 DIIS
   @DF-RKS iter   7:  -233.57887686138571   -1.20286e-06   1.88631e-06 DIIS
   @DF-RKS iter   8:  -233.57887689389909   -3.25134e-08   3.25288e-07 DIIS
   @DF-RKS iter   9:  -233.57887689500566   -1.10657e-09   1.13262e-07 DIIS
   @DF-RKS iter  10:  -233.57887689509897   -9.33085e-11   4.42200e-08 DIIS
   @DF-RKS iter  11:  -233.57887689511546   -1.64846e-11   6.63751e-09 DIIS
  Energy and wave function converged.


  ==> Post-Iterations <==

    Orbital Energies [Eh]
    ---------------------

    Doubly Occupied:                                                      

       1A    -19.238104     2A    -10.331811     3A    -10.283382  
       4A    -10.276893     5A    -10.271796     6A     -1.125866  
       7A     -0.891570     8A     -0.818949     9A     -0.727972  
      10A     -0.678456    11A     -0.603402    12A     -0.561823  
      13A     -0.524514    14A     -0.516268    15A     -0.480016  
      16A     -0.455863    17A     -0.437010    18A     -0.418092  
      19A     -0.411922    20A     -0.401014    21A     -0.347854  

    Virtual:                                                              

      22A      0.111632    23A      0.124814    24A      0.148345  
      25A      0.157640    26A      0.170294    27A      0.202320  
      28A      0.208008    29A      0.217985    30A      0.222758  
      31A      0.239225    32A      0.254840    33A      0.295164  
      34A      0.308886    35A      0.327484    36A      0.383260  
      37A      0.388587    38A      0.411177    39A      0.449752  
      40A      0.454488    41A      0.466018    42A      0.498678  
      43A      0.527050    44A      0.605313    45A      0.610630  
      46A      0.644230    47A      0.647494    48A      0.671610  
      49A      0.674431    50A      0.680103    51A      0.691470  
      52A      0.699430    53A      0.701770    54A      0.712852  
      55A      0.720475    56A      0.725268    57A      0.750038  
      58A      0.849513    59A      0.969087    60A      1.015149  
      61A      1.069032    62A      1.075992    63A      1.095974  
      64A      1.135477    65A      1.581791    66A      2.270905  
      67A      2.344036    68A      2.346789    69A      2.351011  
      70A      2.360187    71A      2.362499    72A      2.386098  
      73A      2.391135    74A      2.410767    75A      2.434360  
      76A      2.872439    77A      2.904642    78A      2.919963  
      79A      2.937687    80A      2.950177    81A      2.954389  
      82A      2.982920    83A      3.068049    84A      3.086100  
      85A      3.160655    86A      3.181353    87A      3.300561  
      88A      4.962923    89A      5.004544    90A      5.151404  
      91A     23.430701    92A     23.569719    93A     23.638337  
      94A     23.710240    95A     49.961422  

    Final Occupation by Irrep:
              A 
    DOCC [    21 ]

  @DF-RKS Final Energy:  -233.57887689511546

   => Energetics <=

    Nuclear Repulsion Energy =            183.1432368149419858
    One-Electron Energy =                -678.1376869830158967
    Two-Electron Energy =                 284.6407763825874326
    DFT Exchange-Correlation Energy =     -23.2183253896369735
    Empirical Dispersion Energy =          -0.0068777199920219
    VV10 Nonlocal Energy =                  0.0000000000000000
    Total Energy =                       -233.5788768951154566

Computation Completed


Properties will be evaluated at   0.000000,   0.000000,   0.000000 [a0]

Properties computed using the SCF density matrix

  Nuclear Dipole Moment: [e a0]
     X:     5.3857      Y:    -0.0921      Z:     1.8255

  Electronic Dipole Moment: [e a0]
     X:    -5.3465      Y:     0.1913      Z:    -1.0257

  Dipole Moment: [e a0]
     X:     0.0392      Y:     0.0992      Z:     0.7997     Total:     0.8068

  Dipole Moment: [D]
     X:     0.0996      Y:     0.2521      Z:     2.0327     Total:     2.0507


*** tstop() called on daniele-Precision-5750 at Thu May 27 10:58:23 2021
Module time:
	user time   =      29.48 seconds =       0.49 minutes
	system time =       0.76 seconds =       0.01 minutes
	total time  =          4 seconds =       0.07 minutes
Total time:
	user time   =      29.48 seconds =       0.49 minutes
	system time =       0.76 seconds =       0.01 minutes
	total time  =          4 seconds =       0.07 minutes

*** tstart() called on daniele-Precision-5750
*** at Thu May 27 10:58:23 2021


         ------------------------------------------------------------
                                   SCF GRAD                          
                          Rob Parrish, Justin Turney,                
                       Andy Simmonett, and Alex Sokolov              
         ------------------------------------------------------------

  ==> Geometry <==

    Molecular point group: c1
    Full point group: C1

    Geometry (in Angstrom), charge = 0, multiplicity = 1:

       Center              X                  Y                   Z               Mass       
    ------------   -----------------  -----------------  -----------------  -----------------
         O           -2.326961268672     0.228676637178    -0.599060684806    15.994914619570
         C            0.049616731328     0.200602637178    -0.232238684806    12.000000000000
         C            1.264768731328    -0.354826362822     0.553917315194    12.000000000000
         C           -1.314547268672    -0.366549362822     0.218419315194    12.000000000000
         C            2.618300731328     0.224320637178     0.094598315194    12.000000000000
         H            0.014148731328     1.293686637178    -0.136676684806     1.007825032230
         H            0.171501731328    -0.013357362822    -1.302318684806     1.007825032230
         H            1.294480731328    -1.448192362822     0.456620315194     1.007825032230
         H            1.134452731328    -0.147938362822     1.624464315194     1.007825032230
         H           -1.325113268672    -1.457980362822     0.110634315194     1.007825032230
         H           -1.481534268672    -0.151759362822     1.282022315194     1.007825032230
         H            2.805206731328     0.003116637178    -0.961763684806     1.007825032230
         H            3.441549731328    -0.204375362822     0.676027315194     1.007825032230
         H            2.647813731328     1.311541637178     0.224389315194     1.007825032230
         H           -2.945674268672     0.715802637178    -0.023090684806     1.007825032230

  Nuclear repulsion =  183.143236814941986

  ==> Basis Set <==

  Basis Set: 6-311G
    Blend: 6-311G
    Number of shells: 65
    Number of basis function: 95
    Number of Cartesian functions: 95
    Spherical Harmonics?: true
    Max angular momentum: 1

  ==> DFJKGrad: Density-Fitted SCF Gradients <==

    Gradient:                    1
    J tasked:                  Yes
    K tasked:                  Yes
    wK tasked:                 Yes
    Omega:               2.000E-01
    OpenMP threads:              8
    Integrals threads:           8
    Memory [MiB]:              500
    Schwarz Cutoff:          0E+00
    Fitting Condition:       1E-10

   => Auxiliary Basis Set <=

  Basis Set: (6-311G AUX)
    Blend: CC-PVTZ-JKFIT
    Number of shells: 225
    Number of basis function: 695
    Number of Cartesian functions: 830
    Spherical Harmonics?: true
    Max angular momentum: 4

  ==> DFT Potential <==

   => Composite Functional: WB97X-D <= 

    wB97X-D Hyb-GGA Exchange-Correlation Functional

    J.-D. Chai and M. Head-Gordon, Phys. Chem. Chem. Phys. 10, 6615 (2008)

    Deriv               =              1
    GGA                 =           TRUE
    Meta                =          FALSE

    Exchange Hybrid     =           TRUE
    MP2 Hybrid          =          FALSE

   => Exchange-Correlation Functionals <=

    1.0000   wB97D range-separated functional

   => Exact (HF) Exchange <=

    0.7780            HF,LR [omega = 0.2000]
    0.2220               HF 

   => Molecular Quadrature <=

    Radial Scheme          =       TREUTLER
    Pruning Scheme         =           FLAT
    Nuclear Scheme         =       TREUTLER

    BS radius alpha        =              1
    Pruning alpha          =              1
    Radial Points          =             75
    Spherical Points       =            302
    Total Points           =         336090
    Total Blocks           =           2576
    Max Points             =            256
    Max Functions          =             89


  -Total Gradient:
     Atom            X                  Y                   Z
    ------   -----------------  -----------------  -----------------
       1        0.018032182914    -0.007054587803    -0.005788780664
       2       -0.002765924489     0.004442439550    -0.005133497863
       3        0.002995837236    -0.000967797795     0.002222539303
       4       -0.024457130455     0.001503296619    -0.003919253500
       5        0.003408086387     0.001152161525    -0.000651799866
       6        0.000249319702     0.002480171087    -0.000545330938
       7        0.000825616650     0.000057831609    -0.002994835406
       8        0.000802685698    -0.001813758614     0.000458047659
       9        0.000492424333    -0.000156612132     0.001705613996
      10        0.001264020060    -0.002603231988     0.002938495187
      11       -0.001559494793    -0.000900196828     0.001065570881
      12        0.001073882970    -0.000688381565    -0.001715611306
      13        0.001794358584    -0.000880128464     0.001163934728
      14        0.000663103458     0.001830837235     0.000614593702
      15       -0.002842101168     0.003590641723     0.010674603303


*** tstop() called on daniele-Precision-5750 at Thu May 27 10:58:25 2021
Module time:
	user time   =      13.09 seconds =       0.22 minutes
	system time =       0.12 seconds =       0.00 minutes
	total time  =          2 seconds =       0.03 minutes
Total time:
	user time   =      42.58 seconds =       0.71 minutes
	system time =       0.88 seconds =       0.01 minutes
	total time  =          6 seconds =       0.10 minutes

			-----------------------------------------
			 OPTKING 2.0: for geometry optimizations 
			  - R.A. King,  Bethel University        
			-----------------------------------------
	At level 1: Red. Int., RFO, no backsteps, dynamic trust

	Internal coordinates to be generated automatically.
	Detected frag 1 with atoms:  1 2 3 4 5 6 7 8 9 10 11 12 13 14 15
	---Fragment 1 Bond Connectivity---
	 1 : 4 15
	 2 : 3 4 6 7
	 3 : 2 5 8 9
	 4 : 1 2 10 11
	 5 : 3 12 13 14
	 6 : 2
	 7 : 2
	 8 : 3
	 9 : 3
	 10 : 4
	 11 : 4
	 12 : 5
	 13 : 5
	 14 : 5
	 15 : 1

	Assuming in current code that numbering for constraints corresponds to unified fragment.
	Frozen dihedral atom list: 
	     2     4     1    15
	     4     2     3     5
	     3     2     4     1
	    12     5     3     2
	---Fragment 1 Geometry and Gradient---
	 O          -4.3973195023        0.4321362156       -1.1320606268
	 C           0.0937620335        0.3790840443       -0.4388675100
	 C           2.3900665143       -0.6705246478        1.0467520219
	 C          -2.4841343168       -0.6926779072        0.4127526862
	 C           4.9478712963        0.4239045686        0.1787649076
	 H           0.0267372272        2.4447134364       -0.2582815020
	 H           0.3240913023       -0.0252417575       -2.4610256423
	 H           2.4462140569       -2.7366869427        0.8628873390
	 H           2.1438049645       -0.2795629892        3.0697926563
	 H          -2.5041011630       -2.7551835820        0.2090685558
	 H          -2.7996940133       -0.2867836327        2.4226710624
	 H           5.3010724475        0.0058895907       -1.8174699617
	 H           6.5035864394       -0.3862134625        1.2775064790
	 H           5.0036427834        2.4784544964        0.4240343512
	 H          -5.5665176226        1.3526709441       -0.0436350703
	             0.0180321829       -0.0070545878       -0.0057887807
	            -0.0027659245        0.0044424396       -0.0051334979
	             0.0029958372       -0.0009677978        0.0022225393
	            -0.0244571305        0.0015032966       -0.0039192535
	             0.0034080864        0.0011521615       -0.0006517999
	             0.0002493197        0.0024801711       -0.0005453309
	             0.0008256166        0.0000578316       -0.0029948354
	             0.0008026857       -0.0018137586        0.0004580477
	             0.0004924243       -0.0001566121        0.0017056140
	             0.0012640201       -0.0026032320        0.0029384952
	            -0.0015594948       -0.0009001968        0.0010655709
	             0.0010738830       -0.0006883816       -0.0017156113
	             0.0017943586       -0.0008801285        0.0011639347
	             0.0006631035        0.0018308372        0.0006145937
	            -0.0028421012        0.0035906417        0.0106746033

	Previous optimization step data not found.  Starting new optimization.

	---Fragment 1 Intrafragment Coordinates---
	 - Coordinate -           - BOHR/RAD -       - ANG/DEG -
	 R(1,4)           =         2.704059	       1.430926
	 R(1,15)          =         1.843659	       0.975622
	 R(2,3)           =         2.929464	       1.550205
	 R(2,4)           =         2.918815	       1.544570
	 R(2,6)           =         2.074591	       1.097826
	 R(2,7)           =         2.075007	       1.098046
	 R(3,5)           =         2.914368	       1.542217
	 R(3,8)           =         2.075087	       1.098089
	 R(3,9)           =         2.075136	       1.098115
	 R(4,10)          =         2.072635	       1.096791
	 R(4,11)          =         2.074632	       1.097848
	 R(5,12)          =         2.069889	       1.095338
	 R(5,13)          =         2.069728	       1.095253
	 R(5,14)          =         2.069890	       1.095338
	 B(1,4,2)         =         1.881215	     107.785674
	 B(1,4,10)        =         1.929415	     110.547319
	 B(1,4,11)        =         1.943863	     111.375173
	 B(2,3,5)         =         1.984904	     113.726636
	 B(2,3,8)         =         1.910309	     109.452662
	 B(2,3,9)         =         1.911205	     109.503966
	 B(2,4,10)        =         1.923282	     110.195934
	 B(2,4,11)        =         1.923213	     110.191965
	 B(3,2,4)         =         1.996303	     114.379734
	 B(3,2,6)         =         1.915510	     109.750615
	 B(3,2,7)         =         1.914937	     109.717830
	 B(3,5,12)        =         1.940302	     111.171141
	 B(3,5,13)        =         1.933278	     110.768687
	 B(3,5,14)        =         1.940246	     111.167912
	 B(4,1,15)        =         1.895593	     108.609472
	 B(4,2,6)         =         1.887750	     108.160092
	 B(4,2,7)         =         1.886858	     108.108995
	 B(5,3,8)         =         1.900515	     108.891482
	 B(5,3,9)         =         1.900493	     108.890223
	 B(6,2,7)         =         1.857122	     106.405237
	 B(8,3,9)         =         1.851659	     106.092270
	 B(10,4,11)       =         1.863386	     106.764135
	 B(12,5,13)       =         1.880385	     107.738106
	 B(12,5,14)       =         1.886130	     108.067283
	 B(13,5,14)       =         1.881108	     107.779547
	*D(1,4,2,3)       =        -3.134695	    -179.604806
	 D(1,4,2,6)       =         1.008312	      57.772007
	 D(1,4,2,7)       =        -0.995922	     -57.062108
	*D(2,3,5,12)      =        -1.045241	     -59.887870
	 D(2,3,5,13)      =        -3.135370	    -179.643466
	 D(2,3,5,14)      =         1.056813	      60.550913
	*D(2,4,1,15)      =        -2.094813	    -120.023933
	 D(3,2,4,10)      =        -1.027846	     -58.891264
	 D(3,2,4,11)      =         1.024028	      58.672508
	*D(4,2,3,5)       =        -3.138676	    -179.832892
	 D(4,2,3,8)       =         1.014739	      58.140277
	 D(4,2,3,9)       =        -1.008272	     -57.769728
	 D(5,3,2,6)       =        -1.013645	     -58.077575
	 D(5,3,2,7)       =         1.021072	      58.503101
	 D(6,2,3,8)       =         3.139770	     179.895593
	 D(6,2,3,9)       =         1.116759	      63.985589
	 D(6,2,4,10)      =         3.115161	     178.485550
	 D(6,2,4,11)      =        -1.116150	     -63.950679
	 D(7,2,3,8)       =        -1.108698	     -63.523731
	 D(7,2,3,9)       =        -3.131709	    -179.433735
	 D(7,2,4,10)      =         1.110927	      63.651435
	 D(7,2,4,11)      =        -3.120383	    -178.784794
	 D(8,3,5,12)      =         1.089941	      62.449022
	 D(8,3,5,13)      =        -1.000188	     -57.306574
	 D(8,3,5,14)      =        -3.091191	    -177.112196
	 D(9,3,5,12)      =         3.101626	     177.710053
	 D(9,3,5,13)      =         1.011496	      57.954457
	 D(9,3,5,14)      =        -1.079506	     -61.851164
	 D(10,4,1,15)     =         2.085374	     119.483128
	 D(11,4,1,15)     =         0.016785	       0.961716

	Current energy   :      -233.5788768951

	Generating empirical Hessian (Schlegel '84) for each fragment.
	Taking RFO optimization step.
	Going to follow RFO solution 1.
	Using RFO vector 1.
	Norm of target step-size    0.13969
	Projected energy change by RFO approximation:        -0.0038947214

	Back-transformation to cartesian coordinates...
	Could not converge backtransformation.
	Using first guess instead.

	Back-transformation to cartesian coordinates to adjust frozen coordinates...
	Successfully converged to displaced geometry.

	--- Internal Coordinate Step in ANG or DEG, aJ/ANG or AJ/DEG ---
	 ---------------------------------------------------------------------------
	   Coordinate                Previous        Force       Change         New 
	   ----------                --------       ------       ------       ------
	    1 R(1,4)          =      1.430926     0.123521     0.462737     1.893663
	    2 R(1,15)         =      0.975622    -0.081617     0.043645     1.019268
	    3 R(2,3)          =      1.550205    -0.092564     0.443151     1.993356
	    4 R(2,4)          =      1.544570    -0.098064     0.425409     1.969980
	    5 R(2,6)          =      1.097826    -0.019927     0.164009     1.261836
	    6 R(2,7)          =      1.098046    -0.024713     0.113871     1.211917
	    7 R(3,5)          =      1.542217    -0.056216     0.438762     1.980980
	    8 R(3,8)          =      1.098089    -0.014766     0.167836     1.265925
	    9 R(3,9)          =      1.098115    -0.012846     0.115539     1.213654
	   10 R(4,10)         =      1.096791    -0.018899     0.162210     1.259001
	   11 R(4,11)         =      1.097848    -0.008969     0.118010     1.215858
	   12 R(5,12)         =      1.095338    -0.016380     0.106652     1.201990
	   13 R(5,13)         =      1.095253    -0.018974     0.328742     1.423995
	   14 R(5,14)         =      1.095338    -0.015750     0.167126     1.262465
	   15 B(1,4,2)        =    107.785674     0.000651     2.047012   109.832686
	   16 B(1,4,10)       =    110.547319    -0.000330    -0.721700   109.825619
	   17 B(1,4,11)       =    111.375173    -0.000130     6.394649   117.769822
	   18 B(2,3,5)        =    113.726636    -0.000332    -0.002746   113.723890
	   19 B(2,3,8)        =    109.452662     0.000066     2.980873   112.433536
	   20 B(2,3,9)        =    109.503966     0.000052     2.983514   112.487480
	   21 B(2,4,10)       =    110.195934    -0.000118     7.627784   117.823718
	   22 B(2,4,11)       =    110.191965    -0.000267    -2.933982   107.257983
	   23 B(3,2,4)        =    114.379734    -0.000290    -1.624327   112.755407
	   24 B(3,2,6)        =    109.750615     0.000053     1.824678   111.575293
	   25 B(3,2,7)        =    109.717830     0.000136     6.407663   116.125492
	   26 B(3,5,12)       =    111.171141    -0.000055    -2.993230   108.177911
	   27 B(3,5,13)       =    110.768687     0.000015    -1.099304   109.669383
	   28 B(3,5,14)       =    111.167912    -0.000038     7.589823   118.757735
	   29 B(4,1,15)       =    108.609472     0.000854     7.227706   115.837178
	   30 B(4,2,6)        =    108.160092     0.000082     6.875377   115.035469
	   31 B(4,2,7)        =    108.108995     0.000050    -1.336573   106.772422
	   32 B(5,3,8)        =    108.891482     0.000128     5.746363   114.637845
	   33 B(5,3,9)        =    108.890223     0.000136    -0.331353   108.558870
	   34 B(6,2,7)        =    106.405237    -0.000014   -13.225934    93.179303
	   35 B(8,3,9)        =    106.092270    -0.000030   -12.875319    93.216952
	   36 B(10,4,11)      =    106.764135     0.000174   -12.848966    93.915169
	   37 B(12,5,13)      =    107.738106     0.000027     4.644244   112.382349
	   38 B(12,5,14)      =    108.067283     0.000025    -9.312937    98.754346
	   39 B(13,5,14)      =    107.779547     0.000031     0.963557   108.743104
	   40 *D(1,4,2,3)     =   -179.604806     0.000000     0.000000  -179.604806
	   41 D(1,4,2,6)      =     57.772007     0.000015    -6.872387    50.899620
	   42 D(1,4,2,7)      =    -57.062108     0.000004     6.149754   -50.912354
	   43 *D(2,3,5,12)    =    -59.887870     0.000000     0.000000   -59.887870
	   44 D(2,3,5,13)     =   -179.643466    -0.000002    -3.132047  -182.775513
	   45 D(2,3,5,14)     =     60.550913    -0.000007    -9.158479    51.392434
	   46 *D(2,4,1,15)    =   -120.023933     0.000000     0.000000  -120.023933
	   47 D(3,2,4,10)     =    -58.891264    -0.000016     6.014998   -52.876265
	   48 D(3,2,4,11)     =     58.672508    -0.000021    -7.378616    51.293892
	   49 *D(4,2,3,5)     =   -179.832892    -0.000000     0.000000  -179.832892
	   50 D(4,2,3,8)      =     58.140277     0.000004   -10.355885    47.784391
	   51 D(4,2,3,9)      =    -57.769728    -0.000003     1.867450   -55.902278
	   52 D(5,3,2,6)      =    -58.077575    -0.000013     9.493784   -48.583791
	   53 D(5,3,2,7)      =     58.503101     0.000008    -1.995283    56.507818
	   54 D(6,2,3,8)      =    179.895593    -0.000009    -0.862101   179.033492
	   55 D(6,2,3,9)      =     63.985589    -0.000016    11.361234    75.346823
	   56 D(6,2,4,10)     =    178.485550    -0.000000    -0.857388   177.628161
	   57 D(6,2,4,11)     =    -63.950679    -0.000005   -14.251003   -78.201682
	   58 D(7,2,3,8)      =    -63.523731     0.000012   -12.351168   -75.874899
	   59 D(7,2,3,9)      =   -179.433735     0.000005    -0.127833  -179.561568
	   60 D(7,2,4,10)     =     63.651435    -0.000012    12.164753    75.816187
	   61 D(7,2,4,11)     =   -178.784794    -0.000017    -1.228862  -180.013656
	   62 D(8,3,5,12)     =     62.449022    -0.000011     8.973675    71.422697
	   63 D(8,3,5,13)     =    -57.306574    -0.000013     5.841629   -51.464946
	   64 D(8,3,5,14)     =   -177.112196    -0.000018    -0.184803  -177.296999
	   65 D(9,3,5,12)     =    177.710053     0.000014    -3.630865   174.079188
	   66 D(9,3,5,13)     =     57.954457     0.000012    -6.762912    51.191545
	   67 D(9,3,5,14)     =    -61.851164     0.000006   -12.789344   -74.640508
	   68 D(10,4,1,15)    =    119.483128    -0.000015   -10.614642   108.868485
	   69 D(11,4,1,15)    =      0.961716     0.000003     2.131147     3.092863
	 ---------------------------------------------------------------------------
	Successfully symmetrized geometry.

  ==> Convergence Check <==

  Measures of convergence in internal coordinates in au.
  Criteria marked as inactive (o), active & met (*), and active & unmet ( ).
  --------------------------------------------------------------------------------------------- ~
   Step     Total Energy     Delta E     MAX Force     RMS Force      MAX Disp      RMS Disp    ~
  --------------------------------------------------------------------------------------------- ~
    Convergence Criteria             o    2.50e-03 *    1.70e-03 *    1.00e-02 *    6.70e-03 *  ~
  --------------------------------------------------------------------------------------------- ~
      1    -233.57887690   -2.34e+02 o    1.50e-02      3.76e-03      8.74e-01      2.57e-01    ~
  ---------------------------------------------------------------------------------------------

	Writing optimization data to binary file.
	Structure for next step:
	Cartesian Geometry (in Angstrom)
	    O    -2.9132761785  -1.5212968753   0.8313624288
	    C    -0.2799901328  -0.0430450936  -0.1060122881
	    C     1.6796580374   0.2103781623   0.1567144086
	    C    -1.0578658824  -1.3352697975   1.1612228463
	    C     2.4909501703   1.5089570189  -1.1001777334
	    H    -0.8848489331   1.0618505432  -0.1807154686
	    H    -0.6298368084  -0.3862646353  -1.2144122391
	    H     2.3002299479  -0.8887563231   0.2534569854
	    H     1.9566403548   0.5449508787   1.2899826669
	    H    -0.5228346410  -2.4719122979   1.2441071493
	    H    -0.7118140099  -0.9990432926   2.2772471595
	    H     2.3126727609   1.1089392352  -2.2195448134
	    H     3.8725649956   1.6713761495  -0.7960043636
	    H     1.9645823853   2.6503992378  -1.2179239672
	    H    -3.5288221202  -1.2784943521   1.6066409486
			--------------------------
			 OPTKING Finished Execution 
			--------------------------

    Structure for next step:
    Molecular point group: c1
    Full point group: C1

    Geometry (in Angstrom), charge = 0, multiplicity = 1:

    O           -2.826495942958    -1.261826424061     0.619551147794
    C           -0.193209886988     0.216425363351    -0.317823572762
    C            1.766438290993     0.469848620274    -0.055096875102
    C           -0.971085639635    -1.075799345586     0.949411566586
    C            2.577730427001     1.768427482008    -1.311989021997
    H           -0.798068689584     1.321321004526    -0.392526753555
    H           -0.543056563912    -0.126794179657    -1.426223528162
    H            2.387010203867    -0.629285869392     0.041645702146
    H            2.043420609470     0.804421337989     1.078171387690
    H           -0.436054396090    -2.212441850433     1.032295869883
    H           -0.625033765707    -0.739572839309     2.065435884139
    H            2.399453016930     1.368409696729    -2.431356106454
    H            3.959345257817     1.930846613280    -1.007815650992
    H            2.051362639976     2.909869705387    -1.429735256319
    H           -3.442041887078    -1.019023899939     1.394829670610

gradient() will perform analytic gradient computation.

*** tstart() called on daniele-Precision-5750
*** at Thu May 27 10:58:25 2021

   => Loading Basis Set <=

    Name: 6-311G
    Role: ORBITAL
    Keyword: BASIS
    atoms 1    entry O          line   126 file /home/daniele/anaconda3/envs/poltype/share/psi4/basis/6-311g.gbs 
    atoms 2-5  entry C          line    92 file /home/daniele/anaconda3/envs/poltype/share/psi4/basis/6-311g.gbs 
    atoms 6-15 entry H          line    21 file /home/daniele/anaconda3/envs/poltype/share/psi4/basis/6-311g.gbs 


         ---------------------------------------------------------
                                   SCF
               by Justin Turney, Rob Parrish, Andy Simmonett
                          and Daniel G. A. Smith
                              RKS Reference
                        8 Threads,    667 MiB Core
         ---------------------------------------------------------

  ==> Geometry <==

    Molecular point group: c1
    Full point group: C1

    Geometry (in Angstrom), charge = 0, multiplicity = 1:

       Center              X                  Y                   Z               Mass       
    ------------   -----------------  -----------------  -----------------  -----------------
         O           -2.826495942958    -1.261826424061     0.619551147794    15.994914619570
         C           -0.193209886988     0.216425363351    -0.317823572762    12.000000000000
         C            1.766438290993     0.469848620274    -0.055096875102    12.000000000000
         C           -0.971085639635    -1.075799345586     0.949411566586    12.000000000000
         C            2.577730427001     1.768427482008    -1.311989021997    12.000000000000
         H           -0.798068689584     1.321321004526    -0.392526753555     1.007825032230
         H           -0.543056563912    -0.126794179657    -1.426223528162     1.007825032230
         H            2.387010203867    -0.629285869392     0.041645702146     1.007825032230
         H            2.043420609470     0.804421337989     1.078171387690     1.007825032230
         H           -0.436054396090    -2.212441850433     1.032295869883     1.007825032230
         H           -0.625033765707    -0.739572839309     2.065435884139     1.007825032230
         H            2.399453016930     1.368409696729    -2.431356106454     1.007825032230
         H            3.959345257817     1.930846613280    -1.007815650992     1.007825032230
         H            2.051362639976     2.909869705387    -1.429735256319     1.007825032230
         H           -3.442041887078    -1.019023899939     1.394829670610     1.007825032230

  Running in c1 symmetry.

  Rotational constants: A =      0.40858  B =      0.03883  C =      0.03656 [cm^-1]
  Rotational constants: A =  12248.91073  B =   1164.00578  C =   1096.18863 [MHz]
  Nuclear repulsion =  146.408089172162391

  Charge       = 0
  Multiplicity = 1
  Electrons    = 42
  Nalpha       = 21
  Nbeta        = 21

  ==> Algorithm <==

  SCF Algorithm Type is DF.
  DIIS enabled.
  MOM disabled.
  Fractional occupation disabled.
  Guess Type is READ.
  Energy threshold   = 1.00e-08
  Density threshold  = 1.00e-08
  Integral threshold = 0.00e+00

  ==> Primary Basis <==

  Basis Set: 6-311G
    Blend: 6-311G
    Number of shells: 65
    Number of basis function: 95
    Number of Cartesian functions: 95
    Spherical Harmonics?: true
    Max angular momentum: 1

  ==> DFT Potential <==

   => Composite Functional: WB97X-D <= 

    wB97X-D Hyb-GGA Exchange-Correlation Functional

    J.-D. Chai and M. Head-Gordon, Phys. Chem. Chem. Phys. 10, 6615 (2008)

    Deriv               =              1
    GGA                 =           TRUE
    Meta                =          FALSE

    Exchange Hybrid     =           TRUE
    MP2 Hybrid          =          FALSE

   => Exchange-Correlation Functionals <=

    1.0000   wB97D range-separated functional

   => Exact (HF) Exchange <=

    0.7780            HF,LR [omega = 0.2000]
    0.2220               HF 

   => Molecular Quadrature <=

    Radial Scheme          =       TREUTLER
    Pruning Scheme         =           FLAT
    Nuclear Scheme         =       TREUTLER

    BS radius alpha        =              1
    Pruning alpha          =              1
    Radial Points          =             75
    Spherical Points       =            302
    Total Points           =         336452
    Total Blocks           =           2581
    Max Points             =            256
    Max Functions          =             81

   => WB97X-D: Empirical Dispersion <=

    Chai and Head-Gordon Dispersion Correction
    Chai, J.-D.; Head-Gordon, M. (2010), J. Chem. Phys., 132: 6615-6620

        s6 =       1.000000

   => Loading Basis Set <=

    Name: (6-311G AUX)
    Role: JKFIT
    Keyword: DF_BASIS_SCF
    atoms 1    entry O          line   229 file /home/daniele/anaconda3/envs/poltype/share/psi4/basis/cc-pvtz-jkfit.gbs 
    atoms 2-5  entry C          line   125 file /home/daniele/anaconda3/envs/poltype/share/psi4/basis/cc-pvtz-jkfit.gbs 
    atoms 6-15 entry H          line    51 file /home/daniele/anaconda3/envs/poltype/share/psi4/basis/cc-pvtz-jkfit.gbs 

   => Loading Basis Set <=

    Name: 6-311G
    Role: ORBITAL
    Keyword: BASIS
    atoms 1    entry O          line   126 file /home/daniele/anaconda3/envs/poltype/share/psi4/basis/6-311g.gbs 
    atoms 2-5  entry C          line    92 file /home/daniele/anaconda3/envs/poltype/share/psi4/basis/6-311g.gbs 
    atoms 6-15 entry H          line    21 file /home/daniele/anaconda3/envs/poltype/share/psi4/basis/6-311g.gbs 

  Reading orbitals from file 180, no projection.

  ==> Pre-Iterations <==

   -------------------------------------------------------
    Irrep   Nso     Nmo     Nalpha   Nbeta   Ndocc  Nsocc
   -------------------------------------------------------
     A         95      95       0       0       0       0
   -------------------------------------------------------
    Total      95      95      21      21      21       0
   -------------------------------------------------------

  ==> Integral Setup <==

  ==> DiskDFJK: Density-Fitted J/K Matrices <==

    J tasked:                  Yes
    K tasked:                  Yes
    wK tasked:                 Yes
    Omega:               2.000E-01
    OpenMP threads:              8
    Integrals threads:           8
    Memory [MiB]:               32
    Algorithm:                Disk
    Integral Cache:           NONE
    Schwarz Cutoff:          1E-12
    Fitting Condition:       1E-10

   => Auxiliary Basis Set <=

  Basis Set: (6-311G AUX)
    Blend: CC-PVTZ-JKFIT
    Number of shells: 225
    Number of basis function: 695
    Number of Cartesian functions: 830
    Spherical Harmonics?: true
    Max angular momentum: 4

  Cached 100.0% of DFT collocation blocks in 0.578 [GiB].

  Minimum eigenvalue in the overlap matrix is 1.5146376230E-02.
  Using Symmetric Orthogonalization.

  SCF Guess: Orbitals guess was supplied from a previous computation.

  ==> Iterations <==

                           Total Energy        Delta E     RMS |[F,P]|

   @DF-RKS iter   0:  -231.84955622704146   -2.31850e+02   1.18940e-02 
   @DF-RKS iter   1:  -233.06222991962971   -1.21267e+00   3.83741e-03 DIIS
   @DF-RKS iter   2:  -233.12572940714185   -6.34995e-02   3.26744e-03 DIIS
   @DF-RKS iter   3:  -233.18368367352750   -5.79543e-02   6.62693e-04 DIIS
   @DF-RKS iter   4:  -233.18617994204527   -2.49627e-03   5.81128e-04 DIIS
   @DF-RKS iter   5:  -233.18795809703417   -1.77815e-03   1.01827e-04 DIIS
   @DF-RKS iter   6:  -233.18813519731793   -1.77100e-04   6.07624e-05 DIIS
   @DF-RKS iter   7:  -233.18817662833462   -4.14310e-05   1.95323e-05 DIIS
   @DF-RKS iter   8:  -233.18818847401002   -1.18457e-05   9.61809e-06 DIIS
   @DF-RKS iter   9:  -233.18818947213936   -9.98129e-07   3.51933e-06 DIIS
   @DF-RKS iter  10:  -233.18818968213543   -2.09996e-07   4.85334e-07 DIIS
   @DF-RKS iter  11:  -233.18818968776884   -5.63341e-09   3.04580e-07 DIIS
   @DF-RKS iter  12:  -233.18818968849689   -7.28051e-10   1.07252e-07 DIIS
   @DF-RKS iter  13:  -233.18818968861956   -1.22668e-10   1.75013e-08 DIIS
   @DF-RKS iter  14:  -233.18818968862439   -4.83169e-12   5.89054e-09 DIIS
  Energy and wave function converged.


  ==> Post-Iterations <==

    Orbital Energies [Eh]
    ---------------------

    Doubly Occupied:                                                      

       1A    -19.236764     2A    -10.409672     3A    -10.379417  
       4A    -10.378116     5A    -10.368146     6A     -1.027763  
       7A     -0.791939     8A     -0.760087     9A     -0.714261  
      10A     -0.683788    11A     -0.517630    12A     -0.478957  
      13A     -0.462507    14A     -0.454473    15A     -0.442355  
      16A     -0.425124    17A     -0.423098    18A     -0.413740  
      19A     -0.396060    20A     -0.374723    21A     -0.343264  

    Virtual:                                                              

      22A      0.009451    23A      0.066263    24A      0.087094  
      25A      0.090859    26A      0.100240    27A      0.131669  
      28A      0.144492    29A      0.147787    30A      0.161644  
      31A      0.171684    32A      0.178362    33A      0.182726  
      34A      0.188005    35A      0.192354    36A      0.303412  
      37A      0.343848    38A      0.354992    39A      0.415585  
      40A      0.427126    41A      0.436056    42A      0.464124  
      43A      0.478361    44A      0.489665    45A      0.511956  
      46A      0.522652    47A      0.543249    48A      0.574337  
      49A      0.601583    50A      0.623163    51A      0.634839  
      52A      0.640304    53A      0.648871    54A      0.650322  
      55A      0.675957    56A      0.723717    57A      0.767166  
      58A      0.806468    59A      0.918867    60A      0.962381  
      61A      0.984594    62A      0.987871    63A      1.088426  
      64A      1.095198    65A      1.371877    66A      2.276021  
      67A      2.296128    68A      2.307995    69A      2.340793  
      70A      2.345940    71A      2.358839    72A      2.364750  
      73A      2.396614    74A      2.405673    75A      2.429476  
      76A      2.573499    77A      2.584498    78A      2.695166  
      79A      2.830660    80A      2.870282    81A      2.884770  
      82A      2.894846    83A      2.912163    84A      2.996810  
      85A      3.079446    86A      3.094304    87A      3.098228  
      88A      4.932852    89A      4.976410    90A      5.091958  
      91A     23.363526    92A     23.405352    93A     23.427029  
      94A     23.458566    95A     49.872183  

    Final Occupation by Irrep:
              A 
    DOCC [    21 ]

  @DF-RKS Final Energy:  -233.18818968862439

   => Energetics <=

    Nuclear Repulsion Energy =            146.4080891721623914
    One-Electron Energy =                -605.0304214734835568
    Two-Electron Energy =                 247.8959516419468514
    DFT Exchange-Correlation Energy =     -22.4559217022155799
    Empirical Dispersion Energy =          -0.0058873270344556
    VV10 Nonlocal Energy =                  0.0000000000000000
    Total Energy =                       -233.1881896886243908

Computation Completed


Properties will be evaluated at   0.000000,   0.000000,   0.000000 [a0]

Properties computed using the SCF density matrix

  Nuclear Dipole Moment: [e a0]
     X:     6.5453      Y:     3.3761      Z:    -1.0051

  Electronic Dipole Moment: [e a0]
     X:    -5.8627      Y:    -2.9635      Z:     1.5771

  Dipole Moment: [e a0]
     X:     0.6826      Y:     0.4126      Z:     0.5720     Total:     0.9815

  Dipole Moment: [D]
     X:     1.7350      Y:     1.0487      Z:     1.4539     Total:     2.4948


*** tstop() called on daniele-Precision-5750 at Thu May 27 10:58:28 2021
Module time:
	user time   =      28.91 seconds =       0.48 minutes
	system time =       0.39 seconds =       0.01 minutes
	total time  =          3 seconds =       0.05 minutes
Total time:
	user time   =      72.29 seconds =       1.20 minutes
	system time =       1.29 seconds =       0.02 minutes
	total time  =          9 seconds =       0.15 minutes

*** tstart() called on daniele-Precision-5750
*** at Thu May 27 10:58:28 2021


         ------------------------------------------------------------
                                   SCF GRAD                          
                          Rob Parrish, Justin Turney,                
                       Andy Simmonett, and Alex Sokolov              
         ------------------------------------------------------------

  ==> Geometry <==

    Molecular point group: c1
    Full point group: C1

    Geometry (in Angstrom), charge = 0, multiplicity = 1:

       Center              X                  Y                   Z               Mass       
    ------------   -----------------  -----------------  -----------------  -----------------
         O           -2.826495942958    -1.261826424061     0.619551147794    15.994914619570
         C           -0.193209886988     0.216425363351    -0.317823572762    12.000000000000
         C            1.766438290993     0.469848620274    -0.055096875102    12.000000000000
         C           -0.971085639635    -1.075799345586     0.949411566586    12.000000000000
         C            2.577730427001     1.768427482008    -1.311989021997    12.000000000000
         H           -0.798068689584     1.321321004526    -0.392526753555     1.007825032230
         H           -0.543056563912    -0.126794179657    -1.426223528162     1.007825032230
         H            2.387010203867    -0.629285869392     0.041645702146     1.007825032230
         H            2.043420609470     0.804421337989     1.078171387690     1.007825032230
         H           -0.436054396090    -2.212441850433     1.032295869883     1.007825032230
         H           -0.625033765707    -0.739572839309     2.065435884139     1.007825032230
         H            2.399453016930     1.368409696729    -2.431356106454     1.007825032230
         H            3.959345257817     1.930846613280    -1.007815650992     1.007825032230
         H            2.051362639976     2.909869705387    -1.429735256319     1.007825032230
         H           -3.442041887078    -1.019023899939     1.394829670610     1.007825032230

  Nuclear repulsion =  146.408089172162391

  ==> Basis Set <==

  Basis Set: 6-311G
    Blend: 6-311G
    Number of shells: 65
    Number of basis function: 95
    Number of Cartesian functions: 95
    Spherical Harmonics?: true
    Max angular momentum: 1

  ==> DFJKGrad: Density-Fitted SCF Gradients <==

    Gradient:                    1
    J tasked:                  Yes
    K tasked:                  Yes
    wK tasked:                 Yes
    Omega:               2.000E-01
    OpenMP threads:              8
    Integrals threads:           8
    Memory [MiB]:              500
    Schwarz Cutoff:          0E+00
    Fitting Condition:       1E-10

   => Auxiliary Basis Set <=

  Basis Set: (6-311G AUX)
    Blend: CC-PVTZ-JKFIT
    Number of shells: 225
    Number of basis function: 695
    Number of Cartesian functions: 830
    Spherical Harmonics?: true
    Max angular momentum: 4

  ==> DFT Potential <==

   => Composite Functional: WB97X-D <= 

    wB97X-D Hyb-GGA Exchange-Correlation Functional

    J.-D. Chai and M. Head-Gordon, Phys. Chem. Chem. Phys. 10, 6615 (2008)

    Deriv               =              1
    GGA                 =           TRUE
    Meta                =          FALSE

    Exchange Hybrid     =           TRUE
    MP2 Hybrid          =          FALSE

   => Exchange-Correlation Functionals <=

    1.0000   wB97D range-separated functional

   => Exact (HF) Exchange <=

    0.7780            HF,LR [omega = 0.2000]
    0.2220               HF 

   => Molecular Quadrature <=

    Radial Scheme          =       TREUTLER
    Pruning Scheme         =           FLAT
    Nuclear Scheme         =       TREUTLER

    BS radius alpha        =              1
    Pruning alpha          =              1
    Radial Points          =             75
    Spherical Points       =            302
    Total Points           =         336452
    Total Blocks           =           2581
    Max Points             =            256
    Max Functions          =             81


  -Total Gradient:
     Atom            X                  Y                   Z
    ------   -----------------  -----------------  -----------------
       1       -0.058949724589    -0.009447640087    -0.023181550519
       2        0.017199165877    -0.003878838442     0.014545580984
       3       -0.008688783421     0.004588863148    -0.016177420726
       4       -0.020029507000    -0.004906648850    -0.017828374498
       5       -0.010902361170    -0.002032606124     0.004137567405
       6       -0.036235937662     0.056283525193    -0.028115896682
       7       -0.031893428876     0.001259320051    -0.050699040120
       8        0.037489463214    -0.055248865600     0.028767166721
       9        0.027114329041    -0.001867317403     0.052303455067
      10        0.038305173739    -0.056461538973     0.029762096924
      11        0.034200008493    -0.001647670442     0.048349445208
      12       -0.016722031931    -0.006420905970    -0.052446947734
      13        0.091831559823     0.013611968423     0.019564881896
      14       -0.025948067604     0.063101163609    -0.025220952323
      15       -0.036589172099     0.002983079260     0.016267511939


*** tstop() called on daniele-Precision-5750 at Thu May 27 10:58:30 2021
Module time:
	user time   =      12.87 seconds =       0.21 minutes
	system time =       0.14 seconds =       0.00 minutes
	total time  =          2 seconds =       0.03 minutes
Total time:
	user time   =      85.16 seconds =       1.42 minutes
	system time =       1.43 seconds =       0.02 minutes
	total time  =         11 seconds =       0.18 minutes

			-----------------------------------------
			 OPTKING 2.0: for geometry optimizations 
			  - R.A. King,  Bethel University        
			-----------------------------------------
	At level 1: Red. Int., RFO, no backsteps, dynamic trust

	Previous internal coordinate definitions found.
	---Fragment 1 Geometry and Gradient---
	 O          -5.3413032269       -2.3845063593        1.1707819900
	 C          -0.3651137711        0.4089846633       -0.6005995087
	 C           3.3380845875        0.8878852127       -0.1041180043
	 C          -1.8350859033       -2.0329661291        1.7941278412
	 C           4.8712045323        3.3418436137       -2.4792999312
	 H          -1.5081312526        2.4969348224       -0.7417680611
	 H          -1.0262281764       -0.2396062739       -2.6951718619
	 H           4.5107955440       -1.1891779478        0.0786989714
	 H           3.8615053110        1.5201360183        2.0374486390
	 H          -0.8240233844       -4.1809091658        1.9507564745
	 H          -1.1811426363       -1.3975901161        3.9031081507
	 H           4.5343090529        2.5859195542       -4.5945971547
	 H           7.4820781734        3.6487712894       -1.9044955653
	 H           3.8765135736        5.4988568039       -2.7018080664
	 H          -6.5045164789       -1.9256760862        2.6358460691
	            -0.0589497246       -0.0094476401       -0.0231815505
	             0.0171991659       -0.0038788384        0.0145455810
	            -0.0086887834        0.0045888631       -0.0161774207
	            -0.0200295070       -0.0049066489       -0.0178283745
	            -0.0109023612       -0.0020326061        0.0041375674
	            -0.0362359377        0.0562835252       -0.0281158967
	            -0.0318934289        0.0012593201       -0.0506990401
	             0.0374894632       -0.0552488656        0.0287671667
	             0.0271143290       -0.0018673174        0.0523034551
	             0.0383051737       -0.0564615390        0.0297620969
	             0.0342000085       -0.0016476704        0.0483494452
	            -0.0167220319       -0.0064209060       -0.0524469477
	             0.0918315598        0.0136119684        0.0195648819
	            -0.0259480676        0.0631011636       -0.0252209523
	            -0.0365891721        0.0029830793        0.0162675119

	---Fragment 1 Intrafragment Coordinates---
	 - Coordinate -           - BOHR/RAD -       - ANG/DEG -
	 R(1,4)           =         3.578505	       1.893663
	 R(1,15)          =         1.926137	       1.019268
	 R(2,3)           =         3.766898	       1.993356
	 R(2,4)           =         3.722722	       1.969980
	 R(2,6)           =         2.384524	       1.261836
	 R(2,7)           =         2.290191	       1.211917
	 R(3,5)           =         3.743509	       1.980980
	 R(3,8)           =         2.392251	       1.265925
	 R(3,9)           =         2.293473	       1.213654
	 R(4,10)          =         2.379168	       1.259001
	 R(4,11)          =         2.297638	       1.215858
	 R(5,12)          =         2.271432	       1.201990
	 R(5,13)          =         2.690960	       1.423995
	 R(5,14)          =         2.385713	       1.262465
	 B(1,4,2)         =         1.916942	     109.832686
	 B(1,4,10)        =         1.916819	     109.825619
	 B(1,4,11)        =         2.055471	     117.769822
	 B(2,3,5)         =         1.984856	     113.723890
	 B(2,3,8)         =         1.962335	     112.433536
	 B(2,3,9)         =         1.963277	     112.487480
	 B(2,4,10)        =         2.056412	     117.823718
	 B(2,4,11)        =         1.872005	     107.257983
	 B(3,2,4)         =         1.967953	     112.755407
	 B(3,2,6)         =         1.947356	     111.575293
	 B(3,2,7)         =         2.026772	     116.125492
	 B(3,5,12)        =         1.888061	     108.177911
	 B(3,5,13)        =         1.914092	     109.669383
	 B(3,5,14)        =         2.072713	     118.757735
	 B(4,1,15)        =         2.021740	     115.837178
	 B(4,2,6)         =         2.007748	     115.035469
	 B(4,2,7)         =         1.863530	     106.772422
	 B(5,3,8)         =         2.000808	     114.637845
	 B(5,3,9)         =         1.894710	     108.558870
	 B(6,2,7)         =         1.626286	      93.179303
	 B(8,3,9)         =         1.626943	      93.216952
	 B(10,4,11)       =         1.639129	      93.915169
	 B(12,5,13)       =         1.961442	     112.382349
	 B(12,5,14)       =         1.723588	      98.754346
	 B(13,5,14)       =         1.897925	     108.743104
	*D(1,4,2,3)       =        -3.134695	    -179.604806
	 D(1,4,2,6)       =         0.888366	      50.899620
	 D(1,4,2,7)       =        -0.888588	     -50.912354
	*D(2,3,5,12)      =        -1.045241	     -59.887870
	 D(2,3,5,13)      =         3.093151	     177.224487
	 D(2,3,5,14)      =         0.896967	      51.392434
	*D(2,4,1,15)      =        -2.094813	    -120.023933
	 D(3,2,4,10)      =        -0.922865	     -52.876265
	 D(3,2,4,11)      =         0.895247	      51.293892
	*D(4,2,3,5)       =        -3.138676	    -179.832892
	 D(4,2,3,8)       =         0.833995	      47.784391
	 D(4,2,3,9)       =        -0.975679	     -55.902278
	 D(5,3,2,6)       =        -0.847947	     -48.583791
	 D(5,3,2,7)       =         0.986247	      56.507818
	 D(6,2,3,8)       =         3.124724	     179.033492
	 D(6,2,3,9)       =         1.315050	      75.346823
	 D(6,2,4,10)      =         3.100196	     177.628161
	 D(6,2,4,11)      =        -1.364877	     -78.201682
	 D(7,2,3,8)       =        -1.324267	     -75.874899
	 D(7,2,3,9)       =        -3.133941	    -179.561568
	 D(7,2,4,10)      =         1.323242	      75.816187
	 D(7,2,4,11)      =         3.141354	     179.986344
	 D(8,3,5,12)      =         1.246561	      71.422697
	 D(8,3,5,13)      =        -0.898233	     -51.464946
	 D(8,3,5,14)      =        -3.094416	    -177.296999
	 D(9,3,5,12)      =         3.038255	     174.079188
	 D(9,3,5,13)      =         0.893461	      51.191545
	 D(9,3,5,14)      =        -1.302723	     -74.640508
	 D(10,4,1,15)     =         1.900114	     108.868485
	 D(11,4,1,15)     =         0.053981	       3.092863

	Current energy   :      -233.1881896886

	Energy change for the previous step:
		Projected    :        -0.0038947214
		Actual       :         0.3906872065

	Performing BFGS update.
	Previous computed or guess Hessian on step 1.
	Steps to be used in Hessian update: 1
	Taking RFO optimization step.
	Going to follow RFO solution 1.
	Using RFO vector 1.

	Determining step-restricting scale parameter for RS-RFO.
	Maximum step size allowed    0.50000

	 Iter      |step|        alpha        rfo_root  
	------------------------------------------------
	    0     0.77883       1.00000           1
	    1     0.59856       1.92337           1
	    2     0.52000       2.68491           1
	    3     0.50114       2.92658           1
	    4     0.50000       2.94205           1
	------------------------------------------------
	Norm of target step-size    0.50000
	Projected energy change by RFO approximation:        -0.1166593521

	Back-transformation to cartesian coordinates...
	Could not converge backtransformation.
	Using first guess instead.

	Back-transformation to cartesian coordinates to adjust frozen coordinates...
	Successfully converged to displaced geometry.

	--- Internal Coordinate Step in ANG or DEG, aJ/ANG or AJ/DEG ---
	 ---------------------------------------------------------------------------
	   Coordinate                Previous        Force       Change         New 
	   ----------                --------       ------       ------       ------
	    1 R(1,4)          =      1.893663    -0.786705    -0.098496     1.795168
	    2 R(1,15)         =      1.019268    -0.289889    -0.020953     0.998315
	    3 R(2,3)          =      1.993356    -0.790749    -0.099361     1.893996
	    4 R(2,4)          =      1.969980    -0.798198    -0.098330     1.871650
	    5 R(2,6)          =      1.261836    -0.562958    -0.053737     1.208098
	    6 R(2,7)          =      1.211917    -0.454965    -0.041395     1.170522
	    7 R(3,5)          =      1.980980    -0.779658    -0.097431     1.883549
	    8 R(3,8)          =      1.265925    -0.564679    -0.054155     1.211770
	    9 R(3,9)          =      1.213654    -0.449108    -0.041115     1.172539
	   10 R(4,10)         =      1.259001    -0.570079    -0.053876     1.205125
	   11 R(4,11)         =      1.215858    -0.441983    -0.040562     1.175296
	   12 R(5,12)         =      1.201990    -0.440386    -0.039743     1.162247
	   13 R(5,13)         =      1.423995    -0.781265    -0.085477     1.338518
	   14 R(5,14)         =      1.262465    -0.578559    -0.054158     1.208307
	   15 B(1,4,2)        =    109.832686    -0.000132    -0.019570   109.813116
	   16 B(1,4,10)       =    109.825619    -0.000112    -0.159344   109.666276
	   17 B(1,4,11)       =    117.769822    -0.000657    -1.059832   116.709990
	   18 B(2,3,5)        =    113.723890     0.000084     0.099150   113.823040
	   19 B(2,3,8)        =    112.433536    -0.000194    -0.328229   112.105307
	   20 B(2,3,9)        =    112.487480    -0.000380    -0.567118   111.920362
	   21 B(2,4,10)       =    117.823718    -0.000554    -1.045888   116.777830
	   22 B(2,4,11)       =    107.257983     0.000180     0.233610   107.491593
	   23 B(3,2,4)        =    112.755407     0.000066     0.228523   112.983930
	   24 B(3,2,6)        =    111.575293     0.000009    -0.040611   111.534681
	   25 B(3,2,7)        =    116.125492    -0.000616    -1.013706   115.111786
	   26 B(3,5,12)       =    108.177911    -0.000234    -0.101496   108.076415
	   27 B(3,5,13)       =    109.669383     0.000002     0.187290   109.856673
	   28 B(3,5,14)       =    118.757735    -0.001703    -2.334020   116.423715
	   29 B(4,1,15)       =    115.837178    -0.002835    -3.041907   112.795272
	   30 B(4,2,6)        =    115.035469    -0.000602    -1.010321   114.025147
	   31 B(4,2,7)        =    106.772422     0.000209     0.288400   107.060822
	   32 B(5,3,8)        =    114.637845    -0.000463    -0.721919   113.915926
	   33 B(5,3,9)        =    108.558870     0.000067     0.111425   108.670295
	   34 B(6,2,7)        =     93.179303     0.001025     1.672662    94.851965
	   35 B(8,3,9)        =     93.216952     0.001025     1.632047    94.848998
	   36 B(10,4,11)      =     93.915169     0.001382     2.161597    96.076766
	   37 B(12,5,13)      =    112.382349     0.000070    -0.142579   112.239770
	   38 B(12,5,14)      =     98.754346     0.001311     1.785196   100.539542
	   39 B(13,5,14)      =    108.743104     0.000670     0.707023   109.450127
	   40 *D(1,4,2,3)     =   -179.604806    -0.000000     0.000000  -179.604806
	   41 D(1,4,2,6)      =     50.899620     0.000111     0.769391    51.669011
	   42 D(1,4,2,7)      =    -50.912354    -0.000136    -0.931601   -51.843954
	   43 *D(2,3,5,12)    =    -59.887870     0.000000     0.000000   -59.887870
	   44 D(2,3,5,13)     =    177.224487     0.000014     0.123961   177.348448
	   45 D(2,3,5,14)     =     51.392434     0.000123     0.870748    52.263182
	   46 *D(2,4,1,15)    =   -120.023933     0.000000     0.000000  -120.023933
	   47 D(3,2,4,10)     =    -52.876265    -0.000172    -1.101813   -53.978078
	   48 D(3,2,4,11)     =     51.293892     0.000183     1.188877    52.482769
	   49 *D(4,2,3,5)     =   -179.832892     0.000000     0.000000  -179.832892
	   50 D(4,2,3,8)      =     47.784391     0.000179     1.261967    49.046359
	   51 D(4,2,3,9)      =    -55.902278    -0.000034    -0.227773   -56.130051
	   52 D(5,3,2,6)      =    -48.583791    -0.000178    -1.247863   -49.831654
	   53 D(5,3,2,7)      =     56.507818     0.000037     0.241385    56.749204
	   54 D(6,2,3,8)      =    179.033492     0.000001     0.014104   179.047596
	   55 D(6,2,3,9)      =     75.346823    -0.000213    -1.475636    73.871187
	   56 D(6,2,4,10)     =    177.628161    -0.000061    -0.332423   177.295738
	   57 D(6,2,4,11)     =    -78.201682     0.000293     1.958267   -76.243414
	   58 D(7,2,3,8)      =    -75.874899     0.000217     1.503353   -74.371546
	   59 D(7,2,3,9)      =   -179.561568     0.000003     0.013612  -179.547956
	   60 D(7,2,4,10)     =     75.816187    -0.000307    -2.033414    73.782773
	   61 D(7,2,4,11)     =    179.986344     0.000047     0.257276   180.243620
	   62 D(8,3,5,12)     =     71.422697    -0.000152    -1.084713    70.337984
	   63 D(8,3,5,13)     =    -51.464946    -0.000138    -0.960752   -52.425698
	   64 D(8,3,5,14)     =   -177.296999    -0.000028    -0.213965  -177.510964
	   65 D(9,3,5,12)     =    174.079188     0.000088     0.585835   174.665023
	   66 D(9,3,5,13)     =     51.191545     0.000103     0.709796    51.901341
	   67 D(9,3,5,14)     =    -74.640508     0.000212     1.456583   -73.183925
	   68 D(10,4,1,15)    =    108.868485     0.000213     1.516481   110.384966
	   69 D(11,4,1,15)    =      3.092863    -0.000086    -0.506530     2.586333
	 ---------------------------------------------------------------------------
	Successfully symmetrized geometry.

  ==> Convergence Check <==

  Measures of convergence in internal coordinates in au.
  Criteria marked as inactive (o), active & met (*), and active & unmet ( ).
  ---------------------------------------------------------------------------------------------
   Step     Total Energy     Delta E     MAX Force     RMS Force      MAX Disp      RMS Disp   
  ---------------------------------------------------------------------------------------------
    Convergence Criteria             o    2.50e-03 *    1.70e-03 *    1.00e-02 *    6.70e-03 *
  ---------------------------------------------------------------------------------------------
      2    -233.18818969    3.91e-01 o    9.69e-02      3.47e-02      1.88e-01      6.02e-02    ~
  ---------------------------------------------------------------------------------------------

	Writing optimization data to binary file.
	Structure for next step:
	Cartesian Geometry (in Angstrom)
	    O    -2.6586792589  -1.1874328051   0.5699556172
	    C    -0.1554041002   0.2132730116  -0.3104141101
	    C     1.7050249162   0.4604002414  -0.0555579190
	    C    -0.9018856713  -1.0098701031   0.8936449448
	    C     2.4799988690   1.6911891260  -1.2523581942
	    H    -0.7397186041   1.2692808029  -0.3645019611
	    H    -0.4684991087  -0.1282895335  -1.3853223697
	    H     2.2990293046  -0.5931784541   0.0187162496
	    H     1.9563116786   0.7933247442   1.0402811837
	    H    -0.3879052430  -2.0984100602   0.9504896045
	    H    -0.5958663532  -0.6710770171   1.9766462610
	    H     2.3123601917   1.2977679896  -2.3330684118
	    H     3.7780799101   1.8480759796  -0.9659995804
	    H     1.9506224883   2.7747901100  -1.3270239741
	    H    -3.2237553737  -0.9350186315   1.3532871278
			--------------------------
			 OPTKING Finished Execution 
			--------------------------

    Structure for next step:
    Molecular point group: c1
    Full point group: C1

    Geometry (in Angstrom), charge = 0, multiplicity = 1:

    O           -2.684896060512    -1.198936606433     0.578385641221
    C           -0.181620891918     0.201769215751    -0.301984089500
    C            1.678808131768     0.448896446499    -0.047127897414
    C           -0.928102465958    -1.021373903788     0.902074970103
    C            2.453782087653     1.679685335911    -1.243928177366
    H           -0.765935398161     1.257777011211    -0.356071940723
    H           -0.494715901666    -0.139793330726    -1.376892353325
    H            2.272812522482    -0.604682253146     0.027146271455
    H            1.930094895181     0.781820950603     1.048711209578
    H           -0.414122035668    -2.109913865140     0.958919630034
    H           -0.622083146633    -0.682580816470     1.985076290534
    H            2.286143409641     1.286264198049    -2.324638399229
    H            3.751863133791     1.836572190168    -0.957569562434
    H            1.924405704880     2.763286324189    -1.318593957509
    H           -3.249972177513    -0.946522431910     1.361717154926

gradient() will perform analytic gradient computation.

*** tstart() called on daniele-Precision-5750
*** at Thu May 27 10:58:30 2021

   => Loading Basis Set <=

    Name: 6-311G
    Role: ORBITAL
    Keyword: BASIS
    atoms 1    entry O          line   126 file /home/daniele/anaconda3/envs/poltype/share/psi4/basis/6-311g.gbs 
    atoms 2-5  entry C          line    92 file /home/daniele/anaconda3/envs/poltype/share/psi4/basis/6-311g.gbs 
    atoms 6-15 entry H          line    21 file /home/daniele/anaconda3/envs/poltype/share/psi4/basis/6-311g.gbs 


         ---------------------------------------------------------
                                   SCF
               by Justin Turney, Rob Parrish, Andy Simmonett
                          and Daniel G. A. Smith
                              RKS Reference
                        8 Threads,    667 MiB Core
         ---------------------------------------------------------

  ==> Geometry <==

    Molecular point group: c1
    Full point group: C1

    Geometry (in Angstrom), charge = 0, multiplicity = 1:

       Center              X                  Y                   Z               Mass       
    ------------   -----------------  -----------------  -----------------  -----------------
         O           -2.684896060512    -1.198936606433     0.578385641221    15.994914619570
         C           -0.181620891918     0.201769215751    -0.301984089500    12.000000000000
         C            1.678808131768     0.448896446499    -0.047127897414    12.000000000000
         C           -0.928102465958    -1.021373903788     0.902074970103    12.000000000000
         C            2.453782087653     1.679685335911    -1.243928177366    12.000000000000
         H           -0.765935398161     1.257777011211    -0.356071940723     1.007825032230
         H           -0.494715901666    -0.139793330726    -1.376892353325     1.007825032230
         H            2.272812522482    -0.604682253146     0.027146271455     1.007825032230
         H            1.930094895181     0.781820950603     1.048711209578     1.007825032230
         H           -0.414122035668    -2.109913865140     0.958919630034     1.007825032230
         H           -0.622083146633    -0.682580816470     1.985076290534     1.007825032230
         H            2.286143409641     1.286264198049    -2.324638399229     1.007825032230
         H            3.751863133791     1.836572190168    -0.957569562434     1.007825032230
         H            1.924405704880     2.763286324189    -1.318593957509     1.007825032230
         H           -3.249972177513    -0.946522431910     1.361717154926     1.007825032230

  Running in c1 symmetry.

  Rotational constants: A =      0.44938  B =      0.04300  C =      0.04055 [cm^-1]
  Rotational constants: A =  13472.09175  B =   1289.13049  C =   1215.65247 [MHz]
  Nuclear repulsion =  153.698263129024554

  Charge       = 0
  Multiplicity = 1
  Electrons    = 42
  Nalpha       = 21
  Nbeta        = 21

  ==> Algorithm <==

  SCF Algorithm Type is DF.
  DIIS enabled.
  MOM disabled.
  Fractional occupation disabled.
  Guess Type is READ.
  Energy threshold   = 1.00e-08
  Density threshold  = 1.00e-08
  Integral threshold = 0.00e+00

  ==> Primary Basis <==

  Basis Set: 6-311G
    Blend: 6-311G
    Number of shells: 65
    Number of basis function: 95
    Number of Cartesian functions: 95
    Spherical Harmonics?: true
    Max angular momentum: 1

  ==> DFT Potential <==

   => Composite Functional: WB97X-D <= 

    wB97X-D Hyb-GGA Exchange-Correlation Functional

    J.-D. Chai and M. Head-Gordon, Phys. Chem. Chem. Phys. 10, 6615 (2008)

    Deriv               =              1
    GGA                 =           TRUE
    Meta                =          FALSE

    Exchange Hybrid     =           TRUE
    MP2 Hybrid          =          FALSE

   => Exchange-Correlation Functionals <=

    1.0000   wB97D range-separated functional

   => Exact (HF) Exchange <=

    0.7780            HF,LR [omega = 0.2000]
    0.2220               HF 

   => Molecular Quadrature <=

    Radial Scheme          =       TREUTLER
    Pruning Scheme         =           FLAT
    Nuclear Scheme         =       TREUTLER

    BS radius alpha        =              1
    Pruning alpha          =              1
    Radial Points          =             75
    Spherical Points       =            302
    Total Points           =         336356
    Total Blocks           =           2575
    Max Points             =            256
    Max Functions          =             82

   => WB97X-D: Empirical Dispersion <=

    Chai and Head-Gordon Dispersion Correction
    Chai, J.-D.; Head-Gordon, M. (2010), J. Chem. Phys., 132: 6615-6620

        s6 =       1.000000

   => Loading Basis Set <=

    Name: (6-311G AUX)
    Role: JKFIT
    Keyword: DF_BASIS_SCF
    atoms 1    entry O          line   229 file /home/daniele/anaconda3/envs/poltype/share/psi4/basis/cc-pvtz-jkfit.gbs 
    atoms 2-5  entry C          line   125 file /home/daniele/anaconda3/envs/poltype/share/psi4/basis/cc-pvtz-jkfit.gbs 
    atoms 6-15 entry H          line    51 file /home/daniele/anaconda3/envs/poltype/share/psi4/basis/cc-pvtz-jkfit.gbs 

   => Loading Basis Set <=

    Name: 6-311G
    Role: ORBITAL
    Keyword: BASIS
    atoms 1    entry O          line   126 file /home/daniele/anaconda3/envs/poltype/share/psi4/basis/6-311g.gbs 
    atoms 2-5  entry C          line    92 file /home/daniele/anaconda3/envs/poltype/share/psi4/basis/6-311g.gbs 
    atoms 6-15 entry H          line    21 file /home/daniele/anaconda3/envs/poltype/share/psi4/basis/6-311g.gbs 

  Reading orbitals from file 180, no projection.

  ==> Pre-Iterations <==

   -------------------------------------------------------
    Irrep   Nso     Nmo     Nalpha   Nbeta   Ndocc  Nsocc
   -------------------------------------------------------
     A         95      95       0       0       0       0
   -------------------------------------------------------
    Total      95      95      21      21      21       0
   -------------------------------------------------------

  ==> Integral Setup <==

  ==> DiskDFJK: Density-Fitted J/K Matrices <==

    J tasked:                  Yes
    K tasked:                  Yes
    wK tasked:                 Yes
    Omega:               2.000E-01
    OpenMP threads:              8
    Integrals threads:           8
    Memory [MiB]:               33
    Algorithm:                Disk
    Integral Cache:           NONE
    Schwarz Cutoff:          1E-12
    Fitting Condition:       1E-10

   => Auxiliary Basis Set <=

  Basis Set: (6-311G AUX)
    Blend: CC-PVTZ-JKFIT
    Number of shells: 225
    Number of basis function: 695
    Number of Cartesian functions: 830
    Spherical Harmonics?: true
    Max angular momentum: 4

  Cached 100.0% of DFT collocation blocks in 0.592 [GiB].

  Minimum eigenvalue in the overlap matrix is 1.0764446690E-02.
  Using Symmetric Orthogonalization.

  SCF Guess: Orbitals guess was supplied from a previous computation.

  ==> Iterations <==

                           Total Energy        Delta E     RMS |[F,P]|

   @DF-RKS iter   0:  -233.52317758591334   -2.33523e+02   1.64261e-03 
   @DF-RKS iter   1:  -233.32193607878145    2.01242e-01   5.89667e-04 DIIS
   @DF-RKS iter   2:  -233.32271483855760   -7.78760e-04   5.65115e-04 DIIS
   @DF-RKS iter   3:  -233.32419574254530   -1.48090e-03   1.26489e-04 DIIS
   @DF-RKS iter   4:  -233.32424270172544   -4.69592e-05   4.91245e-05 DIIS
   @DF-RKS iter   5:  -233.32425382218204   -1.11205e-05   6.68990e-06 DIIS
   @DF-RKS iter   6:  -233.32425443075070   -6.08569e-07   2.61802e-06 DIIS
   @DF-RKS iter   7:  -233.32425448148012   -5.07294e-08   9.35255e-07 DIIS
   @DF-RKS iter   8:  -233.32425449144782   -9.96769e-09   1.59700e-07 DIIS
   @DF-RKS iter   9:  -233.32425449175210   -3.04283e-10   1.05403e-07 DIIS
   @DF-RKS iter  10:  -233.32425449181397   -6.18741e-11   1.24279e-08 DIIS
   @DF-RKS iter  11:  -233.32425449181602   -2.04636e-12   4.01312e-09 DIIS
  Energy and wave function converged.


  ==> Post-Iterations <==

    Orbital Energies [Eh]
    ---------------------

    Doubly Occupied:                                                      

       1A    -19.237965     2A    -10.393322     3A    -10.357958  
       4A    -10.356155     5A    -10.345783     6A     -1.043819  
       7A     -0.810867     8A     -0.773398     9A     -0.720352  
      10A     -0.686986    11A     -0.533417    12A     -0.493797  
      13A     -0.472995    14A     -0.467434    15A     -0.451714  
      16A     -0.433148    17A     -0.426716    18A     -0.416536  
      19A     -0.402301    20A     -0.386035    21A     -0.346924  

    Virtual:                                                              

      22A      0.045221    23A      0.091697    24A      0.107347  
      25A      0.118667    26A      0.125991    27A      0.146726  
      28A      0.155898    29A      0.167248    30A      0.172469  
      31A      0.184205    32A      0.196151    33A      0.201029  
      34A      0.208139    35A      0.211030    36A      0.319399  
      37A      0.349221    38A      0.366414    39A      0.425550  
      40A      0.435951    41A      0.455927    42A      0.480822  
      43A      0.485414    44A      0.512173    45A      0.523570  
      46A      0.533880    47A      0.552696    48A      0.575130  
      49A      0.604151    50A      0.636003    51A      0.651630  
      52A      0.658628    53A      0.666389    54A      0.668848  
[...]

    Deriv               =              1
    GGA                 =           TRUE
    Meta                =          FALSE

    Exchange Hybrid     =           TRUE
    MP2 Hybrid          =          FALSE

   => Exchange-Correlation Functionals <=

    1.0000   wB97D range-separated functional

   => Exact (HF) Exchange <=

    0.7780            HF,LR [omega = 0.2000]
    0.2220               HF 

   => Molecular Quadrature <=

    Radial Scheme          =       TREUTLER
    Pruning Scheme         =           FLAT
    Nuclear Scheme         =       TREUTLER

    BS radius alpha        =              1
    Pruning alpha          =              1
    Radial Points          =             75
    Spherical Points       =            302
    Total Points           =         336080
    Total Blocks           =           2556
    Max Points             =            256
    Max Functions          =             89


  -Total Gradient:
     Atom            X                  Y                   Z
    ------   -----------------  -----------------  -----------------
       1        0.001890122540     0.000589242867     0.000075666366
       2        0.001120813920    -0.000799475013    -0.000799006207
       3       -0.000894443092     0.000717438188     0.000136619580
       4       -0.002636767066    -0.000320830558    -0.000124558556
       5       -0.000145156815    -0.000268017148    -0.000100684910
       6       -0.000606376101     0.000945455964     0.000243648391
       7       -0.000126408606    -0.000353410143    -0.001184959139
       8        0.000532263106    -0.000958134374    -0.000194225119
       9        0.000130128569     0.000385354060     0.001024333733
      10        0.000298245096    -0.001160506757    -0.000137305719
      11       -0.000205034668     0.000171989025     0.001233989078
      12        0.000181906408    -0.000139817108    -0.000713924773
      13        0.000913665353     0.000224179324     0.000068579337
      14       -0.000308194595     0.000910105897     0.000038880711
      15       -0.000224800708     0.000043597494     0.000495773429


*** tstop() called on daniele-Precision-5750 at Thu May 27 10:58:55 2021
Module time:
	user time   =      13.68 seconds =       0.23 minutes
	system time =       0.11 seconds =       0.00 minutes
	total time  =          2 seconds =       0.03 minutes
Total time:
	user time   =     276.01 seconds =       4.60 minutes
	system time =       3.80 seconds =       0.06 minutes
	total time  =         36 seconds =       0.60 minutes

			-----------------------------------------
			 OPTKING 2.0: for geometry optimizations 
			  - R.A. King,  Bethel University        
			-----------------------------------------
	At level 1: Red. Int., RFO, no backsteps, dynamic trust

	Previous internal coordinate definitions found.
	---Fragment 1 Geometry and Gradient---
	 O          -4.0916303251       -1.8715827771        0.8385760208
	 C          -0.2560309817        0.2890449643       -0.4776467157
	 C           2.5714110102        0.7176405949       -0.0192618853
	 C          -1.4320552891       -1.5492924467        1.3995195183
	 C           3.7403487924        2.5744930807       -1.9092330338
	 H          -1.2692721527        2.0910837736       -0.3496495023
	 H          -0.5639532391       -0.4352294900       -2.3915583089
	 H           3.5684902823       -1.0964102955       -0.1322613425
	 H           2.8593615679        1.4250450508        1.9085561978
	 H          -0.5212971803       -3.4006172177        1.2496733953
	 H          -1.1570673798       -0.8582900904        3.3359596991
	 H           3.5355226903        1.8834386726       -3.8459623583
	 H           5.7544240922        2.8516013291       -1.5455619507
	 H           2.8155441196        4.4203571773       -1.7976845747
	 H          -5.1378989527       -1.3709228708        2.2453558458
	             0.0018901225        0.0005892429        0.0000756664
	             0.0011208139       -0.0007994750       -0.0007990062
	            -0.0008944431        0.0007174382        0.0001366196
	            -0.0026367671       -0.0003208306       -0.0001245586
	            -0.0001451568       -0.0002680171       -0.0001006849
	            -0.0006063761        0.0009454560        0.0002436484
	            -0.0001264086       -0.0003534101       -0.0011849591
	             0.0005322631       -0.0009581344       -0.0001942251
	             0.0001301286        0.0003853541        0.0010243337
	             0.0002982451       -0.0011605068       -0.0001373057
	            -0.0002050347        0.0001719890        0.0012339891
	             0.0001819064       -0.0001398171       -0.0007139248
	             0.0009136654        0.0002241793        0.0000685793
	            -0.0003081946        0.0009101059        0.0000388807
	            -0.0002248007        0.0000435975        0.0004957734

	---Fragment 1 Intrafragment Coordinates---
	 - Coordinate -           - BOHR/RAD -       - ANG/DEG -
	 R(1,4)           =         2.737128	       1.448426
	 R(1,15)          =         1.823285	       0.964841
	 R(2,3)           =         2.896246	       1.532627
	 R(2,4)           =         2.878588	       1.523283
	 R(2,6)           =         2.071324	       1.096098
	 R(2,7)           =         2.069407	       1.095083
	 R(3,5)           =         2.895912	       1.532451
	 R(3,8)           =         2.073093	       1.097034
	 R(3,9)           =         2.073601	       1.097302
	 R(4,10)          =         2.068656	       1.094686
	 R(4,11)          =         2.074344	       1.097696
	 R(5,12)          =         2.066502	       1.093546
	 R(5,13)          =         2.065320	       1.092920
	 R(5,14)          =         2.067588	       1.094121
	 B(1,4,2)         =         1.916140	     109.786718
	 B(1,4,10)        =         1.883434	     107.912794
	 B(1,4,11)        =         1.938366	     111.060179
	 B(2,3,5)         =         1.966716	     112.684518
	 B(2,3,8)         =         1.908602	     109.354827
	 B(2,3,9)         =         1.910483	     109.462630
	 B(2,4,10)        =         1.922425	     110.146851
	 B(2,4,11)        =         1.919696	     109.990478
	 B(3,2,4)         =         1.971573	     112.962790
	 B(3,2,6)         =         1.916682	     109.817786
	 B(3,2,7)         =         1.921365	     110.086081
	 B(3,5,12)        =         1.936086	     110.929535
	 B(3,5,13)        =         1.944158	     111.392054
	 B(3,5,14)        =         1.935507	     110.896382
	 B(4,1,15)        =         1.946710	     111.538262
	 B(4,2,6)         =         1.891731	     108.388180
	 B(4,2,7)         =         1.895271	     108.591005
	 B(5,3,8)         =         1.908544	     109.351513
	 B(5,3,9)         =         1.909172	     109.387483
	 B(6,2,7)         =         1.863826	     106.789340
	 B(8,3,9)         =         1.857098	     106.403893
	 B(10,4,11)       =         1.883233	     107.901278
	 B(12,5,13)       =         1.882366	     107.851625
	 B(12,5,14)       =         1.880499	     107.744670
	 B(13,5,14)       =         1.882736	     107.872811
	*D(1,4,2,3)       =        -3.134695	    -179.604806
	 D(1,4,2,6)       =         1.020424	      58.465980
	 D(1,4,2,7)       =        -0.998157	     -57.190207
	*D(2,3,5,12)      =        -1.045241	     -59.887870
	 D(2,3,5,13)      =         3.140876	     179.958963
	 D(2,3,5,14)      =         1.043731	      59.801363
	*D(2,4,1,15)      =        -2.094813	    -120.023933
	 D(3,2,4,10)      =        -1.063064	     -60.909056
	 D(3,2,4,11)      =         1.010515	      57.898246
	*D(4,2,3,5)       =        -3.138676	    -179.832892
	 D(4,2,3,8)       =         1.018074	      58.331328
	 D(4,2,3,9)       =        -1.010100	     -57.874467
	 D(5,3,2,6)       =        -1.024698	     -58.710873
	 D(5,3,2,7)       =         1.022630	      58.592408
	 D(6,2,3,8)       =         3.132052	     179.453346
	 D(6,2,3,9)       =         1.103878	      63.247551
	 D(6,2,4,10)      =         3.092055	     177.161730
	 D(6,2,4,11)      =        -1.117551	     -64.030968
	 D(7,2,3,8)       =        -1.103805	     -63.243373
	 D(7,2,3,9)       =        -3.131979	    -179.449168
	 D(7,2,4,10)      =         1.073474	      61.505543
	 D(7,2,4,11)      =        -3.136132	    -179.687155
	 D(8,3,5,12)      =         1.081228	      61.949785
	 D(8,3,5,13)      =        -1.015841	     -58.203382
	 D(8,3,5,14)      =        -3.112986	    -178.360982
	 D(9,3,5,12)      =         3.108628	     178.111263
	 D(9,3,5,13)      =         1.011560	      57.958096
	 D(9,3,5,14)      =        -1.085586	     -62.199505
	 D(10,4,1,15)     =         2.092852	     119.911595
	 D(11,4,1,15)     =         0.032053	       1.836521

	Current energy   :      -233.5806251169

	Energy change for the previous step:
		Projected    :         0.0006924233
		Actual       :        -0.0002545732

	Performing BFGS update.
	Previous computed or guess Hessian on step 1.
	Steps to be used in Hessian update: 6 5
	Taking RFO optimization step.
	Going to follow RFO solution 1.
	Using RFO vector 1.
	Norm of target step-size    0.01442
	Projected energy change by RFO approximation:        -0.0000450611

	Back-transformation to cartesian coordinates...
	Successfully converged to displaced geometry.

	Back-transformation to cartesian coordinates to adjust frozen coordinates...
	Successfully converged to displaced geometry.

	--- Internal Coordinate Step in ANG or DEG, aJ/ANG or AJ/DEG ---
	 ---------------------------------------------------------------------------
	   Coordinate                Previous        Force       Change         New 
	   ----------                --------       ------       ------       ------
	    1 R(1,4)          =      1.448426     0.015139     0.001568     1.449993
	    2 R(1,15)         =      0.964841    -0.004376    -0.000525     0.964316
	    3 R(2,3)          =      1.532627    -0.004729    -0.000894     1.531733
	    4 R(2,4)          =      1.523283    -0.014747    -0.002996     1.520287
	    5 R(2,6)          =      1.096098    -0.009357    -0.001278     1.094820
	    6 R(2,7)          =      1.095083    -0.010186    -0.001390     1.093694
	    7 R(3,5)          =      1.532451    -0.010078    -0.001869     1.530581
	    8 R(3,8)          =      1.097034    -0.009152    -0.001282     1.095752
	    9 R(3,9)          =      1.097302    -0.008982    -0.001188     1.096114
	   10 R(4,10)         =      1.094686    -0.009759    -0.001385     1.093300
	   11 R(4,11)         =      1.097696    -0.009751    -0.001342     1.096354
	   12 R(5,12)         =      1.093546    -0.005842    -0.000688     1.092858
	   13 R(5,13)         =      1.092920    -0.007670    -0.001235     1.091685
	   14 R(5,14)         =      1.094121    -0.007855    -0.001039     1.093082
	   15 B(1,4,2)        =    109.786718     0.000021     0.077589   109.864307
	   16 B(1,4,10)       =    107.912794     0.000006     0.083117   107.995911
	   17 B(1,4,11)       =    111.060179     0.000014     0.068286   111.128464
	   18 B(2,3,5)        =    112.684518    -0.000032    -0.077526   112.606992
	   19 B(2,3,8)        =    109.354827     0.000009     0.061260   109.416087
	   20 B(2,3,9)        =    109.462630     0.000009    -0.006262   109.456368
	   21 B(2,4,10)       =    110.146851    -0.000013    -0.002550   110.144301
	   22 B(2,4,11)       =    109.990478    -0.000034    -0.175997   109.814481
	   23 B(3,2,4)        =    112.962790    -0.000038    -0.133505   112.829285
	   24 B(3,2,6)        =    109.817786     0.000008     0.054006   109.871792
	   25 B(3,2,7)        =    110.086081     0.000015     0.004411   110.090492
	   26 B(3,5,12)       =    110.929535    -0.000021    -0.087149   110.842386
	   27 B(3,5,13)       =    111.392054    -0.000009     0.004718   111.396772
	   28 B(3,5,14)       =    110.896382    -0.000006    -0.002838   110.893544
	   29 B(4,1,15)       =    111.538262     0.000015     0.038782   111.577044
	   30 B(4,2,6)        =    108.388180     0.000022     0.158717   108.546897
	   31 B(4,2,7)        =    108.591005     0.000004    -0.033056   108.557949
	   32 B(5,3,8)        =    109.351513     0.000017     0.095330   109.446843
	   33 B(5,3,9)        =    109.387483     0.000006    -0.015445   109.372038
	   34 B(6,2,7)        =    106.789340    -0.000008    -0.044987   106.744353
	   35 B(8,3,9)        =    106.403893    -0.000008    -0.056138   106.347756
	   36 B(10,4,11)      =    107.901278     0.000007    -0.047988   107.853291
	   37 B(12,5,13)      =    107.851625     0.000017     0.053912   107.905537
	   38 B(12,5,14)      =    107.744670     0.000009    -0.017674   107.726996
	   39 B(13,5,14)      =    107.872811     0.000012     0.053303   107.926114
	   40 *D(1,4,2,3)     =   -179.604806     0.000000    -0.000000  -179.604806
	   41 D(1,4,2,6)      =     58.465980    -0.000000    -0.092888    58.373092
	   42 D(1,4,2,7)      =    -57.190207    -0.000001    -0.106791   -57.296998
	   43 *D(2,3,5,12)    =    -59.887870    -0.000000    -0.000000   -59.887870
	   44 D(2,3,5,13)     =    179.958963    -0.000000    -0.012560   179.946403
	   45 D(2,3,5,14)     =     59.801363    -0.000001    -0.081266    59.720097
	   46 *D(2,4,1,15)    =   -120.023933    -0.000000    -0.000000  -120.023933
	   47 D(3,2,4,10)     =    -60.909056     0.000003     0.148405   -60.760652
	   48 D(3,2,4,11)     =     57.898246    -0.000002    -0.020698    57.877548
	   49 *D(4,2,3,5)     =   -179.832892    -0.000000    -0.000000  -179.832892
	   50 D(4,2,3,8)      =     58.331328    -0.000002    -0.112908    58.218420
	   51 D(4,2,3,9)      =    -57.874467    -0.000002    -0.076602   -57.951070
	   52 D(5,3,2,6)      =    -58.710873     0.000002     0.151104   -58.559770
	   53 D(5,3,2,7)      =     58.592408     0.000003     0.131140    58.723548
	   54 D(6,2,3,8)      =    179.453346     0.000000     0.038196   179.491542
	   55 D(6,2,3,9)      =     63.247551    -0.000000     0.074501    63.322052
	   56 D(6,2,4,10)     =    177.161730     0.000003     0.055517   177.217247
	   57 D(6,2,4,11)     =    -64.030968    -0.000002    -0.113586   -64.144554
	   58 D(7,2,3,8)      =    -63.243373     0.000001     0.018233   -63.225140
	   59 D(7,2,3,9)      =   -179.449168     0.000001     0.054538  -179.394630
	   60 D(7,2,4,10)     =     61.505543     0.000002     0.041614    61.547156
	   61 D(7,2,4,11)     =   -179.687155    -0.000003    -0.127489  -179.814644
	   62 D(8,3,5,12)     =     61.949785     0.000001     0.093629    62.043415
	   63 D(8,3,5,13)     =    -58.203382     0.000000     0.081070   -58.122312
	   64 D(8,3,5,14)     =   -178.360982    -0.000001     0.012364  -178.348618
	   65 D(9,3,5,12)     =    178.111263     0.000001     0.071307   178.182570
	   66 D(9,3,5,13)     =     57.958096     0.000001     0.058748    58.016843
	   67 D(9,3,5,14)     =    -62.199505    -0.000000    -0.009958   -62.209463
	   68 D(10,4,1,15)    =    119.911595    -0.000000    -0.092453   119.819142
	   69 D(11,4,1,15)    =      1.836521    -0.000004    -0.123986     1.712535
	 ---------------------------------------------------------------------------
	Successfully symmetrized geometry.

  ==> Convergence Check <==

  Measures of convergence in internal coordinates in au.
  Criteria marked as inactive (o), active & met (*), and active & unmet ( ).
  ---------------------------------------------------------------------------------------------
   Step     Total Energy     Delta E     MAX Force     RMS Force      MAX Disp      RMS Disp   
  ---------------------------------------------------------------------------------------------
    Convergence Criteria             o    2.50e-03 *    1.70e-03 *    1.00e-02 *    6.70e-03 *
  ---------------------------------------------------------------------------------------------
      7    -233.58062512   -2.55e-04 o    1.84e-03 *    5.45e-04 *    5.66e-03 *    1.74e-03 *  ~
  ---------------------------------------------------------------------------------------------


  **** Optimization is complete! (in 7 steps) ****

  ==> Optimization Summary <==

  Measures of convergence in internal coordinates in au.
  --------------------------------------------------------------------------------------------------------------- ~
   Step         Total Energy             Delta E       MAX Force       RMS Force        MAX Disp        RMS Disp  ~
  --------------------------------------------------------------------------------------------------------------- ~
      1    -233.578876895115   -233.578876895115      0.01499269      0.00376236      0.87444681      0.25669423  ~
      2    -233.188189688624      0.390687206491      0.09688376      0.03469703      0.18776447      0.06022865  ~
      3    -233.324254491816     -0.136064803192      0.09505680      0.03079642      0.36749365      0.10950963  ~
      4    -233.516048997015     -0.191794505199      0.06942482      0.01854991      0.24000591      0.06522213  ~
      5    -233.573409341297     -0.057360344282      0.02528305      0.00647030      0.09018126      0.03637657  ~
      6    -233.580370543684     -0.006961202388      0.00290250      0.00084979      0.03245366      0.01288818  ~
      7    -233.580625116876     -0.000254573192      0.00183754      0.00054524      0.00566194      0.00173585  ~
  --------------------------------------------------------------------------------------------------------------- ~

	Writing optimization data to binary file.
	Final energy is   -233.5806251168763
	Final (previous) structure:
	Cartesian Geometry (in Angstrom)
	    O    -2.1651975140  -0.9903989496   0.4437553179
	    C    -0.1354857602   0.1529560074  -0.2527597557
	    C     1.3607321005   0.3797590468  -0.0101929507
	    C    -0.7578110204  -0.8198502523   0.7405938321
	    C     1.9793073331   1.3623630620  -1.0103226074
	    H    -0.6716698947   1.1065538743  -0.1850265476
	    H    -0.2984312009  -0.2303135266  -1.2655581501
	    H     1.8883637265  -0.5801953396  -0.0699896880
	    H     1.5131089729   0.7541013621   1.0099644412
	    H    -0.2758585867  -1.7995291267   0.6612986790
	    H    -0.6122936862  -0.4541875542   1.7653138415
	    H     1.8709180282   0.9966728193  -2.0351956251
	    H     3.0451100782   1.5090024314  -0.8178761588
	    H     1.4899217779   2.3391522721  -0.9512937052
	    H    -2.7188590258  -0.7254611380   1.1881911388
	Saving final (previous) structure.
			--------------------------
			 OPTKING Finished Execution 
			--------------------------

    Final optimized geometry and variables:
    Molecular point group: c1
    Full point group: C1

    Geometry (in Angstrom), charge = 0, multiplicity = 1:

    O           -2.165197522545    -0.990398953531     0.443755319620
    C           -0.135485760730     0.152956007954    -0.252759756710
    C            1.360732105870     0.379759048288    -0.010192950721
    C           -0.757811023403    -0.819850255474     0.740593834978
    C            1.979307340917     1.362363067337    -1.010322611337
    H           -0.671669897369     1.106553878610    -0.185026548339
    H           -0.298431202037    -0.230313527516    -1.265558155063
    H            1.888363733906    -0.580195341924    -0.069989688289
    H            1.513108978817     0.754101365040     1.009964445146
    H           -0.275858587803    -1.799529133802     0.661298681556
    H           -0.612293688612    -0.454187555965     1.765313848473
    H            1.870918035523     0.996672823252    -2.035195633121
    H            3.045110090133     1.509002437293    -0.817876161998
    H            1.489921783735     2.339152281273    -0.951293708904
    H           -2.718859036488    -0.725461140831     1.188191143434

	Removing binary optimization data file.
	Cleaning optimization helper files.

    Psi4 stopped on: Thursday, 27 May 2021 10:58AM
    Psi4 wall time for execution: 0:00:36.28

*** Psi4 exiting successfully. Buy a developer a beer!
