
    -----------------------------------------------------------------------
          Psi4: An Open-Source Ab Initio Electronic Structure Package
                               Psi4 1.3.2 release

                         Git: Rev {HEAD} ecbda83 


    R. M. Parrish, L. A. Burns, D. G. A. Smith, A. C. Simmonett,
    A. E. DePrince III, E. G. Hohenstein, U. Bozkaya, A. Yu. Sokolov,
    R. Di Remigio, R. M. Richard, J. F. Gonthier, A. M. James,
    H. R. McAlexander, A. Kumar, M. Saitow, X. Wang, B. P. Pritchard,
    P. Verma, H. F. Schaefer III, K. Patkowski, R. A. King, E. F. Valeev,
    F. A. Evangelista, J. M. Turney, T. D. Crawford, and C. D. Sherrill,
    J. Chem. Theory Comput. 13(7) pp 3185--3197 (2017).
    (doi: 10.1021/acs.jctc.7b00174)


                         Additional Contributions by
    P. Kraus, H. Kruse, M. H. Lechner, M. C. Schieber, R. A. Shaw,
    A. Alenaizan, R. Galvelis, Z. L. Glick, S. Lehtola, and J. P. Misiewicz

    -----------------------------------------------------------------------


    Psi4 started on: Thursday, 27 May 2021 11:46AM

    Process ID: 229096
    Host:       daniele-Precision-5750
    PSIDATADIR: /home/daniele/anaconda3/envs/poltype/share/psi4
    Memory:     500.0 MiB
    Threads:    1
    
  ==> Input File <==

--------------------------------------------------------------------------
molecule { 
0 1
 O   -1.619471   -1.017857    0.087844
 C   -0.028426    0.847765    0.015326
 C    0.971071   -0.312006   -0.069317
 C   -1.510684    0.426144    0.104936
 C    2.414243    0.192975   -0.151009
 H    0.228600    1.459902    0.884939
 H    0.114792    1.489448   -0.859113
 H    0.740094   -0.929264   -0.938103
 H    0.849745   -0.961168    0.798440
 H   -1.954491    0.817079    1.026965
 H   -2.069522    0.846787   -0.738119
 H    2.563217    0.821653   -1.032779
 H    3.117914   -0.639335   -0.211503
 H    2.674608    0.787757    0.728428
 H   -2.545208   -1.289658    0.138133
}
memory 700MB
set_num_threads(8)
psi4_io.set_default_path("/home/daniele/PSI4_sctatch/Psi4-1butanol_3D")
set freeze_core True
E, wfn = energy('wb97x-d/6-311+G*',return_wfn=True)
oeprop(wfn,"WIBERG_LOWDIN_INDICES")
clean()
--------------------------------------------------------------------------

  Memory set to 667.572 MiB by Python driver.
  Threads set to 8 by Python driver.

*** tstart() called on daniele-Precision-5750
*** at Thu May 27 11:46:05 2021

   => Loading Basis Set <=

    Name: 6-311+G*
    Role: ORBITAL
    Keyword: BASIS
    atoms 1    entry O          line   172 file /home/daniele/anaconda3/envs/poltype/share/psi4/basis/6-311pgs.gbs 
    atoms 2-5  entry C          line   130 file /home/daniele/anaconda3/envs/poltype/share/psi4/basis/6-311pgs.gbs 
    atoms 6-15 entry H          line    47 file /home/daniele/anaconda3/envs/poltype/share/psi4/basis/6-311pgs.gbs 


         ---------------------------------------------------------
                                   SCF
               by Justin Turney, Rob Parrish, Andy Simmonett
                          and Daniel G. A. Smith
                              RKS Reference
                        8 Threads,    667 MiB Core
         ---------------------------------------------------------

  ==> Geometry <==

    Molecular point group: c1
    Full point group: C1

    Geometry (in Angstrom), charge = 0, multiplicity = 1:

       Center              X                  Y                   Z               Mass       
    ------------   -----------------  -----------------  -----------------  -----------------
         O           -1.619471051057    -1.017857085258     0.087844120801    15.994914619570
         C           -0.028426051057     0.847764914742     0.015326120801    12.000000000000
         C            0.971070948943    -0.312006085258    -0.069316879199    12.000000000000
         C           -1.510684051057     0.426143914742     0.104936120801    12.000000000000
         C            2.414242948943     0.192974914742    -0.151008879199    12.000000000000
         H            0.228599948943     1.459901914742     0.884939120801     1.007825032230
         H            0.114791948943     1.489447914742    -0.859112879199     1.007825032230
         H            0.740093948943    -0.929264085258    -0.938102879199     1.007825032230
         H            0.849744948943    -0.961168085258     0.798440120801     1.007825032230
         H           -1.954491051057     0.817078914742     1.026965120801     1.007825032230
         H           -2.069522051057     0.846786914742    -0.738118879199     1.007825032230
         H            2.563216948943     0.821652914742    -1.032778879199     1.007825032230
         H            3.117913948943    -0.639335085258    -0.211502879199     1.007825032230
         H            2.674607948943     0.787756914742     0.728428120801     1.007825032230
         H           -2.545208051057    -1.289658085258     0.138133120801     1.007825032230

  Running in c1 symmetry.

  Rotational constants: A =      0.39030  B =      0.08420  C =      0.07299 [cm^-1]
  Rotational constants: A =  11700.91661  B =   2524.40109  C =   2188.13730 [MHz]
  Nuclear repulsion =  187.941383075118864

  Charge       = 0
  Multiplicity = 1
  Electrons    = 42
  Nalpha       = 21
  Nbeta        = 21

  ==> Algorithm <==

  SCF Algorithm Type is DF.
  DIIS enabled.
  MOM disabled.
  Fractional occupation disabled.
  Guess Type is SAD.
  Energy threshold   = 1.00e-06
  Density threshold  = 1.00e-06
  Integral threshold = 0.00e+00

  ==> Primary Basis <==

  Basis Set: 6-311+G*
    Blend: 6-311+G*
    Number of shells: 80
    Number of basis function: 140
    Number of Cartesian functions: 145
    Spherical Harmonics?: true
    Max angular momentum: 2

  ==> DFT Potential <==

   => Composite Functional: WB97X-D <= 

    wB97X-D Hyb-GGA Exchange-Correlation Functional

    J.-D. Chai and M. Head-Gordon, Phys. Chem. Chem. Phys. 10, 6615 (2008)

    Deriv               =              1
    GGA                 =           TRUE
    Meta                =          FALSE

    Exchange Hybrid     =           TRUE
    MP2 Hybrid          =          FALSE

   => Exchange-Correlation Functionals <=

    1.0000   wB97D range-separated functional

   => Exact (HF) Exchange <=

    0.7780            HF,LR [omega = 0.2000]
    0.2220               HF 

   => Molecular Quadrature <=

    Radial Scheme          =       TREUTLER
    Pruning Scheme         =           FLAT
    Nuclear Scheme         =       TREUTLER

    BS radius alpha        =              1
    Pruning alpha          =              1
    Radial Points          =             75
    Spherical Points       =            302
    Total Points           =         339750
    Total Blocks           =           2572
    Max Points             =            256
    Max Functions          =            135

   => WB97X-D: Empirical Dispersion <=

    Chai and Head-Gordon Dispersion Correction
    Chai, J.-D.; Head-Gordon, M. (2010), J. Chem. Phys., 132: 6615-6620

        s6 =       1.000000

   => Loading Basis Set <=

    Name: (6-311+G* AUX)
    Role: JKFIT
    Keyword: DF_BASIS_SCF
    atoms 1    entry O          line   324 file /home/daniele/anaconda3/envs/poltype/share/psi4/basis/heavy-aug-cc-pvtz-jkfit.gbs 
    atoms 2-5  entry C          line   200 file /home/daniele/anaconda3/envs/poltype/share/psi4/basis/heavy-aug-cc-pvtz-jkfit.gbs 
    atoms 6-15 entry H          line   116 file /home/daniele/anaconda3/envs/poltype/share/psi4/basis/heavy-aug-cc-pvtz-jkfit.gbs 

  ==> Pre-Iterations <==

   -------------------------------------------------------
    Irrep   Nso     Nmo     Nalpha   Nbeta   Ndocc  Nsocc
   -------------------------------------------------------
     A        140     140       0       0       0       0
   -------------------------------------------------------
    Total     140     140      21      21      21       0
   -------------------------------------------------------

  ==> Integral Setup <==

  ==> DiskDFJK: Density-Fitted J/K Matrices <==

    J tasked:                  Yes
    K tasked:                  Yes
    wK tasked:                 Yes
    Omega:               2.000E-01
    OpenMP threads:              8
    Integrals threads:           8
    Memory [MiB]:               77
    Algorithm:                Disk
    Integral Cache:           NONE
    Schwarz Cutoff:          1E-12
    Fitting Condition:       1E-10

   => Auxiliary Basis Set <=

  Basis Set: (6-311+G* AUX)
    Blend: HEAVY-AUG-CC-PVTZ-JKFIT
    Number of shells: 250
    Number of basis function: 820
    Number of Cartesian functions: 1005
    Spherical Harmonics?: true
    Max angular momentum: 4

  Cached 50.0% of DFT collocation blocks in 0.526 [GiB].

  Minimum eigenvalue in the overlap matrix is 2.1208481188E-05.
  Using Symmetric Orthogonalization.

  SCF Guess: Superposition of Atomic Densities via on-the-fly atomic UHF.

  ==> Iterations <==

                           Total Energy        Delta E     RMS |[F,P]|

   @DF-RKS iter SAD:  -232.89044821113563   -2.32890e+02   0.00000e+00 
   @DF-RKS iter   1:  -233.24489157990357   -3.54443e-01   6.41151e-03 DIIS
   @DF-RKS iter   2:  -233.34166353630289   -9.67720e-02   5.94338e-03 DIIS
   @DF-RKS iter   3:  -233.63470483864063   -2.93041e-01   7.38933e-04 DIIS
   @DF-RKS iter   4:  -233.63823503651437   -3.53020e-03   2.84354e-04 DIIS
   @DF-RKS iter   5:  -233.63889771478296   -6.62678e-04   4.21229e-05 DIIS
   @DF-RKS iter   6:  -233.63891871809005   -2.10033e-05   1.48923e-05 DIIS
   @DF-RKS iter   7:  -233.63892087967272   -2.16158e-06   3.51426e-06 DIIS
   @DF-RKS iter   8:  -233.63892103272329   -1.53051e-07   5.10427e-07 DIIS
  Energy and wave function converged.


  ==> Post-Iterations <==

    Orbital Energies [Eh]
    ---------------------

    Doubly Occupied:                                                      

       1A    -19.244385     2A    -10.329176     3A    -10.275206  
       4A    -10.265138     5A    -10.261271     6A     -1.116482  
       7A     -0.887204     8A     -0.815795     9A     -0.724355  
      10A     -0.667278    11A     -0.597390    12A     -0.567269  
      13A     -0.517356    14A     -0.516290    15A     -0.473922  
      16A     -0.449698    17A     -0.442121    18A     -0.415517  
      19A     -0.406318    20A     -0.397208    21A     -0.353328  

    Virtual:                                                              

      22A      0.063256    23A      0.078746    24A      0.086860  
      25A      0.095955    26A      0.108607    27A      0.108923  
      28A      0.122188    29A      0.138434    30A      0.139540  
      31A      0.144990    32A      0.156558    33A      0.163989  
      34A      0.177069    35A      0.210199    36A      0.214967  
      37A      0.231480    38A      0.232740    39A      0.236437  
      40A      0.246121    41A      0.252487    42A      0.281826  
      43A      0.288026    44A      0.289384    45A      0.304930  
      46A      0.315566    47A      0.319775    48A      0.328519  
      49A      0.330850    50A      0.344714    51A      0.351815  
      52A      0.368190    53A      0.389510    54A      0.429203  
      55A      0.491877    56A      0.495469    57A      0.496511  
      58A      0.506172    59A      0.551554    60A      0.577802  
      61A      0.585766    62A      0.599005    63A      0.642679  
      64A      0.659171    65A      0.661169    66A      0.696138  
      67A      0.710746    68A      0.729177    69A      0.747176  
      70A      0.751801    71A      0.753941    72A      0.773775  
      73A      0.783978    74A      0.808417    75A      0.823462  
      76A      0.833214    77A      0.851630    78A      0.938202  
      79A      1.067329    80A      1.097700    81A      1.148279  
      82A      1.155339    83A      1.186959    84A      1.230492  
      85A      1.256707    86A      1.380699    87A      1.480320  
      88A      1.490283    89A      1.599779    90A      1.618859  
      91A      1.627462    92A      1.677103    93A      1.690994  
      94A      1.700156    95A      1.722289    96A      1.730500  
      97A      1.800668    98A      1.809309    99A      1.834571  
     100A      1.898819   101A      1.925515   102A      2.027142  
     103A      2.079607   104A      2.236921   105A      2.285547  
     106A      2.317321   107A      2.511392   108A      2.572749  
     109A      2.596695   110A      2.609883   111A      2.618359  
     112A      2.648948   113A      2.700230   114A      2.704603  
     115A      2.748269   116A      2.896125   117A      2.919962  
     118A      3.003022   119A      3.089465   120A      3.091192  
     121A      3.109242   122A      3.191972   123A      3.208139  
     124A      3.270821   125A      3.308183   126A      3.317947  
     127A      3.387836   128A      3.446441   129A      3.820499  
     130A      3.905751   131A      4.013811   132A      4.207606  
     133A      5.120678   134A      5.319813   135A      5.537703  
     136A     23.562922   137A     23.718877   138A     23.806051  
     139A     23.867500   140A     50.008340  

    Final Occupation by Irrep:
              A 
    DOCC [    21 ]

  @DF-RKS Final Energy:  -233.63892103272329

   => Energetics <=

    Nuclear Repulsion Energy =            187.9413830751188641
    One-Electron Energy =                -687.9993469095172713
    Two-Electron Energy =                 289.6655324180248954
    DFT Exchange-Correlation Energy =     -23.2396008761128741
    Empirical Dispersion Energy =          -0.0068887402369413
    VV10 Nonlocal Energy =                  0.0000000000000000
    Total Energy =                       -233.6389210327233172

Computation Completed


Properties will be evaluated at   0.000000,   0.000000,   0.000000 [a0]

Properties computed using the SCF density matrix

  Nuclear Dipole Moment: [e a0]
     X:     3.4794      Y:     2.2480      Z:    -0.1896

  Electronic Dipole Moment: [e a0]
     X:    -4.0524      Y:    -1.8674      Z:     0.2294

  Dipole Moment: [e a0]
     X:    -0.5730      Y:     0.3807      Z:     0.0398     Total:     0.6891

  Dipole Moment: [D]
     X:    -1.4564      Y:     0.9676      Z:     0.1011     Total:     1.7514


*** tstop() called on daniele-Precision-5750 at Thu May 27 11:46:13 2021
Module time:
	user time   =      54.75 seconds =       0.91 minutes
	system time =       1.77 seconds =       0.03 minutes
	total time  =          8 seconds =       0.13 minutes
Total time:
	user time   =      54.75 seconds =       0.91 minutes
	system time =       1.77 seconds =       0.03 minutes
	total time  =          8 seconds =       0.13 minutes


Properties will be evaluated at   0.000000,   0.000000,   0.000000 [a0]
OEProp: No title given, name of density matrix used for the following properties is 'SCF density'


  Wiberg Bond Indices using Orthogonal Lowdin Orbitals:

  Irrep: 1 Size: 15 x 15

                 1                   2                   3                   4                   5

    1     0.00000000000000     0.10220695106713     0.08175494124599     1.30779550063606     0.00702844697060
    2     0.10220695106713     0.00000000000000     1.14267163994692     1.13900607598996     0.11623112713567
    3     0.08175494124599     1.14267163994692     0.00000000000000     0.09321538789388     1.20321818902613
    4     1.30779550063606     1.13900607598996     0.09321538789388     0.00000000000000     0.02057373159715
    5     0.00702844697060     0.11623112713567     1.20321818902613     0.02057373159715     0.00000000000000
    6     0.00387328415324     0.86613036123560     0.03883758265246     0.04270508578828     0.01399858196459
    7     0.00387355355768     0.86616853124304     0.03885337402664     0.04270667163154     0.01391635945248
    8     0.01191564922024     0.03764327760240     0.86076443385424     0.01011443963815     0.03908399739622
    9     0.01201980001375     0.03761193234168     0.86065692788311     0.01016671489490     0.03908679635974
   10     0.05274965257780     0.04224921897565     0.00656441048277     0.87654928502203     0.00074605605020
   11     0.05265084809743     0.04226114334939     0.00656009051041     0.87655818603957     0.00074732707990
   12     0.00065002517164     0.01472256228731     0.04258517372501     0.00137794753568     0.90929643928222
   13     0.00046271141007     0.01202605338566     0.04741468334963     0.00155540597511     0.91497947179033
   14     0.00064439589063     0.01470968561017     0.04257430999100     0.00137997272669     0.90931645217312
   15     0.86107402830613     0.01184270979185     0.00222311990811     0.03747131427509     0.00038705146196

                 6                   7                   8                   9                  10

    1     0.00387328415324     0.00387355355768     0.01191564922024     0.01201980001375     0.05274965257780
    2     0.86613036123560     0.86616853124304     0.03764327760240     0.03761193234168     0.04224921897565
    3     0.03883758265246     0.03885337402664     0.86076443385424     0.86065692788311     0.00656441048277
    4     0.04270508578828     0.04270667163154     0.01011443963815     0.01016671489490     0.87654928502203
    5     0.01399858196459     0.01391635945248     0.03908399739622     0.03908679635974     0.00074605605020
    6     0.00000000000000     0.00717764978353     0.00861680113635     0.00450987518796     0.00830156169631
    7     0.00717764978353     0.00000000000000     0.00454807114383     0.00861414268703     0.00223096762757
    8     0.00861680113635     0.00454807114383     0.00000000000000     0.00681585500596     0.00007561212643
    9     0.00450987518796     0.00861414268703     0.00681585500596     0.00000000000000     0.00003594933361
   10     0.00830156169631     0.00223096762757     0.00007561212643     0.00003594933361     0.00000000000000
   11     0.00223043237640     0.00830342802759     0.00003592714343     0.00007672236041     0.00905141707320
   12     0.00058317260556     0.00127228410580     0.00363876216252     0.00996750018917     0.00013122288446
   13     0.00041718112393     0.00041098675180     0.00316321524029     0.00315534219335     0.00021471807658
   14     0.00128365739412     0.00057571021485     0.00996616596887     0.00365372624149     0.00002257269526
   15     0.00011494171626     0.00011396106013     0.00012126577917     0.00012608889967     0.00325380101196

                11                  12                  13                  14                  15

    1     0.05265084809743     0.00065002517164     0.00046271141007     0.00064439589063     0.86107402830613
    2     0.04226114334939     0.01472256228731     0.01202605338566     0.01470968561017     0.01184270979185
    3     0.00656009051041     0.04258517372501     0.04741468334963     0.04257430999100     0.00222311990811
    4     0.87655818603957     0.00137794753568     0.00155540597511     0.00137997272669     0.03747131427509
    5     0.00074732707990     0.90929643928222     0.91497947179033     0.90931645217312     0.00038705146196
    6     0.00223043237640     0.00058317260556     0.00041718112393     0.00128365739412     0.00011494171626
    7     0.00830342802759     0.00127228410580     0.00041098675180     0.00057571021485     0.00011396106013
    8     0.00003592714343     0.00363876216252     0.00316321524029     0.00996616596887     0.00012126577917
    9     0.00007672236041     0.00996750018917     0.00315534219335     0.00365372624149     0.00012608889967
   10     0.00905141707320     0.00013122288446     0.00021471807658     0.00002257269526     0.00325380101196
   11     0.00000000000000     0.00002275675831     0.00021558339300     0.00013112033884     0.00332953069944
   12     0.00002275675831     0.00000000000000     0.00946462367329     0.00792332772576     0.00009796166123
   13     0.00021558339300     0.00946462367329     0.00000000000000     0.00946425216994     0.00003536355746
   14     0.00013112033884     0.00792332772576     0.00946425216994     0.00000000000000     0.00009523033645
   15     0.00332953069944     0.00009796166123     0.00003536355746     0.00009523033645     0.00000000000000



  Atomic Valences: 

 #  #
 Irrep: 1
      1:  2.4986998
      2:  4.4454813
      3:  4.4678943
      4:  4.4611757
      5:  4.1886100
      6:  0.9987802
      7:  0.9987657
      8:  0.9965035
      9:  0.9964974
     10:  1.0021764
     11:  1.0021745
     12:  1.0017338
     13:  1.0029796
     14:  1.0017406
     15:  0.9202864


    Psi4 stopped on: Thursday, 27 May 2021 11:46AM
    Psi4 wall time for execution: 0:00:07.81

*** Psi4 exiting successfully. Buy a developer a beer!
