
    -----------------------------------------------------------------------
          Psi4: An Open-Source Ab Initio Electronic Structure Package
                               Psi4 1.3.2 release

                         Git: Rev {HEAD} ecbda83 


    R. M. Parrish, L. A. Burns, D. G. A. Smith, A. C. Simmonett,
    A. E. DePrince III, E. G. Hohenstein, U. Bozkaya, A. Yu. Sokolov,
    R. Di Remigio, R. M. Richard, J. F. Gonthier, A. M. James,
    H. R. McAlexander, A. Kumar, M. Saitow, X. Wang, B. P. Pritchard,
    P. Verma, H. F. Schaefer III, K. Patkowski, R. A. King, E. F. Valeev,
    F. A. Evangelista, J. M. Turney, T. D. Crawford, and C. D. Sherrill,
    J. Chem. Theory Comput. 13(7) pp 3185--3197 (2017).
    (doi: 10.1021/acs.jctc.7b00174)


                         Additional Contributions by
    P. Kraus, H. Kruse, M. H. Lechner, M. C. Schieber, R. A. Shaw,
    A. Alenaizan, R. Galvelis, Z. L. Glick, S. Lehtola, and J. P. Misiewicz

    -----------------------------------------------------------------------


    Psi4 started on: Thursday, 27 May 2021 11:20AM

    Process ID: 227128
    Host:       daniele-Precision-5750
    PSIDATADIR: /home/daniele/anaconda3/envs/poltype/share/psi4
    Memory:     500.0 MiB
    Threads:    1
    
  ==> Input File <==

--------------------------------------------------------------------------
molecule { 
0 1
 O   -1.700269   -0.991108   -0.520413
 C    0.055465    0.561662    0.050867
 C    1.145686   -0.525887    0.260920
 C   -1.388765    0.099344    0.351520
 C    2.576620   -0.037838   -0.042054
 H    0.272004    1.429999    0.687262
 H    0.087519    0.923047   -0.985630
 H    0.924097   -1.392899   -0.375740
 H    1.103272   -0.892327    1.295081
 H   -1.478489   -0.198421    1.403817
 H   -2.085175    0.933665    0.200061
 H    2.668174    0.295948   -1.081253
 H    3.301936   -0.843071    0.115256
 H    2.856725    0.795970    0.610422
 H   -2.613727   -1.279175   -0.334693
}
set optking { 
  frozen_dihedral = ("
    3 2 4 1
    2 4 1 15
    4 2 3 5
    12 5 3 2
  ")
}
set {
  geom_maxiter 400
  g_convergence GAU_LOOSE
  dynamic_level 1
}
memory 700MB
set_num_threads(8)
psi4_io.set_default_path("/home/daniele/PSI4_sctatch/Psi4-1butanol_3D")
for _ in range(1):
  try:
    set opt_coordinates both
    optimize('wb97x-d/6-311G')
    break
  except OptimizationConvergenceError:
    break
  else:
    try:
      set opt_coordinates cartesian
      optimize('wb97x-d/6-311G')
      break
    except OptimizationConvergenceError:
      pass
clean()
--------------------------------------------------------------------------

  Memory set to 667.572 MiB by Python driver.
  Threads set to 8 by Python driver.
gradient() will perform analytic gradient computation.

*** tstart() called on daniele-Precision-5750
*** at Thu May 27 11:20:06 2021

   => Loading Basis Set <=

    Name: 6-311G
    Role: ORBITAL
    Keyword: BASIS
    atoms 1    entry O          line   126 file /home/daniele/anaconda3/envs/poltype/share/psi4/basis/6-311g.gbs 
    atoms 2-5  entry C          line    92 file /home/daniele/anaconda3/envs/poltype/share/psi4/basis/6-311g.gbs 
    atoms 6-15 entry H          line    21 file /home/daniele/anaconda3/envs/poltype/share/psi4/basis/6-311g.gbs 


         ---------------------------------------------------------
                                   SCF
               by Justin Turney, Rob Parrish, Andy Simmonett
                          and Daniel G. A. Smith
                              RKS Reference
                        8 Threads,    667 MiB Core
         ---------------------------------------------------------

  ==> Geometry <==

    Molecular point group: c1
    Full point group: C1

    Geometry (in Angstrom), charge = 0, multiplicity = 1:

       Center              X                  Y                   Z               Mass       
    ------------   -----------------  -----------------  -----------------  -----------------
         O           -1.788670245058    -0.789761693296    -0.529561598687    15.994914619570
         C           -0.032936245058     0.763008306704     0.041718401313    12.000000000000
         C            1.057284754942    -0.324540693296     0.251771401313    12.000000000000
         C           -1.477166245058     0.300690306704     0.342371401313    12.000000000000
         C            2.488218754942     0.163508306704    -0.051202598687    12.000000000000
         H            0.183602754942     1.631345306704     0.678113401313     1.007825032230
         H           -0.000882245058     1.124393306704    -0.994778598687     1.007825032230
         H            0.835695754942    -1.191552693296    -0.384888598687     1.007825032230
         H            1.014870754942    -0.690980693296     1.285932401313     1.007825032230
         H           -1.566890245058     0.002925306704     1.394668401313     1.007825032230
         H           -2.173576245058     1.135011306704     0.190912401313     1.007825032230
         H            2.579772754942     0.497294306704    -1.090401598687     1.007825032230
         H            3.213534754942    -0.641724693296     0.106107401313     1.007825032230
         H            2.768323754942     0.997316306704     0.601273401313     1.007825032230
         H           -2.702128245058    -1.077828693296    -0.343841598687     1.007825032230

  Running in c1 symmetry.

  Rotational constants: A =      0.41299  B =      0.07678  C =      0.07059 [cm^-1]
  Rotational constants: A =  12381.24505  B =   2301.87015  C =   2116.11686 [MHz]
  Nuclear repulsion =  185.876135015142239

  Charge       = 0
  Multiplicity = 1
  Electrons    = 42
  Nalpha       = 21
  Nbeta        = 21

  ==> Algorithm <==

  SCF Algorithm Type is DF.
  DIIS enabled.
  MOM disabled.
  Fractional occupation disabled.
  Guess Type is SAD.
  Energy threshold   = 1.00e-08
  Density threshold  = 1.00e-08
  Integral threshold = 0.00e+00

  ==> Primary Basis <==

  Basis Set: 6-311G
    Blend: 6-311G
    Number of shells: 65
    Number of basis function: 95
    Number of Cartesian functions: 95
    Spherical Harmonics?: true
    Max angular momentum: 1

  ==> DFT Potential <==

   => Composite Functional: WB97X-D <= 

    wB97X-D Hyb-GGA Exchange-Correlation Functional

    J.-D. Chai and M. Head-Gordon, Phys. Chem. Chem. Phys. 10, 6615 (2008)

    Deriv               =              1
    GGA                 =           TRUE
    Meta                =          FALSE

    Exchange Hybrid     =           TRUE
    MP2 Hybrid          =          FALSE

   => Exchange-Correlation Functionals <=

    1.0000   wB97D range-separated functional

   => Exact (HF) Exchange <=

    0.7780            HF,LR [omega = 0.2000]
    0.2220               HF 

   => Molecular Quadrature <=

    Radial Scheme          =       TREUTLER
    Pruning Scheme         =           FLAT
    Nuclear Scheme         =       TREUTLER

    BS radius alpha        =              1
    Pruning alpha          =              1
    Radial Points          =             75
    Spherical Points       =            302
    Total Points           =         336151
    Total Blocks           =           2549
    Max Points             =            256
    Max Functions          =             91

   => WB97X-D: Empirical Dispersion <=

    Chai and Head-Gordon Dispersion Correction
    Chai, J.-D.; Head-Gordon, M. (2010), J. Chem. Phys., 132: 6615-6620

        s6 =       1.000000

   => Loading Basis Set <=

    Name: (6-311G AUX)
    Role: JKFIT
    Keyword: DF_BASIS_SCF
    atoms 1    entry O          line   229 file /home/daniele/anaconda3/envs/poltype/share/psi4/basis/cc-pvtz-jkfit.gbs 
    atoms 2-5  entry C          line   125 file /home/daniele/anaconda3/envs/poltype/share/psi4/basis/cc-pvtz-jkfit.gbs 
    atoms 6-15 entry H          line    51 file /home/daniele/anaconda3/envs/poltype/share/psi4/basis/cc-pvtz-jkfit.gbs 

  ==> Pre-Iterations <==

   -------------------------------------------------------
    Irrep   Nso     Nmo     Nalpha   Nbeta   Ndocc  Nsocc
   -------------------------------------------------------
     A         95      95       0       0       0       0
   -------------------------------------------------------
    Total      95      95      21      21      21       0
   -------------------------------------------------------

  ==> Integral Setup <==

  ==> DiskDFJK: Density-Fitted J/K Matrices <==

    J tasked:                  Yes
    K tasked:                  Yes
    wK tasked:                 Yes
    Omega:               2.000E-01
    OpenMP threads:              8
    Integrals threads:           8
    Memory [MiB]:               34
    Algorithm:                Disk
    Integral Cache:           NONE
    Schwarz Cutoff:          1E-12
    Fitting Condition:       1E-10

   => Auxiliary Basis Set <=

  Basis Set: (6-311G AUX)
    Blend: CC-PVTZ-JKFIT
    Number of shells: 225
    Number of basis function: 695
    Number of Cartesian functions: 830
    Spherical Harmonics?: true
    Max angular momentum: 4

  Cached 100.0% of DFT collocation blocks in 0.665 [GiB].

  Minimum eigenvalue in the overlap matrix is 2.7411213055E-03.
  Using Symmetric Orthogonalization.

  SCF Guess: Superposition of Atomic Densities via on-the-fly atomic UHF.

  ==> Iterations <==

                           Total Energy        Delta E     RMS |[F,P]|

   @DF-RKS iter SAD:  -232.82698379923895   -2.32827e+02   0.00000e+00 
   @DF-RKS iter   1:  -233.27693795456955   -4.49954e-01   8.30226e-03 DIIS
   @DF-RKS iter   2:  -233.36397342242688   -8.70355e-02   7.56380e-03 DIIS
   @DF-RKS iter   3:  -233.57820525428582   -2.14232e-01   8.97605e-04 DIIS
   @DF-RKS iter   4:  -233.58068346035330   -2.47821e-03   3.25423e-04 DIIS
   @DF-RKS iter   5:  -233.58111410074125   -4.30640e-04   3.39935e-05 DIIS
   @DF-RKS iter   6:  -233.58112080541213   -6.70467e-06   1.64106e-05 DIIS
   @DF-RKS iter   7:  -233.58112202576200   -1.22035e-06   2.04228e-06 DIIS
   @DF-RKS iter   8:  -233.58112206250087   -3.67389e-08   3.40160e-07 DIIS
   @DF-RKS iter   9:  -233.58112206361778   -1.11692e-09   1.05701e-07 DIIS
   @DF-RKS iter  10:  -233.58112206369236   -7.45786e-11   4.01476e-08 DIIS
   @DF-RKS iter  11:  -233.58112206370399   -1.16245e-11   6.64598e-09 DIIS
  Energy and wave function converged.


  ==> Post-Iterations <==

    Orbital Energies [Eh]
    ---------------------

    Doubly Occupied:                                                      

       1A    -19.239468     2A    -10.331782     3A    -10.279734  
       4A    -10.273215     5A    -10.265740     6A     -1.126438  
       7A     -0.885336     8A     -0.818124     9A     -0.724992  
      10A     -0.669361    11A     -0.607785    12A     -0.550932  
      13A     -0.526569    14A     -0.513207    15A     -0.470501  
      16A     -0.458528    17A     -0.437809    18A     -0.411596  
      19A     -0.403977    20A     -0.394954    21A     -0.351406  

    Virtual:                                                              

      22A      0.114320    23A      0.135623    24A      0.151267  
      25A      0.160923    26A      0.182076    27A      0.197446  
      28A      0.204559    29A      0.218606    30A      0.231221  
      31A      0.235383    32A      0.264414    33A      0.289729  
      34A      0.297653    35A      0.322541    36A      0.395864  
      37A      0.400696    38A      0.422590    39A      0.437690  
      40A      0.448477    41A      0.479759    42A      0.502850  
      43A      0.552441    44A      0.580255    45A      0.615148  
      46A      0.632467    47A      0.649793    48A      0.664157  
      49A      0.678124    50A      0.683972    51A      0.685573  
      52A      0.698221    53A      0.705275    54A      0.716076  
      55A      0.727126    56A      0.751554    57A      0.765052  
      58A      0.858826    59A      0.962482    60A      0.981554  
      61A      1.027863    62A      1.080054    63A      1.113514  
      64A      1.278628    65A      1.587027    66A      2.261228  
      67A      2.332610    68A      2.352021    69A      2.353276  
      70A      2.359148    71A      2.367524    72A      2.396187  
      73A      2.399098    74A      2.424668    75A      2.439262  
      76A      2.879477    77A      2.918173    78A      2.934810  
      79A      2.943572    80A      2.959062    81A      2.977061  
      82A      2.988593    83A      3.080782    84A      3.101170  
      85A      3.165134    86A      3.182513    87A      3.299435  
      88A      4.953610    89A      5.020788    90A      5.182182  
      91A     23.439191    92A     23.570694    93A     23.642025  
      94A     23.715542    95A     49.958055  

    Final Occupation by Irrep:
              A 
    DOCC [    21 ]

  @DF-RKS Final Energy:  -233.58112206370399

   => Energetics <=

    Nuclear Repulsion Energy =            185.8761350151422391
    One-Electron Energy =                -683.7322842987907734
    Two-Electron Energy =                 287.4972683593030069
    DFT Exchange-Correlation Energy =     -23.2152917270307526
    Empirical Dispersion Energy =          -0.0069494123276861
    VV10 Nonlocal Energy =                  0.0000000000000000
    Total Energy =                       -233.5811220637039298

Computation Completed


Properties will be evaluated at   0.000000,   0.000000,   0.000000 [a0]

Properties computed using the SCF density matrix

  Nuclear Dipole Moment: [e a0]
     X:     3.8841      Y:     1.6707      Z:     1.3503

  Electronic Dipole Moment: [e a0]
     X:    -4.3975      Y:    -1.4277      Z:    -0.8593

  Dipole Moment: [e a0]
     X:    -0.5134      Y:     0.2430      Z:     0.4910     Total:     0.7508

  Dipole Moment: [D]
     X:    -1.3050      Y:     0.6177      Z:     1.2480     Total:     1.9084


*** tstop() called on daniele-Precision-5750 at Thu May 27 11:20:11 2021
Module time:
	user time   =      32.61 seconds =       0.54 minutes
	system time =       0.89 seconds =       0.01 minutes
	total time  =          5 seconds =       0.08 minutes
Total time:
	user time   =      32.61 seconds =       0.54 minutes
	system time =       0.89 seconds =       0.01 minutes
	total time  =          5 seconds =       0.08 minutes

*** tstart() called on daniele-Precision-5750
*** at Thu May 27 11:20:11 2021


         ------------------------------------------------------------
                                   SCF GRAD                          
                          Rob Parrish, Justin Turney,                
                       Andy Simmonett, and Alex Sokolov              
         ------------------------------------------------------------

  ==> Geometry <==

    Molecular point group: c1
    Full point group: C1

    Geometry (in Angstrom), charge = 0, multiplicity = 1:

       Center              X                  Y                   Z               Mass       
    ------------   -----------------  -----------------  -----------------  -----------------
         O           -1.788670245058    -0.789761693296    -0.529561598687    15.994914619570
         C           -0.032936245058     0.763008306704     0.041718401313    12.000000000000
         C            1.057284754942    -0.324540693296     0.251771401313    12.000000000000
         C           -1.477166245058     0.300690306704     0.342371401313    12.000000000000
         C            2.488218754942     0.163508306704    -0.051202598687    12.000000000000
         H            0.183602754942     1.631345306704     0.678113401313     1.007825032230
         H           -0.000882245058     1.124393306704    -0.994778598687     1.007825032230
         H            0.835695754942    -1.191552693296    -0.384888598687     1.007825032230
         H            1.014870754942    -0.690980693296     1.285932401313     1.007825032230
         H           -1.566890245058     0.002925306704     1.394668401313     1.007825032230
         H           -2.173576245058     1.135011306704     0.190912401313     1.007825032230
         H            2.579772754942     0.497294306704    -1.090401598687     1.007825032230
         H            3.213534754942    -0.641724693296     0.106107401313     1.007825032230
         H            2.768323754942     0.997316306704     0.601273401313     1.007825032230
         H           -2.702128245058    -1.077828693296    -0.343841598687     1.007825032230

  Nuclear repulsion =  185.876135015142239

  ==> Basis Set <==

  Basis Set: 6-311G
    Blend: 6-311G
    Number of shells: 65
    Number of basis function: 95
    Number of Cartesian functions: 95
    Spherical Harmonics?: true
    Max angular momentum: 1

  ==> DFJKGrad: Density-Fitted SCF Gradients <==

    Gradient:                    1
    J tasked:                  Yes
    K tasked:                  Yes
    wK tasked:                 Yes
    Omega:               2.000E-01
    OpenMP threads:              8
    Integrals threads:           8
    Memory [MiB]:              500
    Schwarz Cutoff:          0E+00
    Fitting Condition:       1E-10

   => Auxiliary Basis Set <=

  Basis Set: (6-311G AUX)
    Blend: CC-PVTZ-JKFIT
    Number of shells: 225
    Number of basis function: 695
    Number of Cartesian functions: 830
    Spherical Harmonics?: true
    Max angular momentum: 4

  ==> DFT Potential <==

   => Composite Functional: WB97X-D <= 

    wB97X-D Hyb-GGA Exchange-Correlation Functional

    J.-D. Chai and M. Head-Gordon, Phys. Chem. Chem. Phys. 10, 6615 (2008)

    Deriv               =              1
    GGA                 =           TRUE
    Meta                =          FALSE

    Exchange Hybrid     =           TRUE
    MP2 Hybrid          =          FALSE

   => Exchange-Correlation Functionals <=

    1.0000   wB97D range-separated functional

   => Exact (HF) Exchange <=

    0.7780            HF,LR [omega = 0.2000]
    0.2220               HF 

   => Molecular Quadrature <=

    Radial Scheme          =       TREUTLER
    Pruning Scheme         =           FLAT
    Nuclear Scheme         =       TREUTLER

    BS radius alpha        =              1
    Pruning alpha          =              1
    Radial Points          =             75
    Spherical Points       =            302
    Total Points           =         336151
    Total Blocks           =           2549
    Max Points             =            256
    Max Functions          =             91


  -Total Gradient:
     Atom            X                  Y                   Z
    ------   -----------------  -----------------  -----------------
       1        0.012971918422     0.007864910221     0.001427391859
       2        0.002831211753     0.005020571152    -0.000934172923
       3        0.004025397964    -0.000090962085     0.002554498670
       4       -0.017263917226    -0.012074149611    -0.005664041895
       5        0.004320117942    -0.000530970848    -0.001109518628
       6        0.000004901069     0.001915289392    -0.000049698876
       7       -0.000252798622     0.002343739387    -0.001944438343
       8        0.001837474630    -0.004383086651    -0.001868555157
       9        0.000950643594    -0.001866815069     0.000960988516
      10       -0.002541256319     0.001796376095    -0.000377256568
      11       -0.001843118162    -0.000893200897     0.002189314944
      12        0.000544435506     0.000135569876    -0.001816424891
      13        0.001677363386    -0.001514039942     0.000310331236
      14        0.000375572866     0.000603644984     0.001286191401
      15       -0.007679828862     0.001677909007     0.005048407674


*** tstop() called on daniele-Precision-5750 at Thu May 27 11:20:13 2021
Module time:
	user time   =      14.88 seconds =       0.25 minutes
	system time =       0.14 seconds =       0.00 minutes
	total time  =          2 seconds =       0.03 minutes
Total time:
	user time   =      47.50 seconds =       0.79 minutes
	system time =       1.03 seconds =       0.02 minutes
	total time  =          7 seconds =       0.12 minutes

			-----------------------------------------
			 OPTKING 2.0: for geometry optimizations 
			  - R.A. King,  Bethel University        
			-----------------------------------------
	At level 1: Red. Int., RFO, no backsteps, dynamic trust

	Internal coordinates to be generated automatically.
	Detected frag 1 with atoms:  1 2 3 4 5 6 7 8 9 10 11 12 13 14 15
	---Fragment 1 Bond Connectivity---
	 1 : 4 15
	 2 : 3 4 6 7
	 3 : 2 5 8 9
	 4 : 1 2 10 11
	 5 : 3 12 13 14
	 6 : 2
	 7 : 2
	 8 : 3
	 9 : 3
	 10 : 4
	 11 : 4
	 12 : 5
	 13 : 5
	 14 : 5
	 15 : 1

	Assuming in current code that numbering for constraints corresponds to unified fragment.
	Frozen dihedral atom list: 
	     3     2     4     1
	     2     4     1    15
	     4     2     3     5
	    12     5     3     2
	---Fragment 1 Geometry and Gradient---
	 O          -3.3800968919       -1.4924333047       -1.0007263881
	 C          -0.0622404828        1.4418767311        0.0788363529
	 C           1.9979786235       -0.6132930269        0.4757789947
	 C          -2.7914396449        0.5682223282        0.6469881817
	 C           4.7020519871        0.3089859189       -0.0967588884
	 H           0.3469589227        3.0827958457        1.2814486105
	 H          -0.0016672015        2.1247954070       -1.8798591070
	 H           1.5792361010       -2.2517082544       -0.7273340403
	 H           1.9178277796       -1.3057642683        2.4300600543
	 H          -2.9609934318        0.0055280285        2.6355413143
	 H          -4.1074638160        2.1448605190        0.3607721524
	 H           4.8750639728        0.9397500434       -2.0605603883
	 H           6.0727005815       -1.2126839183        0.2005139284
	 H           5.2313737234        1.8846546801        1.1362420550
	 H          -5.1062823390       -2.0368010405       -0.6497664521
	             0.0129719184        0.0078649102        0.0014273919
	             0.0028312118        0.0050205712       -0.0009341729
	             0.0040253980       -0.0000909621        0.0025544987
	            -0.0172639172       -0.0120741496       -0.0056640419
	             0.0043201179       -0.0005309708       -0.0011095186
	             0.0000049011        0.0019152894       -0.0000496989
	            -0.0002527986        0.0023437394       -0.0019444383
	             0.0018374746       -0.0043830867       -0.0018685552
	             0.0009506436       -0.0018668151        0.0009609885
	            -0.0025412563        0.0017963761       -0.0003772566
	            -0.0018431182       -0.0008932009        0.0021893149
	             0.0005444355        0.0001355699       -0.0018164249
	             0.0016773634       -0.0015140399        0.0003103312
	             0.0003755729        0.0006036450        0.0012861914
	            -0.0076798289        0.0016779090        0.0050484077

	Previous optimization step data not found.  Starting new optimization.

	---Fragment 1 Intrafragment Coordinates---
	 - Coordinate -           - BOHR/RAD -       - ANG/DEG -
	 R(1,4)           =         2.703291	       1.430520
	 R(1,15)          =         1.843699	       0.975643
	 R(2,3)           =         2.936969	       1.554177
	 R(2,4)           =         2.921403	       1.545940
	 R(2,6)           =         2.075171	       1.098133
	 R(2,7)           =         2.075219	       1.098159
	 R(3,5)           =         2.913831	       1.541933
	 R(3,8)           =         2.075387	       1.098247
	 R(3,9)           =         2.074887	       1.097983
	 R(4,10)          =         2.073576	       1.097289
	 R(4,11)          =         2.073554	       1.097278
	 R(5,12)          =         2.069858	       1.095322
	 R(5,13)          =         2.069427	       1.095094
	 R(5,14)          =         2.069591	       1.095180
	 B(1,4,2)         =         1.888990	     108.231139
	 B(1,4,10)        =         1.938924	     111.092169
	 B(1,4,11)        =         1.936134	     110.932306
	 B(2,3,5)         =         1.985521	     113.762000
	 B(2,3,8)         =         1.909793	     109.423079
	 B(2,3,9)         =         1.911062	     109.495777
	 B(2,4,10)        =         1.922019	     110.123585
	 B(2,4,11)        =         1.916314	     109.796707
	 B(3,2,4)         =         2.003996	     114.820507
	 B(3,2,6)         =         1.914183	     109.674634
	 B(3,2,7)         =         1.914916	     109.716601
	 B(3,5,12)        =         1.939542	     111.127592
	 B(3,5,13)        =         1.932308	     110.713115
	 B(3,5,14)        =         1.940421	     111.177959
	 B(4,1,15)        =         1.889061	     108.235218
	 B(4,2,6)         =         1.883868	     107.937686
	 B(4,2,7)         =         1.885191	     108.013477
	 B(5,3,8)         =         1.899916	     108.857185
	 B(5,3,9)         =         1.903449	     109.059575
	 B(6,2,7)         =         1.855642	     106.320478
	 B(8,3,9)         =         1.849120	     105.946792
	 B(10,4,11)       =         1.861690	     106.667006
	 B(12,5,13)       =         1.880739	     107.758413
	 B(12,5,14)       =         1.887942	     108.171102
	 B(13,5,14)       =         1.880568	     107.748635
	*D(1,4,2,3)       =        -1.049106	     -60.109366
	 D(1,4,2,6)       =         3.093303	     177.233220
	 D(1,4,2,7)       =         1.093622	      62.659900
	*D(2,3,5,12)      =        -1.045543	     -59.905221
	 D(2,3,5,13)      =        -3.134977	    -179.620960
	 D(2,3,5,14)      =         1.058412	      60.642535
	*D(2,4,1,15)      =        -3.135310	    -179.640029
	 D(3,2,4,10)      =         1.073482	      61.506008
	 D(3,2,4,11)      =         3.118377	     178.669824
	*D(4,2,3,5)       =        -3.138873	    -179.844201
	 D(4,2,3,8)       =         1.015271	      58.170735
	 D(4,2,3,9)       =        -1.004319	     -57.543232
	 D(5,3,2,6)       =        -1.014501	     -58.126600
	 D(5,3,2,7)       =         1.017646	      58.306809
	 D(6,2,3,8)       =         3.139644	     179.888336
	 D(6,2,3,9)       =         1.120054	      64.174368
	 D(6,2,4,10)      =        -1.067293	     -61.151406
	 D(6,2,4,11)      =         0.977601	      56.012410
	 D(7,2,3,8)       =        -1.111395	     -63.678255
	 D(7,2,3,9)       =        -3.130985	    -179.392223
	 D(7,2,4,10)      =        -3.066975	    -175.724726
	 D(7,2,4,11)      =        -1.022081	     -58.560910
	 D(8,3,5,12)      =         1.088953	      62.392435
	 D(8,3,5,13)      =        -1.000480	     -57.323303
	 D(8,3,5,14)      =        -3.090277	    -177.059809
	 D(9,3,5,12)      =         3.098895	     177.553602
	 D(9,3,5,13)      =         1.009461	      57.837863
	 D(9,3,5,14)      =        -1.080335	     -61.898642
	 D(10,4,1,15)     =         1.035735	      59.343263
	 D(11,4,1,15)     =        -1.031916	     -59.124438

	Current energy   :      -233.5811220637

	Generating empirical Hessian (Schlegel '84) for each fragment.
	Taking RFO optimization step.
	Going to follow RFO solution 1.
	Using RFO vector 1.
	Norm of target step-size    0.14975
	Projected energy change by RFO approximation:        -0.0030699523

	Back-transformation to cartesian coordinates...
	Could not converge backtransformation.
	Using first guess instead.

	Back-transformation to cartesian coordinates to adjust frozen coordinates...
	Successfully converged to displaced geometry.

	--- Internal Coordinate Step in ANG or DEG, aJ/ANG or AJ/DEG ---
	 ---------------------------------------------------------------------------
	   Coordinate                Previous        Force       Change         New 
	   ----------                --------       ------       ------       ------
	    1 R(1,4)          =      1.430520     0.101844     0.015857     1.446377
	    2 R(1,15)         =      0.975643    -0.063022    -0.005516     0.970127
	    3 R(2,3)          =      1.554177    -0.123931    -0.028213     1.525964
	    4 R(2,4)          =      1.545940    -0.133954    -0.030229     1.515711
	    5 R(2,6)          =      1.098133    -0.012242    -0.002190     1.095943
	    6 R(2,7)          =      1.098159    -0.021426    -0.003899     1.094260
	    7 R(3,5)          =      1.541933    -0.051700    -0.011528     1.530405
	    8 R(3,8)          =      1.098247    -0.034367    -0.005813     1.092434
	    9 R(3,9)          =      1.097983    -0.012299    -0.002126     1.095857
	   10 R(4,10)         =      1.097289     0.005338     0.001368     1.098657
	   11 R(4,11)         =      1.097278    -0.001543    -0.000259     1.097018
	   12 R(5,12)         =      1.095322    -0.014864    -0.002708     1.092614
	   13 R(5,13)         =      1.095094    -0.018714    -0.003464     1.091630
	   14 R(5,14)         =      1.095180    -0.010936    -0.001989     1.093191
	   15 B(1,4,2)        =    108.231139    -0.000028    -0.389061   107.842078
	   16 B(1,4,10)       =    111.092169     0.000034    -0.063966   111.028202
	   17 B(1,4,11)       =    110.932306     0.000058     0.319265   111.251572
	   18 B(2,3,5)        =    113.762000    -0.000378    -1.541130   112.220871
	   19 B(2,3,8)        =    109.423079    -0.000028    -0.754107   108.668971
	   20 B(2,3,9)        =    109.495777     0.000042    -0.412992   109.082785
	   21 B(2,4,10)       =    110.123585    -0.000109    -0.713676   109.409909
	   22 B(2,4,11)       =    109.796707    -0.000137    -0.822346   108.974360
	   23 B(3,2,4)        =    114.820507    -0.000464    -1.897058   112.923450
	   24 B(3,2,6)        =    109.674634     0.000098     0.206766   109.881400
	   25 B(3,2,7)        =    109.716601     0.000096    -0.082489   109.634112
	   26 B(3,5,12)       =    111.127592    -0.000039    -0.254964   110.872629
	   27 B(3,5,13)       =    110.713115    -0.000018     0.032604   110.745719
	   28 B(3,5,14)       =    111.177959     0.000034     0.118981   111.296940
	   29 B(4,1,15)       =    108.235218     0.000749     3.465017   111.700235
	   30 B(4,2,6)        =    107.937686     0.000168     0.527635   108.465320
	   31 B(4,2,7)        =    108.013477     0.000148     0.419950   108.433428
	   32 B(5,3,8)        =    108.857185     0.000246     1.464143   110.321328
	   33 B(5,3,9)        =    109.059575     0.000159     0.621725   109.681301
	   34 B(6,2,7)        =    106.320478    -0.000014     1.015039   107.335517
	   35 B(8,3,9)        =    105.946792    -0.000016     0.754826   106.701618
	   36 B(10,4,11)      =    106.667006     0.000178     1.635743   108.302749
	   37 B(12,5,13)      =    107.758413     0.000020     0.165750   107.924164
	   38 B(12,5,14)      =    108.171102    -0.000010    -0.263285   107.907817
	   39 B(13,5,14)      =    107.748635     0.000014     0.208472   107.957107
	   40 *D(1,4,2,3)     =    -60.109366     0.000000     0.000000   -60.109366
	   41 D(1,4,2,6)      =    177.233220     0.000014     0.618761   177.851982
	   42 D(1,4,2,7)      =     62.659900    -0.000019    -1.066775    61.593125
	   43 *D(2,3,5,12)    =    -59.905221     0.000000     0.000000   -59.905221
	   44 D(2,3,5,13)     =   -179.620960     0.000003    -0.062527  -179.683486
	   45 D(2,3,5,14)     =     60.642535    -0.000004    -0.425431    60.217104
	   46 *D(2,4,1,15)    =   -179.640029    -0.000000     0.000000  -179.640029
	   47 D(3,2,4,10)     =     61.506008    -0.000010    -0.745810    60.760198
	   48 D(3,2,4,11)     =    178.669824     0.000007     0.335230   179.005055
	   49 *D(4,2,3,5)     =   -179.844201     0.000000     0.000000  -179.844201
	   50 D(4,2,3,8)      =     58.170735    -0.000008    -0.291716    57.879019
	   51 D(4,2,3,9)      =    -57.543232    -0.000006    -0.546113   -58.089346
	   52 D(5,3,2,6)      =    -58.126600    -0.000007    -0.478128   -58.604728
	   53 D(5,3,2,7)      =     58.306809     0.000014     0.826113    59.132922
	   54 D(6,2,3,8)      =    179.888336    -0.000016    -0.769844   179.118492
	   55 D(6,2,3,9)      =     64.174368    -0.000014    -1.024242    63.150127
	   56 D(6,2,4,10)     =    -61.151406     0.000005    -0.127048   -61.278454
	   57 D(6,2,4,11)     =     56.012410     0.000021     0.953992    56.966402
	   58 D(7,2,3,8)      =    -63.678255     0.000006     0.534397   -63.143858
	   59 D(7,2,3,9)      =   -179.392223     0.000008     0.280000  -179.112223
	   60 D(7,2,4,10)     =   -175.724726    -0.000028    -1.812584  -177.537310
	   61 D(7,2,4,11)     =    -58.560910    -0.000012    -0.731544   -59.292454
	   62 D(8,3,5,12)     =     62.392435    -0.000026    -0.964197    61.428238
	   63 D(8,3,5,13)     =    -57.323303    -0.000023    -1.026724   -58.350027
	   64 D(8,3,5,14)     =   -177.059809    -0.000029    -1.389628  -178.449436
	   65 D(9,3,5,12)     =    177.553602     0.000020     1.128804   178.682406
	   66 D(9,3,5,13)     =     57.837863     0.000023     1.066277    58.904140
	   67 D(9,3,5,14)     =    -61.898642     0.000017     0.703373   -61.195269
	   68 D(10,4,1,15)    =     59.343263     0.000030     1.164684    60.507946
	   69 D(11,4,1,15)    =    -59.124438    -0.000035    -1.064783   -60.189222
	 ---------------------------------------------------------------------------
	Successfully symmetrized geometry.

  ==> Convergence Check <==

  Measures of convergence in internal coordinates in au.
  Criteria marked as inactive (o), active & met (*), and active & unmet ( ).
  --------------------------------------------------------------------------------------------- ~
   Step     Total Energy     Delta E     MAX Force     RMS Force      MAX Disp      RMS Disp    ~
  --------------------------------------------------------------------------------------------- ~
    Convergence Criteria             o    2.50e-03 *    1.70e-03 *    1.00e-02 *    6.70e-03 *  ~
  --------------------------------------------------------------------------------------------- ~
      1    -233.58112206   -2.34e+02 o    1.63e-02      3.82e-03      6.05e-02      1.80e-02    ~
  ---------------------------------------------------------------------------------------------

	Writing optimization data to binary file.
	Structure for next step:
	Cartesian Geometry (in Angstrom)
	    O    -1.7374141235  -0.7917396982  -0.5331453851
	    C    -0.0191982801   0.7718479694   0.0462709528
	    C     1.0224899977  -0.3231266002   0.2571827338
	    C    -1.4304772325   0.3107537028   0.3513338416
	    C     2.4412485618   0.1605469719  -0.0515632102
	    H     0.2103675844   1.6326008981   0.6846246647
	    H     0.0152689490   1.1171514859  -0.9915063289
	    H     0.7663228175  -1.1760305159  -0.3755462442
	    H     0.9693965557  -0.6731656622   1.2942728416
	    H    -1.4940824753   0.0014456766   1.4036316864
	    H    -2.1209467132   1.1490068404   0.1963088476
	    H     2.5220717170   0.4928133660  -1.0892872137
	    H     3.1652677600  -0.6419428803   0.1016075454
	    H     2.7243843011   0.9973715229   0.5923510605
	    H    -2.6356451128  -1.1284294841  -0.3883417784
			--------------------------
			 OPTKING Finished Execution 
			--------------------------

    Structure for next step:
    Molecular point group: c1
    Full point group: C1

    Geometry (in Angstrom), charge = 0, multiplicity = 1:

    O           -1.744618214807    -0.793915032052    -0.535175367047
    C           -0.026402364672     0.769672641653     0.044240973164
    C            1.015285917197    -0.325301932268     0.255152754987
    C           -1.437681322658     0.308578373236     0.349303863208
    C            2.434044486938     0.158371641788    -0.053593190187
    H            0.203163500728     1.630425573758     0.682594687541
    H            0.008064864517     1.114976159545    -0.993536312662
    H            0.759118735991    -1.178205851282    -0.377576225487
    H            0.962192475054    -0.675340995598     1.292242866838
    H           -1.501286565685    -0.000729654174     1.401601712090
    H           -2.128150806008     1.146831514205     0.194278868547
    H            2.514867642422     0.490638037197    -1.091317197811
    H            3.158063687982    -0.644118213532     0.099577566012
    H            2.717180227362     0.995196196111     0.590321083009
    H           -2.642849207618    -1.130604819325    -0.390371759730

gradient() will perform analytic gradient computation.

*** tstart() called on daniele-Precision-5750
*** at Thu May 27 11:20:13 2021

   => Loading Basis Set <=

    Name: 6-311G
    Role: ORBITAL
    Keyword: BASIS
    atoms 1    entry O          line   126 file /home/daniele/anaconda3/envs/poltype/share/psi4/basis/6-311g.gbs 
    atoms 2-5  entry C          line    92 file /home/daniele/anaconda3/envs/poltype/share/psi4/basis/6-311g.gbs 
    atoms 6-15 entry H          line    21 file /home/daniele/anaconda3/envs/poltype/share/psi4/basis/6-311g.gbs 


         ---------------------------------------------------------
                                   SCF
               by Justin Turney, Rob Parrish, Andy Simmonett
                          and Daniel G. A. Smith
                              RKS Reference
                        8 Threads,    667 MiB Core
         ---------------------------------------------------------

  ==> Geometry <==

    Molecular point group: c1
    Full point group: C1

    Geometry (in Angstrom), charge = 0, multiplicity = 1:

       Center              X                  Y                   Z               Mass       
    ------------   -----------------  -----------------  -----------------  -----------------
         O           -1.744618214807    -0.793915032052    -0.535175367047    15.994914619570
         C           -0.026402364672     0.769672641653     0.044240973164    12.000000000000
         C            1.015285917197    -0.325301932268     0.255152754987    12.000000000000
         C           -1.437681322658     0.308578373236     0.349303863208    12.000000000000
         C            2.434044486938     0.158371641788    -0.053593190187    12.000000000000
         H            0.203163500728     1.630425573758     0.682594687541     1.007825032230
         H            0.008064864517     1.114976159545    -0.993536312662     1.007825032230
         H            0.759118735991    -1.178205851282    -0.377576225487     1.007825032230
         H            0.962192475054    -0.675340995598     1.292242866838     1.007825032230
         H           -1.501286565685    -0.000729654174     1.401601712090     1.007825032230
         H           -2.128150806008     1.146831514205     0.194278868547     1.007825032230
         H            2.514867642422     0.490638037197    -1.091317197811     1.007825032230
         H            3.158063687982    -0.644118213532     0.099577566012     1.007825032230
         H            2.717180227362     0.995196196111     0.590321083009     1.007825032230
         H           -2.642849207618    -1.130604819325    -0.390371759730     1.007825032230

  Running in c1 symmetry.

  Rotational constants: A =      0.40816  B =      0.08040  C =      0.07352 [cm^-1]
  Rotational constants: A =  12236.38967  B =   2410.29319  C =   2204.12096 [MHz]
  Nuclear repulsion =  187.974601325362528

  Charge       = 0
  Multiplicity = 1
  Electrons    = 42
  Nalpha       = 21
  Nbeta        = 21

  ==> Algorithm <==

  SCF Algorithm Type is DF.
  DIIS enabled.
  MOM disabled.
  Fractional occupation disabled.
  Guess Type is READ.
  Energy threshold   = 1.00e-08
  Density threshold  = 1.00e-08
  Integral threshold = 0.00e+00

  ==> Primary Basis <==

  Basis Set: 6-311G
    Blend: 6-311G
    Number of shells: 65
    Number of basis function: 95
    Number of Cartesian functions: 95
    Spherical Harmonics?: true
    Max angular momentum: 1

  ==> DFT Potential <==

   => Composite Functional: WB97X-D <= 

    wB97X-D Hyb-GGA Exchange-Correlation Functional

    J.-D. Chai and M. Head-Gordon, Phys. Chem. Chem. Phys. 10, 6615 (2008)

    Deriv               =              1
    GGA                 =           TRUE
    Meta                =          FALSE

    Exchange Hybrid     =           TRUE
    MP2 Hybrid          =          FALSE

   => Exchange-Correlation Functionals <=

    1.0000   wB97D range-separated functional

   => Exact (HF) Exchange <=

    0.7780            HF,LR [omega = 0.2000]
    0.2220               HF 

   => Molecular Quadrature <=

    Radial Scheme          =       TREUTLER
    Pruning Scheme         =           FLAT
    Nuclear Scheme         =       TREUTLER

    BS radius alpha        =              1
    Pruning alpha          =              1
    Radial Points          =             75
    Spherical Points       =            302
    Total Points           =         336142
    Total Blocks           =           2556
    Max Points             =            256
    Max Functions          =             91

   => WB97X-D: Empirical Dispersion <=

    Chai and Head-Gordon Dispersion Correction
    Chai, J.-D.; Head-Gordon, M. (2010), J. Chem. Phys., 132: 6615-6620

        s6 =       1.000000

   => Loading Basis Set <=

    Name: (6-311G AUX)
    Role: JKFIT
    Keyword: DF_BASIS_SCF
    atoms 1    entry O          line   229 file /home/daniele/anaconda3/envs/poltype/share/psi4/basis/cc-pvtz-jkfit.gbs 
    atoms 2-5  entry C          line   125 file /home/daniele/anaconda3/envs/poltype/share/psi4/basis/cc-pvtz-jkfit.gbs 
    atoms 6-15 entry H          line    51 file /home/daniele/anaconda3/envs/poltype/share/psi4/basis/cc-pvtz-jkfit.gbs 

   => Loading Basis Set <=

    Name: 6-311G
    Role: ORBITAL
    Keyword: BASIS
    atoms 1    entry O          line   126 file /home/daniele/anaconda3/envs/poltype/share/psi4/basis/6-311g.gbs 
    atoms 2-5  entry C          line    92 file /home/daniele/anaconda3/envs/poltype/share/psi4/basis/6-311g.gbs 
    atoms 6-15 entry H          line    21 file /home/daniele/anaconda3/envs/poltype/share/psi4/basis/6-311g.gbs 

  Reading orbitals from file 180, no projection.

  ==> Pre-Iterations <==

   -------------------------------------------------------
    Irrep   Nso     Nmo     Nalpha   Nbeta   Ndocc  Nsocc
   -------------------------------------------------------
     A         95      95       0       0       0       0
   -------------------------------------------------------
    Total      95      95      21      21      21       0
   -------------------------------------------------------

  ==> Integral Setup <==

  ==> DiskDFJK: Density-Fitted J/K Matrices <==

    J tasked:                  Yes
    K tasked:                  Yes
    wK tasked:                 Yes
    Omega:               2.000E-01
    OpenMP threads:              8
    Integrals threads:           8
    Memory [MiB]:               34
    Algorithm:                Disk
    Integral Cache:           NONE
    Schwarz Cutoff:          1E-12
    Fitting Condition:       1E-10

   => Auxiliary Basis Set <=

  Basis Set: (6-311G AUX)
    Blend: CC-PVTZ-JKFIT
    Number of shells: 225
    Number of basis function: 695
    Number of Cartesian functions: 830
    Spherical Harmonics?: true
    Max angular momentum: 4

  Cached 100.0% of DFT collocation blocks in 0.671 [GiB].

  Minimum eigenvalue in the overlap matrix is 2.4038909105E-03.
  Using Symmetric Orthogonalization.

  SCF Guess: Orbitals guess was supplied from a previous computation.

  ==> Iterations <==

                           Total Energy        Delta E     RMS |[F,P]|

   @DF-RKS iter   0:  -233.59650242582077   -2.33597e+02   9.81798e-04 
   @DF-RKS iter   1:  -233.58270763635852    1.37948e-02   1.30353e-04 DIIS
   @DF-RKS iter   2:  -233.58276759965293   -5.99633e-05   9.09352e-05 DIIS
   @DF-RKS iter   3:  -233.58279895534781   -3.13557e-05   2.12637e-05 DIIS
   @DF-RKS iter   4:  -233.58280061703434   -1.66169e-06   9.29630e-06 DIIS
   @DF-RKS iter   5:  -233.58280095756820   -3.40534e-07   1.66876e-06 DIIS
   @DF-RKS iter   6:  -233.58280097611319   -1.85450e-08   2.63636e-07 DIIS
   @DF-RKS iter   7:  -233.58280097669422   -5.81025e-10   1.36635e-07 DIIS
   @DF-RKS iter   8:  -233.58280097681708   -1.22867e-10   1.25227e-08 DIIS
   @DF-RKS iter   9:  -233.58280097682001   -2.92744e-12   3.18647e-09 DIIS
  Energy and wave function converged.


  ==> Post-Iterations <==

    Orbital Energies [Eh]
    ---------------------

    Doubly Occupied:                                                      

       1A    -19.237000     2A    -10.330433     3A    -10.274332  
       4A    -10.267682     5A    -10.262753     6A     -1.119675  
       7A     -0.894372     8A     -0.821431     9A     -0.724671  
      10A     -0.669535    11A     -0.608177    12A     -0.553108  
      13A     -0.527627    14A     -0.516270    15A     -0.471107  
      16A     -0.457433    17A     -0.434258    18A     -0.414846  
      19A     -0.403596    20A     -0.392200    21A     -0.351990  

    Virtual:                                                              

      22A      0.116340    23A      0.136994    24A      0.150558  
      25A      0.159590    26A      0.182042    27A      0.198258  
      28A      0.207485    29A      0.222352    30A      0.235060  
      31A      0.237956    32A      0.261695    33A      0.295481  
      34A      0.303091    35A      0.328048    36A      0.395979  
      37A      0.405076    38A      0.428293    39A      0.438721  
      40A      0.453359    41A      0.486783    42A      0.505079  
      43A      0.546366    44A      0.583568    45A      0.624474  
      46A      0.640397    47A      0.657736    48A      0.670586  
      49A      0.682321    50A      0.688299    51A      0.690545  
      52A      0.701746    53A      0.712209    54A      0.719653  
      55A      0.732243    56A      0.754750    57A      0.761365  
      58A      0.863517    59A      0.965770    60A      0.983174  
      61A      1.034344    62A      1.086059    63A      1.121331  
      64A      1.297259    65A      1.580467    66A      2.261094  
      67A      2.333155    68A      2.353735    69A      2.355530  
      70A      2.362471    71A      2.369316    72A      2.399417  
      73A      2.404209    74A      2.428916    75A      2.441534  
      76A      2.874399    77A      2.910062    78A      2.925240  
      79A      2.938065    80A      2.959233    81A      2.991919  
      82A      2.995989    83A      3.083657    84A      3.115268  
      85A      3.177907    86A      3.190811    87A      3.320939  
      88A      4.956891    89A      5.027498    90A      5.203975  
      91A     23.438250    92A     23.577741    93A     23.654087  
      94A     23.740906    95A     49.956504  

    Final Occupation by Irrep:
              A 
    DOCC [    21 ]

  @DF-RKS Final Energy:  -233.58280097682001

   => Energetics <=

    Nuclear Repulsion Energy =            187.9746013253625279
    One-Electron Energy =                -687.9337480049547366
    Two-Electron Energy =                 289.6239905410092206
    DFT Exchange-Correlation Energy =     -23.2405977374936370
    Empirical Dispersion Energy =          -0.0070471007433497
    VV10 Nonlocal Energy =                  0.0000000000000000
    Total Energy =                       -233.5828009768199536

Computation Completed


Properties will be evaluated at   0.000000,   0.000000,   0.000000 [a0]

Properties computed using the SCF density matrix

  Nuclear Dipole Moment: [e a0]
     X:     3.7887      Y:     1.6359      Z:     1.3172

  Electronic Dipole Moment: [e a0]
     X:    -4.3129      Y:    -1.4122      Z:    -0.8433

  Dipole Moment: [e a0]
     X:    -0.5242      Y:     0.2237      Z:     0.4739     Total:     0.7412

  Dipole Moment: [D]
     X:    -1.3324      Y:     0.5685      Z:     1.2045     Total:     1.8840


*** tstop() called on daniele-Precision-5750 at Thu May 27 11:20:16 2021
Module time:
	user time   =      26.90 seconds =       0.45 minutes
	system time =       0.39 seconds =       0.01 minutes
	total time  =          3 seconds =       0.05 minutes
Total time:
	user time   =      75.00 seconds =       1.25 minutes
	system time =       1.43 seconds =       0.02 minutes
	total time  =         10 seconds =       0.17 minutes

*** tstart() called on daniele-Precision-5750
*** at Thu May 27 11:20:16 2021


         ------------------------------------------------------------
                                   SCF GRAD                          
                          Rob Parrish, Justin Turney,                
                       Andy Simmonett, and Alex Sokolov              
         ------------------------------------------------------------

  ==> Geometry <==

    Molecular point group: c1
    Full point group: C1

    Geometry (in Angstrom), charge = 0, multiplicity = 1:

       Center              X                  Y                   Z               Mass       
    ------------   -----------------  -----------------  -----------------  -----------------
         O           -1.744618214807    -0.793915032052    -0.535175367047    15.994914619570
         C           -0.026402364672     0.769672641653     0.044240973164    12.000000000000
         C            1.015285917197    -0.325301932268     0.255152754987    12.000000000000
         C           -1.437681322658     0.308578373236     0.349303863208    12.000000000000
         C            2.434044486938     0.158371641788    -0.053593190187    12.000000000000
         H            0.203163500728     1.630425573758     0.682594687541     1.007825032230
         H            0.008064864517     1.114976159545    -0.993536312662     1.007825032230
         H            0.759118735991    -1.178205851282    -0.377576225487     1.007825032230
         H            0.962192475054    -0.675340995598     1.292242866838     1.007825032230
         H           -1.501286565685    -0.000729654174     1.401601712090     1.007825032230
         H           -2.128150806008     1.146831514205     0.194278868547     1.007825032230
         H            2.514867642422     0.490638037197    -1.091317197811     1.007825032230
         H            3.158063687982    -0.644118213532     0.099577566012     1.007825032230
         H            2.717180227362     0.995196196111     0.590321083009     1.007825032230
         H           -2.642849207618    -1.130604819325    -0.390371759730     1.007825032230

  Nuclear repulsion =  187.974601325362528

  ==> Basis Set <==

  Basis Set: 6-311G
    Blend: 6-311G
    Number of shells: 65
    Number of basis function: 95
    Number of Cartesian functions: 95
    Spherical Harmonics?: true
    Max angular momentum: 1

  ==> DFJKGrad: Density-Fitted SCF Gradients <==

    Gradient:                    1
    J tasked:                  Yes
    K tasked:                  Yes
    wK tasked:                 Yes
    Omega:               2.000E-01
    OpenMP threads:              8
    Integrals threads:           8
    Memory [MiB]:              500
    Schwarz Cutoff:          0E+00
    Fitting Condition:       1E-10

   => Auxiliary Basis Set <=

  Basis Set: (6-311G AUX)
    Blend: CC-PVTZ-JKFIT
    Number of shells: 225
    Number of basis function: 695
    Number of Cartesian functions: 830
    Spherical Harmonics?: true
    Max angular momentum: 4

  ==> DFT Potential <==

   => Composite Functional: WB97X-D <= 

    wB97X-D Hyb-GGA Exchange-Correlation Functional

    J.-D. Chai and M. Head-Gordon, Phys. Chem. Chem. Phys. 10, 6615 (2008)

    Deriv               =              1
    GGA                 =           TRUE
    Meta                =          FALSE

    Exchange Hybrid     =           TRUE
    MP2 Hybrid          =          FALSE

   => Exchange-Correlation Functionals <=

    1.0000   wB97D range-separated functional

   => Exact (HF) Exchange <=

    0.7780            HF,LR [omega = 0.2000]
    0.2220               HF 

   => Molecular Quadrature <=

    Radial Scheme          =       TREUTLER
    Pruning Scheme         =           FLAT
    Nuclear Scheme         =       TREUTLER

    BS radius alpha        =              1
    Pruning alpha          =              1
    Radial Points          =             75
    Spherical Points       =            302
    Total Points           =         336142
    Total Blocks           =           2556
    Max Points             =            256
    Max Functions          =             91


  -Total Gradient:
     Atom            X                  Y                   Z
    ------   -----------------  -----------------  -----------------
       1        0.003365648101     0.001211784729     0.000732279943
       2        0.001122796418     0.000794340406     0.001479879748
       3       -0.002328107218     0.000503703990     0.000342507166
       4        0.000884884021    -0.003820261205    -0.002853613679
       5       -0.000238068728     0.002050964504    -0.000506670039
       6        0.000315697296     0.000039607219     0.000344343517
       7       -0.000376513148    -0.000337833904    -0.000267586288
       8       -0.000311244312    -0.000748218704    -0.000723342701
       9       -0.000241767431     0.000148942421    -0.000023390604
      10        0.000794634811     0.000997253921     0.001190611031
      11        0.001465695773     0.002036082721     0.000409075543
      12       -0.000083368620    -0.000099190000     0.000051760460
      13       -0.000839740168    -0.000572620566     0.000268642663
      14        0.000094467047    -0.000042363801     0.000031308431
      15       -0.003683522291    -0.002161138659    -0.000442184679


*** tstop() called on daniele-Precision-5750 at Thu May 27 11:20:18 2021
Module time:
	user time   =      14.94 seconds =       0.25 minutes
	system time =       0.15 seconds =       0.00 minutes
	total time  =          2 seconds =       0.03 minutes
Total time:
	user time   =      89.95 seconds =       1.50 minutes
	system time =       1.58 seconds =       0.03 minutes
	total time  =         12 seconds =       0.20 minutes

			-----------------------------------------
			 OPTKING 2.0: for geometry optimizations 
			  - R.A. King,  Bethel University        
			-----------------------------------------
	At level 1: Red. Int., RFO, no backsteps, dynamic trust

	Previous internal coordinate definitions found.
	---Fragment 1 Geometry and Gradient---
	 O          -3.2968506195       -1.5002819775       -1.0113348728
	 C          -0.0498932383        1.4544704990        0.0836033228
	 C           1.9186123225       -0.6147315601        0.4821688271
	 C          -2.7168239555        0.5831286137        0.6600886360
	 C           4.5996774575        0.2992790290       -0.1012764516
	 H           0.3839233751        3.0810578023        1.2899170141
	 H           0.0152403852        2.1069995780       -1.8775115266
	 H           1.4345265077       -2.2264863783       -0.7135156577
	 H           1.8182802578       -1.2762095230        2.4419851059
	 H          -2.8370204450       -0.0013788466        2.6486433728
	 H          -4.0216221770        2.1671974739        0.3671338535
	 H           4.7524110860        0.9271715170       -2.0622906199
	 H           5.9678754570       -1.2172070160        0.1881743280
	 H           5.1347264632        1.8806482517        1.1155451730
	 H          -4.9942611933       -2.1365334646       -0.7376957130
	             0.0033656481        0.0012117847        0.0007322799
	             0.0011227964        0.0007943404        0.0014798797
	            -0.0023281072        0.0005037040        0.0003425072
	             0.0008848840       -0.0038202612       -0.0028536137
	            -0.0002380687        0.0020509645       -0.0005066700
	             0.0003156973        0.0000396072        0.0003443435
	            -0.0003765131       -0.0003378339       -0.0002675863
	            -0.0003112443       -0.0007482187       -0.0007233427
	            -0.0002417674        0.0001489424       -0.0000233906
	             0.0007946348        0.0009972539        0.0011906110
	             0.0014656958        0.0020360827        0.0004090755
	            -0.0000833686       -0.0000991900        0.0000517605
	            -0.0008397402       -0.0005726206        0.0002686427
	             0.0000944670       -0.0000423638        0.0000313084
	            -0.0036835223       -0.0021611387       -0.0004421847

	---Fragment 1 Intrafragment Coordinates---
	 - Coordinate -           - BOHR/RAD -       - ANG/DEG -
	 R(1,4)           =         2.733256	       1.446377
	 R(1,15)          =         1.833275	       0.970127
	 R(2,3)           =         2.883655	       1.525964
	 R(2,4)           =         2.864279	       1.515711
	 R(2,6)           =         2.071033	       1.095943
	 R(2,7)           =         2.067851	       1.094260
	 R(3,5)           =         2.892047	       1.530405
	 R(3,8)           =         2.064402	       1.092434
	 R(3,9)           =         2.070869	       1.095857
	 R(4,10)          =         2.076161	       1.098657
	 R(4,11)          =         2.073064	       1.097018
	 R(5,12)          =         2.064740	       1.092614
	 R(5,13)          =         2.062881	       1.091630
	 R(5,14)          =         2.065832	       1.093191
	 B(1,4,2)         =         1.882199	     107.842078
	 B(1,4,10)        =         1.937808	     111.028202
	 B(1,4,11)        =         1.941706	     111.251572
	 B(2,3,5)         =         1.958624	     112.220871
	 B(2,3,8)         =         1.896631	     108.668971
	 B(2,3,9)         =         1.903854	     109.082785
	 B(2,4,10)        =         1.909563	     109.409909
	 B(2,4,11)        =         1.901961	     108.974360
	 B(3,2,4)         =         1.970886	     112.923450
	 B(3,2,6)         =         1.917792	     109.881400
	 B(3,2,7)         =         1.913476	     109.634112
	 B(3,5,12)        =         1.935092	     110.872629
	 B(3,5,13)        =         1.932877	     110.745719
	 B(3,5,14)        =         1.942498	     111.296940
	 B(4,1,15)        =         1.949537	     111.700235
	 B(4,2,6)         =         1.893077	     108.465320
	 B(4,2,7)         =         1.892520	     108.433428
	 B(5,3,8)         =         1.925470	     110.321328
	 B(5,3,9)         =         1.914300	     109.681301
	 B(6,2,7)         =         1.873358	     107.335517
	 B(8,3,9)         =         1.862295	     106.701618
	 B(10,4,11)       =         1.890240	     108.302749
	 B(12,5,13)       =         1.883632	     107.924164
	 B(12,5,14)       =         1.883347	     107.907817
	 B(13,5,14)       =         1.884207	     107.957107
	*D(1,4,2,3)       =        -1.049106	     -60.109366
	 D(1,4,2,6)       =         3.104103	     177.851982
	 D(1,4,2,7)       =         1.075003	      61.593125
	*D(2,3,5,12)      =        -1.045543	     -59.905221
	 D(2,3,5,13)      =        -3.136068	    -179.683486
	 D(2,3,5,14)      =         1.050987	      60.217104
	*D(2,4,1,15)      =        -3.135310	    -179.640029
	 D(3,2,4,10)      =         1.060466	      60.760198
	 D(3,2,4,11)      =         3.124228	     179.005055
	*D(4,2,3,5)       =        -3.138873	    -179.844201
	 D(4,2,3,8)       =         1.010179	      57.879019
	 D(4,2,3,9)       =        -1.013850	     -58.089346
	 D(5,3,2,6)       =        -1.022845	     -58.604728
	 D(5,3,2,7)       =         1.032064	      59.132922
	 D(6,2,3,8)       =         3.126207	     179.118492
	 D(6,2,3,9)       =         1.102178	      63.150127
	 D(6,2,4,10)      =        -1.069511	     -61.278454
	 D(6,2,4,11)      =         0.994251	      56.966402
	 D(7,2,3,8)       =        -1.102068	     -63.143858
	 D(7,2,3,9)       =        -3.126098	    -179.112223
	 D(7,2,4,10)      =        -3.098611	    -177.537310
	 D(7,2,4,11)      =        -1.034849	     -59.292454
	 D(8,3,5,12)      =         1.072125	      61.428238
	 D(8,3,5,13)      =        -1.018400	     -58.350027
	 D(8,3,5,14)      =        -3.114530	    -178.449436
	 D(9,3,5,12)      =         3.118596	     178.682406
	 D(9,3,5,13)      =         1.028071	      58.904140
	 D(9,3,5,14)      =        -1.068059	     -61.195269
	 D(10,4,1,15)     =         1.056063	      60.507946
	 D(11,4,1,15)     =        -1.050500	     -60.189222

	Current energy   :      -233.5828009768

	Energy change for the previous step:
		Projected    :        -0.0030699523
		Actual       :        -0.0016789131

	Performing BFGS update.
	Previous computed or guess Hessian on step 1.
	Steps to be used in Hessian update: 1
	Taking RFO optimization step.
	Going to follow RFO solution 1.
	Using RFO vector 1.
	Norm of target step-size    0.04807
	Projected energy change by RFO approximation:        -0.0000411909

	Back-transformation to cartesian coordinates...
	Successfully converged to displaced geometry.

	Back-transformation to cartesian coordinates to adjust frozen coordinates...
	Successfully converged to displaced geometry.

	--- Internal Coordinate Step in ANG or DEG, aJ/ANG or AJ/DEG ---
	 ---------------------------------------------------------------------------
	   Coordinate                Previous        Force       Change         New 
	   ----------                --------       ------       ------       ------
	    1 R(1,4)          =      1.446377    -0.005253     0.000025     1.446402
	    2 R(1,15)         =      0.970127    -0.033645    -0.004094     0.966033
	    3 R(2,3)          =      1.525964     0.030072     0.004608     1.530573
	    4 R(2,4)          =      1.515711     0.019150     0.002309     1.518020
	    5 R(2,6)          =      1.095943    -0.002454    -0.000512     1.095431
	    6 R(2,7)          =      1.094260    -0.001119    -0.000378     1.093882
	    7 R(3,5)          =      1.530405     0.004286     0.000283     1.530689
	    8 R(3,8)          =      1.092434    -0.008860    -0.001790     1.090644
	    9 R(3,9)          =      1.095857     0.000485    -0.000047     1.095810
	   10 R(4,10)         =      1.098657    -0.006629    -0.001057     1.097601
	   11 R(4,11)         =      1.097018    -0.004716    -0.000773     1.096245
	   12 R(5,12)         =      1.092614     0.000765    -0.000011     1.092603
	   13 R(5,13)         =      1.091630     0.000799    -0.000034     1.091596
	   14 R(5,14)         =      1.093191    -0.000168    -0.000125     1.093066
	   15 B(1,4,2)        =    107.842078    -0.000048    -0.235228   107.606850
	   16 B(1,4,10)       =    111.028202    -0.000059    -0.642762   110.385441
	   17 B(1,4,11)       =    111.251572    -0.000107    -0.676881   110.574691
	   18 B(2,3,5)        =    112.220871     0.000117     0.318870   112.539740
	   19 B(2,3,8)        =    108.668971    -0.000026    -0.070614   108.598357
	   20 B(2,3,9)        =    109.082785    -0.000029    -0.036014   109.046770
	   21 B(2,4,10)       =    109.409909     0.000090     0.385771   109.795681
	   22 B(2,4,11)       =    108.974360     0.000171     1.044025   110.018385
	   23 B(3,2,4)        =    112.923450     0.000172     0.507648   113.431097
	   24 B(3,2,6)        =    109.881400    -0.000033    -0.065922   109.815478
	   25 B(3,2,7)        =    109.634112    -0.000059    -0.112054   109.522058
	   26 B(3,5,12)       =    110.872629    -0.000011    -0.089722   110.782906
	   27 B(3,5,13)       =    110.745719     0.000117     0.555888   111.301607
	   28 B(3,5,14)       =    111.296940    -0.000027    -0.153050   111.143890
	   29 B(4,1,15)       =    111.700235    -0.000181    -0.561365   111.138869
	   30 B(4,2,6)        =    108.465320    -0.000064    -0.235015   108.230305
	   31 B(4,2,7)        =    108.433428    -0.000035     0.097540   108.530968
	   32 B(5,3,8)        =    110.321328    -0.000041    -0.002427   110.318901
	   33 B(5,3,9)        =    109.681301    -0.000041    -0.155268   109.526033
	   34 B(6,2,7)        =    107.335517     0.000012    -0.229670   107.105847
	   35 B(8,3,9)        =    106.701618     0.000014    -0.074464   106.627154
	   36 B(10,4,11)      =    108.302749    -0.000037     0.155668   108.458416
	   37 B(12,5,13)      =    107.924164    -0.000051    -0.096448   107.827715
	   38 B(12,5,14)      =    107.907817     0.000006    -0.155685   107.752132
	   39 B(13,5,14)      =    107.957107    -0.000038    -0.078764   107.878343
	   40 *D(1,4,2,3)     =    -60.109366     0.000000    -0.000000   -60.109366
	   41 D(1,4,2,6)      =    177.851982    -0.000006    -0.083459   177.768523
	   42 D(1,4,2,7)      =     61.593125     0.000003     0.261519    61.854645
	   43 *D(2,3,5,12)    =    -59.905221    -0.000000    -0.000000   -59.905221
	   44 D(2,3,5,13)     =   -179.683486    -0.000001    -0.185877  -179.869364
	   45 D(2,3,5,14)     =     60.217104    -0.000004    -0.357597    59.859508
	   46 *D(2,4,1,15)    =   -179.640029     0.000000    -0.000000  -179.640029
	   47 D(3,2,4,10)     =     60.760198    -0.000011    -0.695267    60.064931
	   48 D(3,2,4,11)     =    179.005055     0.000013     0.352905   179.357960
	   49 *D(4,2,3,5)     =   -179.844201     0.000000    -0.000000  -179.844201
	   50 D(4,2,3,8)      =     57.879019    -0.000002    -0.157885    57.721134
	   51 D(4,2,3,9)      =    -58.089346     0.000001    -0.011115   -58.100461
	   52 D(5,3,2,6)      =    -58.604728     0.000003    -0.003019   -58.607747
	   53 D(5,3,2,7)      =     59.132922    -0.000007    -0.387469    58.745452
	   54 D(6,2,3,8)      =    179.118492     0.000001    -0.160904   178.957588
	   55 D(6,2,3,9)      =     63.150127     0.000004    -0.014134    63.135992
	   56 D(6,2,4,10)     =    -61.278454    -0.000017    -0.778726   -62.057180
	   57 D(6,2,4,11)     =     56.966402     0.000007     0.269446    57.235849
	   58 D(7,2,3,8)      =    -63.143858    -0.000008    -0.545355   -63.689213
	   59 D(7,2,3,9)      =   -179.112223    -0.000005    -0.398585  -179.510808
	   60 D(7,2,4,10)     =   -177.537310    -0.000008    -0.433748  -177.971058
	   61 D(7,2,4,11)     =    -59.292454     0.000017     0.614425   -58.678030
	   62 D(8,3,5,12)     =     61.428238     0.000004     0.126350    61.554589
	   63 D(8,3,5,13)     =    -58.350027     0.000003    -0.059527   -58.409554
	   64 D(8,3,5,14)     =   -178.449436     0.000000    -0.231246  -178.680683
	   65 D(9,3,5,12)     =    178.682406    -0.000003    -0.058840   178.623566
	   66 D(9,3,5,13)     =     58.904140    -0.000004    -0.244718    58.659423
	   67 D(9,3,5,14)     =    -61.195269    -0.000007    -0.416437   -61.611706
	   68 D(10,4,1,15)    =     60.507946    -0.000010     0.051543    60.559489
	   69 D(11,4,1,15)    =    -60.189222     0.000026     0.730578   -59.458644
	 ---------------------------------------------------------------------------
	Successfully symmetrized geometry.

  ==> Convergence Check <==

  Measures of convergence in internal coordinates in au.
  Criteria marked as inactive (o), active & met (*), and active & unmet ( ).
  ---------------------------------------------------------------------------------------------
   Step     Total Energy     Delta E     MAX Force     RMS Force      MAX Disp      RMS Disp   
  ---------------------------------------------------------------------------------------------
    Convergence Criteria             o    2.50e-03 *    1.70e-03 *    1.00e-02 *    6.70e-03 *
  ---------------------------------------------------------------------------------------------
      2    -233.58280098   -1.68e-03 o    4.08e-03      1.04e-03 *    1.82e-02      5.78e-03 *  ~
  ---------------------------------------------------------------------------------------------

	Writing optimization data to binary file.
	Structure for next step:
	Cartesian Geometry (in Angstrom)
	    O    -1.7501203192  -0.7904170955  -0.5326614581
	    C    -0.0307717880   0.7670993643   0.0527892764
	    C     1.0236074271  -0.3252189458   0.2471561251
	    C    -1.4432481878   0.3044093951   0.3613536613
	    C     2.4398657996   0.1640210768  -0.0656757085
	    H     0.1979677579   1.6228915335   0.6972019057
	    H    -0.0001061812   1.1250555291  -0.9804116834
	    H     0.7669178786  -1.1734988563  -0.3884819460
	    H     0.9802299562  -0.6841005176   1.2816227832
	    H    -1.5062766163  -0.0259779183   1.4061496385
	    H    -2.1490341409   1.1304255431   0.2153495138
	    H     2.5124941789   0.5045116311  -1.1013260062
	    H     3.1745169989  -0.6306266889   0.0771644070
	    H     2.7199213049   1.0000347655   0.5804231728
	    H    -2.6449710288  -1.1221351844  -0.3829093650
			--------------------------
			 OPTKING Finished Execution 
			--------------------------

    Structure for next step:
    Molecular point group: c1
    Full point group: C1

    Geometry (in Angstrom), charge = 0, multiplicity = 1:

    O           -1.749631328613    -0.790974974170    -0.533247105398
    C           -0.030282790644     0.766541491774     0.052203631369
    C            1.024096428543    -0.325776822670     0.246570480858
    C           -1.442759195983     0.303851520720     0.360768017466
    C            2.440354806652     0.163463201887    -0.066261354049
    H            0.198456756176     1.622333664329     0.696616263151
    H            0.000382816232     1.124497657929    -0.980997332511
    H            0.767406879100    -1.174056736451    -0.389067592737
    H            0.980718957497    -0.684658395860     1.281037143026
    H           -1.505787624733    -0.026535793951     1.405563998808
    H           -2.148545151898     1.129867671922     0.214763869363
    H            2.512983186272     0.503953757535    -1.101911655786
    H            3.175006008831    -0.631184566975     0.076578762068
    H            2.720410313020     0.999476893833     0.579837529804
    H           -2.644482041690    -1.122693064409    -0.383495011758

gradient() will perform analytic gradient computation.

*** tstart() called on daniele-Precision-5750
*** at Thu May 27 11:20:18 2021

   => Loading Basis Set <=

    Name: 6-311G
    Role: ORBITAL
    Keyword: BASIS
    atoms 1    entry O          line   126 file /home/daniele/anaconda3/envs/poltype/share/psi4/basis/6-311g.gbs 
    atoms 2-5  entry C          line    92 file /home/daniele/anaconda3/envs/poltype/share/psi4/basis/6-311g.gbs 
    atoms 6-15 entry H          line    21 file /home/daniele/anaconda3/envs/poltype/share/psi4/basis/6-311g.gbs 


         ---------------------------------------------------------
                                   SCF
               by Justin Turney, Rob Parrish, Andy Simmonett
                          and Daniel G. A. Smith
                              RKS Reference
                        8 Threads,    667 MiB Core
         ---------------------------------------------------------

  ==> Geometry <==

    Molecular point group: c1
    Full point group: C1

    Geometry (in Angstrom), charge = 0, multiplicity = 1:

       Center              X                  Y                   Z               Mass       
    ------------   -----------------  -----------------  -----------------  -----------------
         O           -1.749631328613    -0.790974974170    -0.533247105398    15.994914619570
         C           -0.030282790644     0.766541491774     0.052203631369    12.000000000000
         C            1.024096428543    -0.325776822670     0.246570480858    12.000000000000
         C           -1.442759195983     0.303851520720     0.360768017466    12.000000000000
         C            2.440354806652     0.163463201887    -0.066261354049    12.000000000000
         H            0.198456756176     1.622333664329     0.696616263151     1.007825032230
         H            0.000382816232     1.124497657929    -0.980997332511     1.007825032230
         H            0.767406879100    -1.174056736451    -0.389067592737     1.007825032230
         H            0.980718957497    -0.684658395860     1.281037143026     1.007825032230
         H           -1.505787624733    -0.026535793951     1.405563998808     1.007825032230
         H           -2.148545151898     1.129867671922     0.214763869363     1.007825032230
         H            2.512983186272     0.503953757535    -1.101911655786     1.007825032230
         H            3.175006008831    -0.631184566975     0.076578762068     1.007825032230
         H            2.720410313020     0.999476893833     0.579837529804     1.007825032230
         H           -2.644482041690    -1.122693064409    -0.383495011758     1.007825032230

  Running in c1 symmetry.

  Rotational constants: A =      0.40907  B =      0.07993  C =      0.07315 [cm^-1]
  Rotational constants: A =  12263.63063  B =   2396.12863  C =   2192.98180 [MHz]
  Nuclear repulsion =  187.756110031235892

  Charge       = 0
  Multiplicity = 1
  Electrons    = 42
  Nalpha       = 21
  Nbeta        = 21

  ==> Algorithm <==

  SCF Algorithm Type is DF.
  DIIS enabled.
  MOM disabled.
  Fractional occupation disabled.
  Guess Type is READ.
  Energy threshold   = 1.00e-08
  Density threshold  = 1.00e-08
  Integral threshold = 0.00e+00

  ==> Primary Basis <==

  Basis Set: 6-311G
    Blend: 6-311G
    Number of shells: 65
    Number of basis function: 95
    Number of Cartesian functions: 95
    Spherical Harmonics?: true
    Max angular momentum: 1

  ==> DFT Potential <==

   => Composite Functional: WB97X-D <= 

    wB97X-D Hyb-GGA Exchange-Correlation Functional

    J.-D. Chai and M. Head-Gordon, Phys. Chem. Chem. Phys. 10, 6615 (2008)

    Deriv               =              1
    GGA                 =           TRUE
    Meta                =          FALSE

    Exchange Hybrid     =           TRUE
    MP2 Hybrid          =          FALSE

   => Exchange-Correlation Functionals <=

    1.0000   wB97D range-separated functional

   => Exact (HF) Exchange <=

    0.7780            HF,LR [omega = 0.2000]
    0.2220               HF 

   => Molecular Quadrature <=

    Radial Scheme          =       TREUTLER
    Pruning Scheme         =           FLAT
    Nuclear Scheme         =       TREUTLER

    BS radius alpha        =              1
    Pruning alpha          =              1
    Radial Points          =             75
    Spherical Points       =            302
    Total Points           =         336147
    Total Blocks           =           2556
    Max Points             =            256
    Max Functions          =             91

   => WB97X-D: Empirical Dispersion <=

    Chai and Head-Gordon Dispersion Correction
    Chai, J.-D.; Head-Gordon, M. (2010), J. Chem. Phys., 132: 6615-6620

        s6 =       1.000000

   => Loading Basis Set <=

    Name: (6-311G AUX)
    Role: JKFIT
    Keyword: DF_BASIS_SCF
    atoms 1    entry O          line   229 file /home/daniele/anaconda3/envs/poltype/share/psi4/basis/cc-pvtz-jkfit.gbs 
    atoms 2-5  entry C          line   125 file /home/daniele/anaconda3/envs/poltype/share/psi4/basis/cc-pvtz-jkfit.gbs 
    atoms 6-15 entry H          line    51 file /home/daniele/anaconda3/envs/poltype/share/psi4/basis/cc-pvtz-jkfit.gbs 

   => Loading Basis Set <=

    Name: 6-311G
    Role: ORBITAL
    Keyword: BASIS
    atoms 1    entry O          line   126 file /home/daniele/anaconda3/envs/poltype/share/psi4/basis/6-311g.gbs 
    atoms 2-5  entry C          line    92 file /home/daniele/anaconda3/envs/poltype/share/psi4/basis/6-311g.gbs 
    atoms 6-15 entry H          line    21 file /home/daniele/anaconda3/envs/poltype/share/psi4/basis/6-311g.gbs 

  Reading orbitals from file 180, no projection.

  ==> Pre-Iterations <==

   -------------------------------------------------------
    Irrep   Nso     Nmo     Nalpha   Nbeta   Ndocc  Nsocc
   -------------------------------------------------------
     A         95      95       0       0       0       0
   -------------------------------------------------------
    Total      95      95      21      21      21       0
   -------------------------------------------------------

  ==> Integral Setup <==

  ==> DiskDFJK: Density-Fitted J/K Matrices <==

    J tasked:                  Yes
    K tasked:                  Yes
    wK tasked:                 Yes
    Omega:               2.000E-01
    OpenMP threads:              8
    Integrals threads:           8
    Memory [MiB]:               34
    Algorithm:                Disk
    Integral Cache:           NONE
    Schwarz Cutoff:          1E-12
    Fitting Condition:       1E-10

   => Auxiliary Basis Set <=

  Basis Set: (6-311G AUX)
    Blend: CC-PVTZ-JKFIT
    Number of shells: 225
    Number of basis function: 695
    Number of Cartesian functions: 830
    Spherical Harmonics?: true
    Max angular momentum: 4

  Cached 100.0% of DFT collocation blocks in 0.670 [GiB].

  Minimum eigenvalue in the overlap matrix is 2.4518128923E-03.
  Using Symmetric Orthogonalization.

  SCF Guess: Orbitals guess was supplied from a previous computation.

  ==> Iterations <==

                           Total Energy        Delta E     RMS |[F,P]|

   @DF-RKS iter   0:  -233.58540599192682   -2.33585e+02   2.36879e-04 
   @DF-RKS iter   1:  -233.58294013588164    2.46586e-03   4.44072e-05 DIIS
   @DF-RKS iter   2:  -233.58294850428808   -8.36841e-06   3.91871e-05 DIIS
   @DF-RKS iter   3:  -233.58295360693634   -5.10265e-06   7.62721e-06 DIIS
   @DF-RKS iter   4:  -233.58295390089313   -2.93957e-07   3.07991e-06 DIIS
   @DF-RKS iter   5:  -233.58295394597596   -4.50828e-08   4.72821e-07 DIIS
   @DF-RKS iter   6:  -233.58295394750093   -1.52497e-09   8.58726e-08 DIIS
   @DF-RKS iter   7:  -233.58295394756377   -6.28404e-11   4.37562e-08 DIIS
   @DF-RKS iter   8:  -233.58295394757448   -1.07150e-11   4.97398e-09 DIIS
  Energy and wave function converged.


  ==> Post-Iterations <==

    Orbital Energies [Eh]
    ---------------------

    Doubly Occupied:                                                      

       1A    -19.235966     2A    -10.330596     3A    -10.274996  
       4A    -10.268230     5A    -10.263076     6A     -1.120627  
       7A     -0.893332     8A     -0.821359     9A     -0.725209  
      10A     -0.669960    11A     -0.607699    12A     -0.553348  
      13A     -0.527742    14A     -0.516380    15A     -0.470560  
      16A     -0.457538    17A     -0.434809    18A     -0.414121  
      19A     -0.404065    20A     -0.393238    21A     -0.351653  

    Virtual:                                                              

      22A      0.116610    23A      0.136981    24A      0.151339  
      25A      0.159839    26A      0.182317    27A      0.198013  
      28A      0.207299    29A      0.221584    30A      0.234624  
      31A      0.237833    32A      0.261305    33A      0.295350  
      34A      0.301940    35A      0.327922    36A      0.395821  
      37A      0.404365    38A      0.427958    39A      0.438165  
      40A      0.453246    41A      0.487840    42A      0.506197  
      43A      0.547013    44A      0.584519    45A      0.624078  
      46A      0.638987    47A      0.655987    48A      0.670129  
      49A      0.682236    50A      0.688122    51A      0.690135  
      52A      0.701642    53A      0.711619    54A      0.719550  
      55A      0.731501    56A      0.754037    57A      0.765789  
      58A      0.862572    59A      0.966213    60A      0.982060  
      61A      1.034062    62A      1.085023    63A      1.120273  
      64A      1.295817    65A      1.583920    66A      2.261653  
      67A      2.332656    68A      2.353518    69A      2.354994  
      70A      2.362472    71A      2.369462    72A      2.399194  
      73A      2.403465    74A      2.428434    75A      2.441455  
      76A      2.872952    77A      2.915208    78A      2.925373  
      79A      2.935196    80A      2.958387    81A      2.993413  
      82A      2.995974    83A      3.082804    84A      3.113793  
      85A      3.177850    86A      3.190685    87A      3.317910  
      88A      4.956643    89A      5.027909    90A      5.206203  
      91A     23.438084    92A     23.577224    93A     23.653731  
      94A     23.737004    95A     49.958416  

    Final Occupation by Irrep:
              A 
    DOCC [    21 ]

  @DF-RKS Final Energy:  -233.58295394757448

   => Energetics <=

[...]

  Basis Set: (6-311G AUX)
    Blend: CC-PVTZ-JKFIT
    Number of shells: 225
    Number of basis function: 695
    Number of Cartesian functions: 830
    Spherical Harmonics?: true
    Max angular momentum: 4

  ==> DFT Potential <==

   => Composite Functional: WB97X-D <= 

    wB97X-D Hyb-GGA Exchange-Correlation Functional

    J.-D. Chai and M. Head-Gordon, Phys. Chem. Chem. Phys. 10, 6615 (2008)

    Deriv               =              1
    GGA                 =           TRUE
    Meta                =          FALSE

    Exchange Hybrid     =           TRUE
    MP2 Hybrid          =          FALSE

   => Exchange-Correlation Functionals <=

    1.0000   wB97D range-separated functional

   => Exact (HF) Exchange <=

    0.7780            HF,LR [omega = 0.2000]
    0.2220               HF 

   => Molecular Quadrature <=

    Radial Scheme          =       TREUTLER
    Pruning Scheme         =           FLAT
    Nuclear Scheme         =       TREUTLER

    BS radius alpha        =              1
    Pruning alpha          =              1
    Radial Points          =             75
    Spherical Points       =            302
    Total Points           =         336147
    Total Blocks           =           2556
    Max Points             =            256
    Max Functions          =             91


  -Total Gradient:
     Atom            X                  Y                   Z
    ------   -----------------  -----------------  -----------------
       1        0.000504549242     0.000708986920     0.001805770746
       2        0.000661128709    -0.000150977129     0.000492544314
       3       -0.000471267306     0.000107759594    -0.000850190049
       4       -0.000614932368    -0.000696963294    -0.001446569366
       5        0.000398301135     0.000202755785     0.000101699607
       6       -0.000181986138    -0.000233469596    -0.000004794551
       7       -0.000002649174    -0.000091399258     0.000070366992
       8        0.000025624178     0.000121729745     0.000063966742
       9        0.000013158663     0.000100741611    -0.000110712969
      10        0.000042699779    -0.000126126885     0.000119582745
      11       -0.000229182792     0.000256617818    -0.000026347986
      12       -0.000146065242    -0.000092457503     0.000199999571
      13        0.000005675513    -0.000050192686     0.000009924320
      14       -0.000078178418    -0.000129113456    -0.000108180976
      15        0.000024807571     0.000080682630    -0.000291814906


*** tstop() called on daniele-Precision-5750 at Thu May 27 11:20:24 2021
Module time:
	user time   =      14.92 seconds =       0.25 minutes
	system time =       0.14 seconds =       0.00 minutes
	total time  =          2 seconds =       0.03 minutes
Total time:
	user time   =     130.96 seconds =       2.18 minutes
	system time =       2.12 seconds =       0.04 minutes
	total time  =         18 seconds =       0.30 minutes

			-----------------------------------------
			 OPTKING 2.0: for geometry optimizations 
			  - R.A. King,  Bethel University        
			-----------------------------------------
	At level 1: Red. Int., RFO, no backsteps, dynamic trust

	Previous internal coordinate definitions found.
	---Fragment 1 Geometry and Gradient---
	 O          -3.3063240316       -1.4947260733       -1.0076909864
	 C          -0.0572261806        1.4485534833        0.0986505660
	 C           1.9352617760       -0.6156289729        0.4659506794
	 C          -2.7264197454        0.5741961570        0.6817527478
	 C           4.6116022335        0.3089006832       -0.1252158119
	 H           0.3750289169        3.0657663097        1.3164139519
	 H           0.0007234178        2.1249926022       -1.8538162883
	 H           1.4501888283       -2.2186456876       -0.7352311946
	 H           1.8532902357       -1.2938168577        2.4208093569
	 H          -2.8455262138       -0.0501453831        2.6561310096
	 H          -4.0601619053        2.1351404579        0.4058448947
	 H           4.7488499799        0.9523345816       -2.0823112439
	 H           5.9998918034       -1.1927659662        0.1447128873
	 H           5.1408304405        1.8887375981        1.0957341286
	 H          -4.9973468025       -2.1215824147       -0.7247005427
	             0.0005045492        0.0007089869        0.0018057707
	             0.0006611287       -0.0001509771        0.0004925443
	            -0.0004712673        0.0001077596       -0.0008501900
	            -0.0006149324       -0.0006969633       -0.0014465694
	             0.0003983011        0.0002027558        0.0001016996
	            -0.0001819861       -0.0002334696       -0.0000047946
	            -0.0000026492       -0.0000913993        0.0000703670
	             0.0000256242        0.0001217297        0.0000639667
	             0.0000131587        0.0001007416       -0.0001107130
	             0.0000426998       -0.0001261269        0.0001195827
	            -0.0002291828        0.0002566178       -0.0000263480
	            -0.0001460652       -0.0000924575        0.0001999996
	             0.0000056755       -0.0000501927        0.0000099243
	            -0.0000781784       -0.0001291135       -0.0001081810
	             0.0000248076        0.0000806826       -0.0002918149

	---Fragment 1 Intrafragment Coordinates---
	 - Coordinate -           - BOHR/RAD -       - ANG/DEG -
	 R(1,4)           =         2.733304	       1.446402
	 R(1,15)          =         1.825538	       0.966033
	 R(2,3)           =         2.892364	       1.530573
	 R(2,4)           =         2.868641	       1.518020
	 R(2,6)           =         2.070065	       1.095431
	 R(2,7)           =         2.067137	       1.093882
	 R(3,5)           =         2.892582	       1.530689
	 R(3,8)           =         2.061018	       1.090644
	 R(3,9)           =         2.070780	       1.095810
	 R(4,10)          =         2.074164	       1.097601
	 R(4,11)          =         2.071603	       1.096245
	 R(5,12)          =         2.064720	       1.092603
	 R(5,13)          =         2.062817	       1.091596
	 R(5,14)          =         2.065596	       1.093066
	 B(1,4,2)         =         1.878094	     107.606850
	 B(1,4,10)        =         1.926589	     110.385441
	 B(1,4,11)        =         1.929892	     110.574691
	 B(2,3,5)         =         1.964189	     112.539740
	 B(2,3,8)         =         1.895399	     108.598357
	 B(2,3,9)         =         1.903225	     109.046770
	 B(2,4,10)        =         1.916296	     109.795681
	 B(2,4,11)        =         1.920183	     110.018385
	 B(3,2,4)         =         1.979746	     113.431097
	 B(3,2,6)         =         1.916642	     109.815478
	 B(3,2,7)         =         1.911521	     109.522058
	 B(3,5,12)        =         1.933526	     110.782906
	 B(3,5,13)        =         1.942579	     111.301607
	 B(3,5,14)        =         1.939827	     111.143890
	 B(4,1,15)        =         1.939739	     111.138869
	 B(4,2,6)         =         1.888975	     108.230305
	 B(4,2,7)         =         1.894223	     108.530968
	 B(5,3,8)         =         1.925428	     110.318901
	 B(5,3,9)         =         1.911590	     109.526033
	 B(6,2,7)         =         1.869350	     107.105847
	 B(8,3,9)         =         1.860995	     106.627154
	 B(10,4,11)       =         1.892956	     108.458416
	 B(12,5,13)       =         1.881949	     107.827715
	 B(12,5,14)       =         1.880629	     107.752132
	 B(13,5,14)       =         1.882832	     107.878343
	*D(1,4,2,3)       =        -1.049106	     -60.109366
	 D(1,4,2,6)       =         3.102646	     177.768523
	 D(1,4,2,7)       =         1.079567	      61.854645
	*D(2,3,5,12)      =        -1.045543	     -59.905221
	 D(2,3,5,13)      =        -3.139313	    -179.869364
	 D(2,3,5,14)      =         1.044746	      59.859508
	*D(2,4,1,15)      =        -3.135310	    -179.640029
	 D(3,2,4,10)      =         1.048331	      60.064931
	 D(3,2,4,11)      =         3.130387	     179.357960
	*D(4,2,3,5)       =        -3.138873	    -179.844201
	 D(4,2,3,8)       =         1.007424	      57.721134
	 D(4,2,3,9)       =        -1.014044	     -58.100461
	 D(5,3,2,6)       =        -1.022898	     -58.607747
	 D(5,3,2,7)       =         1.025302	      58.745452
	 D(6,2,3,8)       =         3.123399	     178.957588
	 D(6,2,3,9)       =         1.101931	      63.135992
	 D(6,2,4,10)      =        -1.083102	     -62.057180
	 D(6,2,4,11)      =         0.998954	      57.235849
	 D(7,2,3,8)       =        -1.111586	     -63.689213
	 D(7,2,3,9)       =        -3.133055	    -179.510808
	 D(7,2,4,10)      =        -3.106181	    -177.971058
	 D(7,2,4,11)      =        -1.024125	     -58.678030
	 D(8,3,5,12)      =         1.074330	      61.554589
	 D(8,3,5,13)      =        -1.019439	     -58.409554
	 D(8,3,5,14)      =        -3.118566	    -178.680683
	 D(9,3,5,12)      =         3.117569	     178.623566
	 D(9,3,5,13)      =         1.023800	      58.659423
	 D(9,3,5,14)      =        -1.075327	     -61.611706
	 D(10,4,1,15)     =         1.056962	      60.559489
	 D(11,4,1,15)     =        -1.037749	     -59.458644

	Current energy   :      -233.5829539476

	Energy change for the previous step:
		Projected    :        -0.0000411909
		Actual       :        -0.0001529708
	Energy ratio indicates good step: Trust radius increased to 1.000e+00.


	Performing BFGS update.
	Previous computed or guess Hessian on step 1.
	Steps to be used in Hessian update: 2 1
	Taking RFO optimization step.
	Going to follow RFO solution 1.
	Using RFO vector 1.
	Norm of target step-size    0.00803
	Projected energy change by RFO approximation:        -0.0000083793

	Back-transformation to cartesian coordinates...
	Successfully converged to displaced geometry.

	Back-transformation to cartesian coordinates to adjust frozen coordinates...
	Successfully converged to displaced geometry.

	--- Internal Coordinate Step in ANG or DEG, aJ/ANG or AJ/DEG ---
	 ---------------------------------------------------------------------------
	   Coordinate                Previous        Force       Change         New 
	   ----------                --------       ------       ------       ------
	    1 R(1,4)          =      1.446402     0.013342     0.002220     1.448622
	    2 R(1,15)         =      0.966033     0.000869    -0.000125     0.965909
	    3 R(2,3)          =      1.530573     0.003651     0.000877     1.531450
	    4 R(2,4)          =      1.518020    -0.001640    -0.000492     1.517528
	    5 R(2,6)          =      1.095431     0.001844     0.000309     1.095740
	    6 R(2,7)          =      1.093882     0.000796     0.000104     1.093985
	    7 R(3,5)          =      1.530689    -0.000964    -0.000292     1.530396
	    8 R(3,8)          =      1.090644     0.001147     0.000089     1.090733
	    9 R(3,9)          =      1.095810     0.001141     0.000199     1.096009
	   10 R(4,10)         =      1.097601    -0.001171    -0.000261     1.097339
	   11 R(4,11)         =      1.096245    -0.002802    -0.000570     1.095675
	   12 R(5,12)         =      1.092603     0.001934     0.000343     1.092946
	   13 R(5,13)         =      1.091596    -0.000341    -0.000092     1.091503
	   14 R(5,14)         =      1.093066     0.001417     0.000245     1.093312
	   15 B(1,4,2)        =    107.606850     0.000012     0.037478   107.644328
	   16 B(1,4,10)       =    110.385441    -0.000001     0.020517   110.405957
	   17 B(1,4,11)       =    110.574691    -0.000004    -0.073489   110.501202
	   18 B(2,3,5)        =    112.539740    -0.000019    -0.062234   112.477506
	   19 B(2,3,8)        =    108.598357     0.000005     0.004570   108.602927
	   20 B(2,3,9)        =    109.046770     0.000007     0.026708   109.073478
	   21 B(2,4,10)       =    109.795681    -0.000002     0.038945   109.834626
	   22 B(2,4,11)       =    110.018385    -0.000004    -0.004619   110.013766
	   23 B(3,2,4)        =    113.431097    -0.000018    -0.041838   113.389260
	   24 B(3,2,6)        =    109.815478     0.000002     0.012478   109.827956
	   25 B(3,2,7)        =    109.522058     0.000006    -0.010140   109.511918
	   26 B(3,5,12)       =    110.782906     0.000013     0.060456   110.843362
	   27 B(3,5,13)       =    111.301607    -0.000000     0.017467   111.319074
	   28 B(3,5,14)       =    111.143890     0.000001     0.000242   111.144132
	   29 B(4,1,15)       =    111.138869    -0.000025    -0.119619   111.019250
	   30 B(4,2,6)        =    108.230305     0.000013     0.107156   108.337462
	   31 B(4,2,7)        =    108.530968     0.000004    -0.010570   108.520398
	   32 B(5,3,8)        =    110.318901     0.000008     0.023351   110.342252
	   33 B(5,3,9)        =    109.526033     0.000004     0.020541   109.546574
	   34 B(6,2,7)        =    107.105847    -0.000007    -0.057956   107.047890
	   35 B(8,3,9)        =    106.627154    -0.000005    -0.010226   106.616927
	   36 B(10,4,11)      =    108.458416    -0.000001    -0.017983   108.440434
	   37 B(12,5,13)      =    107.827715    -0.000006    -0.034006   107.793710
	   38 B(12,5,14)      =    107.752132    -0.000006    -0.023174   107.728958
	   39 B(13,5,14)      =    107.878343    -0.000002    -0.025380   107.852963
	   40 *D(1,4,2,3)     =    -60.109366    -0.000000     0.000000   -60.109366
	   41 D(1,4,2,6)      =    177.768523    -0.000000    -0.065254   177.703269
	   42 D(1,4,2,7)      =     61.854645    -0.000000    -0.048356    61.806289
	   43 *D(2,3,5,12)    =    -59.905221    -0.000000     0.000000   -59.905221
	   44 D(2,3,5,13)     =   -179.869364    -0.000000    -0.009152  -179.878515
	   45 D(2,3,5,14)     =     59.859508     0.000000     0.011074    59.870582
	   46 *D(2,4,1,15)    =   -179.640029     0.000000     0.000000  -179.640029
	   47 D(3,2,4,10)     =     60.064931     0.000001     0.069865    60.134796
	   48 D(3,2,4,11)     =    179.357960     0.000000     0.069025   179.426985
	   49 *D(4,2,3,5)     =   -179.844201     0.000000     0.000000  -179.844201
	   50 D(4,2,3,8)      =     57.721134    -0.000000     0.008351    57.729485
	   51 D(4,2,3,9)      =    -58.100461    -0.000001     0.003554   -58.096907
	   52 D(5,3,2,6)      =    -58.607747     0.000001     0.118321   -58.489426
	   53 D(5,3,2,7)      =     58.745452     0.000001     0.049329    58.794781
	   54 D(6,2,3,8)      =    178.957588     0.000001     0.126672   179.084260
	   55 D(6,2,3,9)      =     63.135992     0.000001     0.121875    63.257867
	   56 D(6,2,4,10)     =    -62.057180     0.000001     0.004611   -62.052569
	   57 D(6,2,4,11)     =     57.235849    -0.000000     0.003771    57.239620
	   58 D(7,2,3,8)      =    -63.689213     0.000000     0.057680   -63.631533
	   59 D(7,2,3,9)      =   -179.510808    -0.000000     0.052883  -179.457925
	   60 D(7,2,4,10)     =   -177.971058     0.000001     0.021508  -177.949550
	   61 D(7,2,4,11)     =    -58.678030    -0.000000     0.020669   -58.657361
	   62 D(8,3,5,12)     =     61.554589    -0.000000    -0.020307    61.534282
	   63 D(8,3,5,13)     =    -58.409554    -0.000000    -0.029459   -58.439013
	   64 D(8,3,5,14)     =   -178.680683     0.000000    -0.009233  -178.689915
	   65 D(9,3,5,12)     =    178.623566     0.000000    -0.006759   178.616807
	   66 D(9,3,5,13)     =     58.659423    -0.000000    -0.015911    58.643512
	   67 D(9,3,5,14)     =    -61.611706     0.000001     0.004316   -61.607390
	   68 D(10,4,1,15)    =     60.559489    -0.000001    -0.082071    60.477418
	   69 D(11,4,1,15)    =    -59.458644    -0.000000    -0.025473   -59.484117
	 ---------------------------------------------------------------------------
	Successfully symmetrized geometry.

  ==> Convergence Check <==

  Measures of convergence in internal coordinates in au.
  Criteria marked as inactive (o), active & met (*), and active & unmet ( ).
  ---------------------------------------------------------------------------------------------
   Step     Total Energy     Delta E     MAX Force     RMS Force      MAX Disp      RMS Disp   
  ---------------------------------------------------------------------------------------------
    Convergence Criteria             o    2.50e-03 *    1.70e-03 *    1.00e-02 *    6.70e-03 *
  ---------------------------------------------------------------------------------------------
      3    -233.58295395   -1.53e-04 o    1.62e-03 *    2.29e-04 *    4.20e-03 *    9.67e-04 *  ~
  ---------------------------------------------------------------------------------------------


  **** Optimization is complete! (in 3 steps) ****

  ==> Optimization Summary <==

  Measures of convergence in internal coordinates in au.
  --------------------------------------------------------------------------------------------------------------- ~
   Step         Total Energy             Delta E       MAX Force       RMS Force        MAX Disp        RMS Disp  ~
  --------------------------------------------------------------------------------------------------------------- ~
      1    -233.581122063704   -233.581122063704      0.01625909      0.00381897      0.06047595      0.01799024  ~
      2    -233.582800976820     -0.001678913116      0.00408380      0.00103519      0.01822167      0.00578494  ~
      3    -233.582953947574     -0.000152970754      0.00161942      0.00022892      0.00419597      0.00096686  ~
  --------------------------------------------------------------------------------------------------------------- ~

	Writing optimization data to binary file.
	Final energy is   -233.5829539475745
	Final (previous) structure:
	Cartesian Geometry (in Angstrom)
	    O    -1.7496313217  -0.7909749711  -0.5332471033
	    C    -0.0302827905   0.7665414888   0.0522036312
	    C     1.0240964245  -0.3257768214   0.2465704799
	    C    -1.4427591903   0.3038515195   0.3607680160
	    C     2.4403547971   0.1634632012  -0.0662613538
	    H     0.1984567554   1.6223336580   0.6966162604
	    H     0.0003828162   1.1244976535  -0.9809973287
	    H     0.7674068761  -1.1740567318  -0.3890675912
	    H     0.9807189536  -0.6846583932   1.2810371380
	    H    -1.5057876188  -0.0265357938   1.4055639933
	    H    -2.1485451435   1.1298676675   0.2147638685
	    H     2.5129831764   0.5039537556  -1.1019116515
	    H     3.1750059964  -0.6311845645   0.0765787618
	    H     2.7204103023   0.9994768899   0.5798375275
	    H    -2.6444820313  -1.1226930600  -0.3834950103
	Saving final (previous) structure.
			--------------------------
			 OPTKING Finished Execution 
			--------------------------

    Final optimized geometry and variables:
    Molecular point group: c1
    Full point group: C1

    Geometry (in Angstrom), charge = 0, multiplicity = 1:

    O           -1.749631328613    -0.790974974170    -0.533247105398
    C           -0.030282790644     0.766541491774     0.052203631369
    C            1.024096428543    -0.325776822670     0.246570480858
    C           -1.442759195983     0.303851520720     0.360768017466
    C            2.440354806652     0.163463201887    -0.066261354049
    H            0.198456756176     1.622333664329     0.696616263151
    H            0.000382816232     1.124497657929    -0.980997332511
    H            0.767406879100    -1.174056736451    -0.389067592737
    H            0.980718957497    -0.684658395860     1.281037143026
    H           -1.505787624733    -0.026535793951     1.405563998808
    H           -2.148545151898     1.129867671922     0.214763869363
    H            2.512983186272     0.503953757535    -1.101911655786
    H            3.175006008831    -0.631184566975     0.076578762068
    H            2.720410313020     0.999476893833     0.579837529804
    H           -2.644482041690    -1.122693064409    -0.383495011758

	Removing binary optimization data file.
	Cleaning optimization helper files.

    Psi4 stopped on: Thursday, 27 May 2021 11:20AM
    Psi4 wall time for execution: 0:00:17.67

*** Psi4 exiting successfully. Buy a developer a beer!
