
    -----------------------------------------------------------------------
          Psi4: An Open-Source Ab Initio Electronic Structure Package
                               Psi4 1.3.2 release

                         Git: Rev {HEAD} ecbda83 


    R. M. Parrish, L. A. Burns, D. G. A. Smith, A. C. Simmonett,
    A. E. DePrince III, E. G. Hohenstein, U. Bozkaya, A. Yu. Sokolov,
    R. Di Remigio, R. M. Richard, J. F. Gonthier, A. M. James,
    H. R. McAlexander, A. Kumar, M. Saitow, X. Wang, B. P. Pritchard,
    P. Verma, H. F. Schaefer III, K. Patkowski, R. A. King, E. F. Valeev,
    F. A. Evangelista, J. M. Turney, T. D. Crawford, and C. D. Sherrill,
    J. Chem. Theory Comput. 13(7) pp 3185--3197 (2017).
    (doi: 10.1021/acs.jctc.7b00174)


                         Additional Contributions by
    P. Kraus, H. Kruse, M. H. Lechner, M. C. Schieber, R. A. Shaw,
    A. Alenaizan, R. Galvelis, Z. L. Glick, S. Lehtola, and J. P. Misiewicz

    -----------------------------------------------------------------------


    Psi4 started on: Thursday, 27 May 2021 11:28AM

    Process ID: 227830
    Host:       daniele-Precision-5750
    PSIDATADIR: /home/daniele/anaconda3/envs/poltype/share/psi4
    Memory:     500.0 MiB
    Threads:    1
    
  ==> Input File <==

--------------------------------------------------------------------------
molecule { 
0 1
 O   -2.165198   -0.990399    0.443755
 C   -0.135486    0.152956   -0.252760
 C    1.360732    0.379759   -0.010193
 C   -0.757811   -0.819850    0.740594
 C    1.979307    1.362363   -1.010323
 H   -0.671670    1.106554   -0.185027
 H   -0.298431   -0.230314   -1.265558
 H    1.888364   -0.580195   -0.069990
 H    1.513109    0.754101    1.009964
 H   -0.275859   -1.799529    0.661299
 H   -0.612294   -0.454188    1.765314
 H    1.870918    0.996673   -2.035196
 H    3.045110    1.509002   -0.817876
 H    1.489922    2.339152   -0.951294
 H   -2.718859   -0.725461    1.188191
}
memory 700MB
set_num_threads(8)
psi4_io.set_default_path("/home/daniele/PSI4_sctatch/Psi4-1butanol_3D")
set freeze_core True
E, wfn = energy('wb97x-d/6-311+G*',return_wfn=True)
oeprop(wfn,"WIBERG_LOWDIN_INDICES")
clean()
--------------------------------------------------------------------------

  Memory set to 667.572 MiB by Python driver.
  Threads set to 8 by Python driver.

*** tstart() called on daniele-Precision-5750
*** at Thu May 27 11:28:16 2021

   => Loading Basis Set <=

    Name: 6-311+G*
    Role: ORBITAL
    Keyword: BASIS
    atoms 1    entry O          line   172 file /home/daniele/anaconda3/envs/poltype/share/psi4/basis/6-311pgs.gbs 
    atoms 2-5  entry C          line   130 file /home/daniele/anaconda3/envs/poltype/share/psi4/basis/6-311pgs.gbs 
    atoms 6-15 entry H          line    47 file /home/daniele/anaconda3/envs/poltype/share/psi4/basis/6-311pgs.gbs 


         ---------------------------------------------------------
                                   SCF
               by Justin Turney, Rob Parrish, Andy Simmonett
                          and Daniel G. A. Smith
                              RKS Reference
                        8 Threads,    667 MiB Core
         ---------------------------------------------------------

  ==> Geometry <==

    Molecular point group: c1
    Full point group: C1

    Geometry (in Angstrom), charge = 0, multiplicity = 1:

       Center              X                  Y                   Z               Mass       
    ------------   -----------------  -----------------  -----------------  -----------------
         O           -2.165197786695    -0.990398996565     0.443755169282    15.994914619570
         C           -0.135485786695     0.152956003435    -0.252759830718    12.000000000000
         C            1.360732213305     0.379759003435    -0.010192830718    12.000000000000
         C           -0.757810786695    -0.819849996565     0.740594169282    12.000000000000
         C            1.979307213305     1.362363003435    -1.010322830718    12.000000000000
         H           -0.671669786695     1.106554003435    -0.185026830718     1.007825032230
         H           -0.298430786695    -0.230313996565    -1.265557830718     1.007825032230
         H            1.888364213305    -0.580194996565    -0.069989830718     1.007825032230
         H            1.513109213305     0.754101003435     1.009964169282     1.007825032230
         H           -0.275858786695    -1.799528996565     0.661299169282     1.007825032230
         H           -0.612293786695    -0.454187996565     1.765314169282     1.007825032230
         H            1.870918213305     0.996673003435    -2.035195830718     1.007825032230
         H            3.045110213305     1.509002003435    -0.817875830718     1.007825032230
         H            1.489922213305     2.339152003435    -0.951293830718     1.007825032230
         H           -2.718858786695    -0.725460996565     1.188191169282     1.007825032230

  Running in c1 symmetry.

  Rotational constants: A =      0.61686  B =      0.06495  C =      0.06171 [cm^-1]
  Rotational constants: A =  18493.12016  B =   1947.11925  C =   1849.92370 [MHz]
  Nuclear repulsion =  183.965388174475521

  Charge       = 0
  Multiplicity = 1
  Electrons    = 42
  Nalpha       = 21
  Nbeta        = 21

  ==> Algorithm <==

  SCF Algorithm Type is DF.
  DIIS enabled.
  MOM disabled.
  Fractional occupation disabled.
  Guess Type is SAD.
  Energy threshold   = 1.00e-06
  Density threshold  = 1.00e-06
  Integral threshold = 0.00e+00

  ==> Primary Basis <==

  Basis Set: 6-311+G*
    Blend: 6-311+G*
    Number of shells: 80
    Number of basis function: 140
    Number of Cartesian functions: 145
    Spherical Harmonics?: true
    Max angular momentum: 2

  ==> DFT Potential <==

   => Composite Functional: WB97X-D <= 

    wB97X-D Hyb-GGA Exchange-Correlation Functional

    J.-D. Chai and M. Head-Gordon, Phys. Chem. Chem. Phys. 10, 6615 (2008)

    Deriv               =              1
    GGA                 =           TRUE
    Meta                =          FALSE

    Exchange Hybrid     =           TRUE
    MP2 Hybrid          =          FALSE

   => Exchange-Correlation Functionals <=

    1.0000   wB97D range-separated functional

   => Exact (HF) Exchange <=

    0.7780            HF,LR [omega = 0.2000]
    0.2220               HF 

   => Molecular Quadrature <=

    Radial Scheme          =       TREUTLER
    Pruning Scheme         =           FLAT
    Nuclear Scheme         =       TREUTLER

    BS radius alpha        =              1
    Pruning alpha          =              1
    Radial Points          =             75
    Spherical Points       =            302
    Total Points           =         339750
    Total Blocks           =           2574
    Max Points             =            256
    Max Functions          =            133

   => WB97X-D: Empirical Dispersion <=

    Chai and Head-Gordon Dispersion Correction
    Chai, J.-D.; Head-Gordon, M. (2010), J. Chem. Phys., 132: 6615-6620

        s6 =       1.000000

   => Loading Basis Set <=

    Name: (6-311+G* AUX)
    Role: JKFIT
    Keyword: DF_BASIS_SCF
    atoms 1    entry O          line   324 file /home/daniele/anaconda3/envs/poltype/share/psi4/basis/heavy-aug-cc-pvtz-jkfit.gbs 
    atoms 2-5  entry C          line   200 file /home/daniele/anaconda3/envs/poltype/share/psi4/basis/heavy-aug-cc-pvtz-jkfit.gbs 
    atoms 6-15 entry H          line   116 file /home/daniele/anaconda3/envs/poltype/share/psi4/basis/heavy-aug-cc-pvtz-jkfit.gbs 

  ==> Pre-Iterations <==

   -------------------------------------------------------
    Irrep   Nso     Nmo     Nalpha   Nbeta   Ndocc  Nsocc
   -------------------------------------------------------
     A        140     140       0       0       0       0
   -------------------------------------------------------
    Total     140     140      21      21      21       0
   -------------------------------------------------------

  ==> Integral Setup <==

  ==> DiskDFJK: Density-Fitted J/K Matrices <==

    J tasked:                  Yes
    K tasked:                  Yes
    wK tasked:                 Yes
    Omega:               2.000E-01
    OpenMP threads:              8
    Integrals threads:           8
    Memory [MiB]:               76
    Algorithm:                Disk
    Integral Cache:           NONE
    Schwarz Cutoff:          1E-12
    Fitting Condition:       1E-10

   => Auxiliary Basis Set <=

  Basis Set: (6-311+G* AUX)
    Blend: HEAVY-AUG-CC-PVTZ-JKFIT
    Number of shells: 250
    Number of basis function: 820
    Number of Cartesian functions: 1005
    Spherical Harmonics?: true
    Max angular momentum: 4

  Cached 50.0% of DFT collocation blocks in 0.525 [GiB].

  Minimum eigenvalue in the overlap matrix is 2.4488386237E-05.
  Using Symmetric Orthogonalization.

  SCF Guess: Superposition of Atomic Densities via on-the-fly atomic UHF.

  ==> Iterations <==

                           Total Energy        Delta E     RMS |[F,P]|

   @DF-RKS iter SAD:  -232.89422038714022   -2.32894e+02   0.00000e+00 
   @DF-RKS iter   1:  -233.25588426036944   -3.61664e-01   6.36603e-03 DIIS
   @DF-RKS iter   2:  -233.37525573014540   -1.19371e-01   5.66591e-03 DIIS
   @DF-RKS iter   3:  -233.64163511535870   -2.66379e-01   6.73615e-04 DIIS
   @DF-RKS iter   4:  -233.64447432597052   -2.83921e-03   2.87372e-04 DIIS
   @DF-RKS iter   5:  -233.64514193280053   -6.67607e-04   3.86790e-05 DIIS
   @DF-RKS iter   6:  -233.64515966216129   -1.77294e-05   1.40179e-05 DIIS
   @DF-RKS iter   7:  -233.64516157668024   -1.91452e-06   3.23636e-06 DIIS
   @DF-RKS iter   8:  -233.64516170461931   -1.27939e-07   5.28084e-07 DIIS
  Energy and wave function converged.


  ==> Post-Iterations <==

    Orbital Energies [Eh]
    ---------------------

    Doubly Occupied:                                                      

       1A    -19.243839     2A    -10.329070     3A    -10.281275  
       4A    -10.274248     5A    -10.270463     6A     -1.115587  
       7A     -0.896953     8A     -0.820518     9A     -0.726575  
      10A     -0.677511    11A     -0.604417    12A     -0.565125  
      13A     -0.525545    14A     -0.518438    15A     -0.481775  
      16A     -0.457531    17A     -0.438113    18A     -0.422648  
      19A     -0.415898    20A     -0.406563    21A     -0.356100  

    Virtual:                                                              

      22A      0.064902    23A      0.074552    24A      0.083794  
      25A      0.092970    26A      0.103065    27A      0.112703  
      28A      0.119626    29A      0.132005    30A      0.136043  
      31A      0.141631    32A      0.153383    33A      0.161288  
      34A      0.180064    35A      0.204455    36A      0.207521  
      37A      0.227087    38A      0.238196    39A      0.247896  
      40A      0.252698    41A      0.260846    42A      0.266586  
      43A      0.276096    44A      0.280456    45A      0.293009  
      46A      0.298431    47A      0.305352    48A      0.320274  
      49A      0.341123    50A      0.351946    51A      0.355765  
      52A      0.364677    53A      0.372008    54A      0.383665  
      55A      0.427938    56A      0.482296    57A      0.493028  
      58A      0.501083    59A      0.532676    60A      0.554991  
      61A      0.577415    62A      0.605486    63A      0.626372  
      64A      0.668064    65A      0.679886    66A      0.712553  
      67A      0.717334    68A      0.727872    69A      0.735161  
      70A      0.750544    71A      0.751945    72A      0.761738  
      73A      0.765192    74A      0.779387    75A      0.817170  
      76A      0.824067    77A      0.853184    78A      0.956675  
      79A      1.068186    80A      1.098138    81A      1.104693  
      82A      1.145608    83A      1.172207    84A      1.192595  
      85A      1.268478    86A      1.293603    87A      1.411887  
      88A      1.478900    89A      1.591161    90A      1.609686  
      91A      1.624555    92A      1.633680    93A      1.668892  
      94A      1.695084    95A      1.713605    96A      1.733168  
      97A      1.778805    98A      1.789084    99A      1.892973  
     100A      1.897411   101A      1.904399   102A      1.993779  
     103A      2.041910   104A      2.235923   105A      2.275219  
     106A      2.317848   107A      2.550401   108A      2.582645  
     109A      2.597620   110A      2.601735   111A      2.603272  
     112A      2.647358   113A      2.657691   114A      2.699689  
     115A      2.712985   116A      2.904207   117A      2.959130  
     118A      3.020592   119A      3.049523   120A      3.068536  
     121A      3.095622   122A      3.204600   123A      3.242433  
     124A      3.270879   125A      3.308368   126A      3.323710  
     127A      3.358321   128A      3.477327   129A      3.690029  
     130A      3.876649   131A      4.052356   132A      4.188727  
     133A      5.152289   134A      5.229792   135A      5.526602  
     136A     23.554741   137A     23.715664   138A     23.803061  
     139A     23.856863   140A     50.002035  

    Final Occupation by Irrep:
              A 
    DOCC [    21 ]

  @DF-RKS Final Energy:  -233.64516170461931

   => Energetics <=

    Nuclear Repulsion Energy =            183.9653881744755211
    One-Electron Energy =                -679.8519242081749780
    Two-Electron Energy =                 285.4829896229021529
    DFT Exchange-Correlation Energy =     -23.2346662908175929
    Empirical Dispersion Energy =          -0.0069490030043798
    VV10 Nonlocal Energy =                  0.0000000000000000
    Total Energy =                       -233.6451617046193121

Computation Completed


Properties will be evaluated at   0.000000,   0.000000,   0.000000 [a0]

Properties computed using the SCF density matrix

  Nuclear Dipole Moment: [e a0]
     X:     4.8929      Y:     2.7287      Z:    -0.6543

  Electronic Dipole Moment: [e a0]
     X:    -4.5884      Y:    -2.4222      Z:     1.2773

  Dipole Moment: [e a0]
     X:     0.3044      Y:     0.3065      Z:     0.6231     Total:     0.7582

  Dipole Moment: [D]
     X:     0.7737      Y:     0.7791      Z:     1.5837     Total:     1.9271


*** tstop() called on daniele-Precision-5750 at Thu May 27 11:28:23 2021
Module time:
	user time   =      46.05 seconds =       0.77 minutes
	system time =       1.51 seconds =       0.03 minutes
	total time  =          7 seconds =       0.12 minutes
Total time:
	user time   =      46.05 seconds =       0.77 minutes
	system time =       1.51 seconds =       0.03 minutes
	total time  =          7 seconds =       0.12 minutes


Properties will be evaluated at   0.000000,   0.000000,   0.000000 [a0]
OEProp: No title given, name of density matrix used for the following properties is 'SCF density'


  Wiberg Bond Indices using Orthogonal Lowdin Orbitals:

  Irrep: 1 Size: 15 x 15

                 1                   2                   3                   4                   5

    1     0.00000000000000     0.13098593052508     0.02220530900958     1.31749342526568     0.00321817999119
    2     0.13098593052508     0.00000000000000     1.14926979881202     1.15455708513579     0.11421564859991
    3     0.02220530900958     1.14926979881202     0.00000000000000     0.11921704625306     1.20373807943131
    4     1.31749342526568     1.15455708513579     0.11921704625306     0.00000000000000     0.02141653752683
    5     0.00321817999119     0.11421564859991     1.20373807943131     0.02141653752683     0.00000000000000
    6     0.01227782693521     0.85621451946431     0.03831300503981     0.03991151084915     0.01349850567578
    7     0.01116646361353     0.85612502124216     0.03791484608348     0.03921533993321     0.01320678194739
    8     0.00075047975802     0.03990195621380     0.86604982429559     0.01393724303545     0.03914040924596
    9     0.00124042057654     0.04006412973925     0.86622430441906     0.01423610634071     0.03919182723099
   10     0.04942933498626     0.04062888828471     0.01299798920071     0.86739106828810     0.00142867762229
   11     0.04302094074954     0.04172017508786     0.01410672264635     0.86794124025774     0.00156303861316
   12     0.00014485979266     0.01426701999987     0.04127012137470     0.00162753920060     0.91038816066549
   13     0.00057490402676     0.01179805349825     0.04754726371705     0.00158313219981     0.91540256871181
   14     0.00014652839972     0.01441322894008     0.04139422551025     0.00163897653006     0.91034703621612
   15     0.86319559704115     0.00681273038052     0.00126392966261     0.03584221307765     0.00031721730848

                 6                   7                   8                   9                  10

    1     0.01227782693521     0.01116646361353     0.00075047975802     0.00124042057654     0.04942933498626
    2     0.85621451946431     0.85612502124216     0.03990195621380     0.04006412973925     0.04062888828471
    3     0.03831300503981     0.03791484608348     0.86604982429559     0.86622430441906     0.01299798920071
    4     0.03991151084915     0.03921533993321     0.01393724303545     0.01423610634071     0.86739106828810
    5     0.01349850567578     0.01320678194739     0.03914040924596     0.03919182723099     0.00142867762229
    6     0.00000000000000     0.00666256205100     0.00916664985369     0.00414390900637     0.00861619075797
    7     0.00666256205100     0.00000000000000     0.00410363187291     0.00906432232165     0.00514049307663
    8     0.00916664985369     0.00410363187291     0.00000000000000     0.00708096159209     0.00120706289157
    9     0.00414390900637     0.00906432232165     0.00708096159209     0.00000000000000     0.00040003923917
   10     0.00861619075797     0.00514049307663     0.00120706289157     0.00040003923917     0.00000000000000
   11     0.00477143333320     0.00880804641691     0.00044078617391     0.00136853748612     0.00811052053555
   12     0.00044069468754     0.00105892695956     0.00379192826278     0.00995542862658     0.00001681438132
   13     0.00034450649891     0.00033745756723     0.00313295928661     0.00313294401049     0.00011770440361
   14     0.00109210513030     0.00043614512402     0.00996632228431     0.00378178725417     0.00022424374862
   15     0.00011267847577     0.00023078756625     0.00011700418610     0.00004755283247     0.00300414853075

                11                  12                  13                  14                  15

    1     0.04302094074954     0.00014485979266     0.00057490402676     0.00014652839972     0.86319559704115
    2     0.04172017508786     0.01426701999987     0.01179805349825     0.01441322894008     0.00681273038052
    3     0.01410672264635     0.04127012137470     0.04754726371705     0.04139422551025     0.00126392966261
    4     0.86794124025774     0.00162753920060     0.00158313219981     0.00163897653006     0.03584221307765
    5     0.00156303861316     0.91038816066549     0.91540256871181     0.91034703621612     0.00031721730848
    6     0.00477143333320     0.00044069468754     0.00034450649891     0.00109210513030     0.00011267847577
    7     0.00880804641691     0.00105892695956     0.00033745756723     0.00043614512402     0.00023078756625
    8     0.00044078617391     0.00379192826278     0.00313295928661     0.00996632228431     0.00011700418610
    9     0.00136853748612     0.00995542862658     0.00313294401049     0.00378178725417     0.00004755283247
   10     0.00811052053555     0.00001681438132     0.00011770440361     0.00022424374862     0.00300414853075
   11     0.00000000000000     0.00023194177492     0.00009365049395     0.00001960016530     0.00757992803196
   12     0.00023194177492     0.00000000000000     0.00951696599841     0.00809897692271     0.00003877294430
   13     0.00009365049395     0.00951696599841     0.00000000000000     0.00947366618691     0.00001877707934
   14     0.00001960016530     0.00809897692271     0.00947366618691     0.00000000000000     0.00004166603598
   15     0.00757992803196     0.00003877294430     0.00001877707934     0.00004166603598     0.00000000000000



  Atomic Valences: 

 #  #
 Irrep: 1
      1:  2.4558502
      2:  4.4709742
      3:  4.4615125
      4:  4.4960085
      5:  4.1870727
      6:  0.9955661
      7:  0.9934708
      8:  0.9987872
      9:  0.9999323
     10:  0.9987132
     11:  0.9997766
     12:  1.0008482
     13:  1.0030746
     14:  1.0010745
     15:  0.9186230


    Psi4 stopped on: Thursday, 27 May 2021 11:28AM
    Psi4 wall time for execution: 0:00:06.66

*** Psi4 exiting successfully. Buy a developer a beer!
