
    -----------------------------------------------------------------------
          Psi4: An Open-Source Ab Initio Electronic Structure Package
                               Psi4 1.3.2 release

                         Git: Rev {HEAD} ecbda83 


    R. M. Parrish, L. A. Burns, D. G. A. Smith, A. C. Simmonett,
    A. E. DePrince III, E. G. Hohenstein, U. Bozkaya, A. Yu. Sokolov,
    R. Di Remigio, R. M. Richard, J. F. Gonthier, A. M. James,
    H. R. McAlexander, A. Kumar, M. Saitow, X. Wang, B. P. Pritchard,
    P. Verma, H. F. Schaefer III, K. Patkowski, R. A. King, E. F. Valeev,
    F. A. Evangelista, J. M. Turney, T. D. Crawford, and C. D. Sherrill,
    J. Chem. Theory Comput. 13(7) pp 3185--3197 (2017).
    (doi: 10.1021/acs.jctc.7b00174)


                         Additional Contributions by
    P. Kraus, H. Kruse, M. H. Lechner, M. C. Schieber, R. A. Shaw,
    A. Alenaizan, R. Galvelis, Z. L. Glick, S. Lehtola, and J. P. Misiewicz

    -----------------------------------------------------------------------


    Psi4 started on: Thursday, 27 May 2021 10:57AM

    Process ID: 225286
    Host:       daniele-Precision-5750
    PSIDATADIR: /home/daniele/anaconda3/envs/poltype/share/psi4
    Memory:     500.0 MiB
    Threads:    1
    
  ==> Input File <==

--------------------------------------------------------------------------
molecule { 
0 1
 O   -2.329943    0.261178   -0.608058
 C    0.046037    0.176032   -0.251978
 C    1.249499   -0.412251    0.528773
 C   -1.329426   -0.360355    0.202776
 C    2.616465    0.133728    0.068844
 H    0.036814    1.269688   -0.153652
 H    0.160120   -0.039741   -1.322808
 H    1.251939   -1.505624    0.427287
 H    1.126555   -0.206611    1.600412
 H   -1.368379   -1.451747    0.100128
 H   -1.485235   -0.133120    1.265538
 H    2.795805   -0.087960   -0.988666
 H    3.429430   -0.318540    0.646928
 H    2.674419    1.219306    0.202884
 H   -3.149022    0.334927   -0.082988
}
set optking { 
  frozen_dihedral = ("
    2 4 1 15
    4 2 3 5
    3 2 4 1
    12 5 3 2
  ")
}
set {
  geom_maxiter 400
  g_convergence GAU_LOOSE
  dynamic_level 1
}
memory 700MB
set_num_threads(8)
psi4_io.set_default_path("/home/daniele/PSI4_sctatch/Psi4-1butanol_3D")
for _ in range(1):
  try:
    set opt_coordinates both
    optimize('wb97x-d/6-311G')
    break
  except OptimizationConvergenceError:
    break
  else:
    try:
      set opt_coordinates cartesian
      optimize('wb97x-d/6-311G')
      break
    except OptimizationConvergenceError:
      pass
clean()
--------------------------------------------------------------------------

  Memory set to 667.572 MiB by Python driver.
  Threads set to 8 by Python driver.
gradient() will perform analytic gradient computation.

*** tstart() called on daniele-Precision-5750
*** at Thu May 27 10:57:32 2021

   => Loading Basis Set <=

    Name: 6-311G
    Role: ORBITAL
    Keyword: BASIS
    atoms 1    entry O          line   126 file /home/daniele/anaconda3/envs/poltype/share/psi4/basis/6-311g.gbs 
    atoms 2-5  entry C          line    92 file /home/daniele/anaconda3/envs/poltype/share/psi4/basis/6-311g.gbs 
    atoms 6-15 entry H          line    21 file /home/daniele/anaconda3/envs/poltype/share/psi4/basis/6-311g.gbs 


         ---------------------------------------------------------
                                   SCF
               by Justin Turney, Rob Parrish, Andy Simmonett
                          and Daniel G. A. Smith
                              RKS Reference
                        8 Threads,    667 MiB Core
         ---------------------------------------------------------

  ==> Geometry <==

    Molecular point group: c1
    Full point group: C1

    Geometry (in Angstrom), charge = 0, multiplicity = 1:

       Center              X                  Y                   Z               Mass       
    ------------   -----------------  -----------------  -----------------  -----------------
         O           -2.319668411521     0.292272239028    -0.588664622219    15.994914619570
         C            0.056311588479     0.207126239028    -0.232584622219    12.000000000000
         C            1.259773588479    -0.381156760972     0.548166377781    12.000000000000
         C           -1.319151411521    -0.329260760972     0.222169377781    12.000000000000
         C            2.626739588479     0.164822239028     0.088237377781    12.000000000000
         H            0.047088588479     1.300782239028    -0.134258622219     1.007825032230
         H            0.170394588479    -0.008646760972    -1.303414622219     1.007825032230
         H            1.262213588479    -1.474529760972     0.446680377781     1.007825032230
         H            1.136829588479    -0.175516760972     1.619805377781     1.007825032230
         H           -1.358104411521    -1.420652760972     0.119521377781     1.007825032230
         H           -1.474960411521    -0.102025760972     1.284931377781     1.007825032230
         H            2.806079588479    -0.056865760972    -0.969272622219     1.007825032230
         H            3.439704588479    -0.287445760972     0.666321377781     1.007825032230
         H            2.684693588479     1.250400239028     0.222277377781     1.007825032230
         H           -3.138747411521     0.366021239028    -0.063594622219     1.007825032230

  Running in c1 symmetry.

  Rotational constants: A =      0.61615  B =      0.06405  C =      0.06072 [cm^-1]
  Rotational constants: A =  18471.77558  B =   1920.24673  C =   1820.44821 [MHz]
  Nuclear repulsion =  183.047192390858555

  Charge       = 0
  Multiplicity = 1
  Electrons    = 42
  Nalpha       = 21
  Nbeta        = 21

  ==> Algorithm <==

  SCF Algorithm Type is DF.
  DIIS enabled.
  MOM disabled.
  Fractional occupation disabled.
  Guess Type is SAD.
  Energy threshold   = 1.00e-08
  Density threshold  = 1.00e-08
  Integral threshold = 0.00e+00

  ==> Primary Basis <==

  Basis Set: 6-311G
    Blend: 6-311G
    Number of shells: 65
    Number of basis function: 95
    Number of Cartesian functions: 95
    Spherical Harmonics?: true
    Max angular momentum: 1

  ==> DFT Potential <==

   => Composite Functional: WB97X-D <= 

    wB97X-D Hyb-GGA Exchange-Correlation Functional

    J.-D. Chai and M. Head-Gordon, Phys. Chem. Chem. Phys. 10, 6615 (2008)

    Deriv               =              1
    GGA                 =           TRUE
    Meta                =          FALSE

    Exchange Hybrid     =           TRUE
    MP2 Hybrid          =          FALSE

   => Exchange-Correlation Functionals <=

    1.0000   wB97D range-separated functional

   => Exact (HF) Exchange <=

    0.7780            HF,LR [omega = 0.2000]
    0.2220               HF 

   => Molecular Quadrature <=

    Radial Scheme          =       TREUTLER
    Pruning Scheme         =           FLAT
    Nuclear Scheme         =       TREUTLER

    BS radius alpha        =              1
    Pruning alpha          =              1
    Radial Points          =             75
    Spherical Points       =            302
    Total Points           =         336086
    Total Blocks           =           2564
    Max Points             =            256
    Max Functions          =             89

   => WB97X-D: Empirical Dispersion <=

    Chai and Head-Gordon Dispersion Correction
    Chai, J.-D.; Head-Gordon, M. (2010), J. Chem. Phys., 132: 6615-6620

        s6 =       1.000000

   => Loading Basis Set <=

    Name: (6-311G AUX)
    Role: JKFIT
    Keyword: DF_BASIS_SCF
    atoms 1    entry O          line   229 file /home/daniele/anaconda3/envs/poltype/share/psi4/basis/cc-pvtz-jkfit.gbs 
    atoms 2-5  entry C          line   125 file /home/daniele/anaconda3/envs/poltype/share/psi4/basis/cc-pvtz-jkfit.gbs 
    atoms 6-15 entry H          line    51 file /home/daniele/anaconda3/envs/poltype/share/psi4/basis/cc-pvtz-jkfit.gbs 

  ==> Pre-Iterations <==

   -------------------------------------------------------
    Irrep   Nso     Nmo     Nalpha   Nbeta   Ndocc  Nsocc
   -------------------------------------------------------
     A         95      95       0       0       0       0
   -------------------------------------------------------
    Total      95      95      21      21      21       0
   -------------------------------------------------------

  ==> Integral Setup <==

  ==> DiskDFJK: Density-Fitted J/K Matrices <==

    J tasked:                  Yes
    K tasked:                  Yes
    wK tasked:                 Yes
    Omega:               2.000E-01
    OpenMP threads:              8
    Integrals threads:           8
    Memory [MiB]:               34
    Algorithm:                Disk
    Integral Cache:           NONE
    Schwarz Cutoff:          1E-12
    Fitting Condition:       1E-10

   => Auxiliary Basis Set <=

  Basis Set: (6-311G AUX)
    Blend: CC-PVTZ-JKFIT
    Number of shells: 225
    Number of basis function: 695
    Number of Cartesian functions: 830
    Spherical Harmonics?: true
    Max angular momentum: 4

  Cached 100.0% of DFT collocation blocks in 0.660 [GiB].

  Minimum eigenvalue in the overlap matrix is 2.5909828015E-03.
  Using Symmetric Orthogonalization.

  SCF Guess: Superposition of Atomic Densities via on-the-fly atomic UHF.

  ==> Iterations <==

                           Total Energy        Delta E     RMS |[F,P]|

   @DF-RKS iter SAD:  -232.83703839761102   -2.32837e+02   0.00000e+00 
   @DF-RKS iter   1:  -233.28283139022039   -4.45793e-01   8.20795e-03 DIIS
   @DF-RKS iter   2:  -233.38207083969556   -9.92394e-02   7.24326e-03 DIIS
   @DF-RKS iter   3:  -233.57741720320789   -1.95346e-01   8.42565e-04 DIIS
   @DF-RKS iter   4:  -233.57957269047841   -2.15549e-03   3.28293e-04 DIIS
   @DF-RKS iter   5:  -233.58000435645005   -4.31666e-04   3.31225e-05 DIIS
   @DF-RKS iter   6:  -233.58001040328190   -6.04683e-06   1.60165e-05 DIIS
   @DF-RKS iter   7:  -233.58001156408179   -1.16080e-06   1.90633e-06 DIIS
   @DF-RKS iter   8:  -233.58001159637408   -3.22923e-08   3.17680e-07 DIIS
   @DF-RKS iter   9:  -233.58001159735946   -9.85381e-10   1.06271e-07 DIIS
   @DF-RKS iter  10:  -233.58001159743188   -7.24185e-11   3.97608e-08 DIIS
   @DF-RKS iter  11:  -233.58001159744342   -1.15392e-11   5.31898e-09 DIIS
  Energy and wave function converged.


  ==> Post-Iterations <==

    Orbital Energies [Eh]
    ---------------------

    Doubly Occupied:                                                      

       1A    -19.238475     2A    -10.331266     3A    -10.283457  
       4A    -10.277673     5A    -10.271545     6A     -1.125997  
       7A     -0.891502     8A     -0.819042     9A     -0.726495  
      10A     -0.677577    11A     -0.599847    12A     -0.566909  
      13A     -0.523140    14A     -0.515626    15A     -0.482615  
      16A     -0.452945    17A     -0.437013    18A     -0.416641  
      19A     -0.409359    20A     -0.400374    21A     -0.350601  

    Virtual:                                                              

      22A      0.115020    23A      0.124519    24A      0.149632  
      25A      0.156686    26A      0.170712    27A      0.205013  
      28A      0.209300    29A      0.217680    30A      0.222625  
      31A      0.241535    32A      0.250491    33A      0.294065  
      34A      0.307399    35A      0.328965    36A      0.384814  
      37A      0.389430    38A      0.412479    39A      0.447826  
      40A      0.452210    41A      0.468324    42A      0.499154  
      43A      0.529154    44A      0.604745    45A      0.611269  
      46A      0.643858    47A      0.648322    48A      0.672088  
      49A      0.675442    50A      0.680025    51A      0.692067  
      52A      0.701253    53A      0.703472    54A      0.712037  
      55A      0.719925    56A      0.723377    57A      0.753293  
      58A      0.849862    59A      0.962461    60A      1.011476  
      61A      1.054894    62A      1.087723    63A      1.109472  
      64A      1.163302    65A      1.589441    66A      2.260344  
      67A      2.344590    68A      2.348328    69A      2.351226  
      70A      2.359437    71A      2.364161    72A      2.386039  
      73A      2.391735    74A      2.411196    75A      2.433896  
      76A      2.880379    77A      2.908967    78A      2.923467  
      79A      2.937903    80A      2.950672    81A      2.954233  
      82A      2.983184    83A      3.065605    84A      3.086953  
      85A      3.161051    86A      3.179440    87A      3.298731  
      88A      4.956594    89A      5.011249    90A      5.160355  
      91A     23.432969    92A     23.568276    93A     23.638470  
      94A     23.708910    95A     49.964024  

    Final Occupation by Irrep:
              A 
    DOCC [    21 ]

  @DF-RKS Final Energy:  -233.58001159744342

   => Energetics <=

    Nuclear Repulsion Energy =            183.0471923908585552
    One-Electron Energy =                -677.9573516730974916
    Two-Electron Energy =                 284.5546042235210962
    DFT Exchange-Correlation Energy =     -23.2175996121600861
    Empirical Dispersion Energy =          -0.0068569265654483
    VV10 Nonlocal Energy =                  0.0000000000000000
    Total Energy =                       -233.5800115974434163

Computation Completed


Properties will be evaluated at   0.000000,   0.000000,   0.000000 [a0]

Properties computed using the SCF density matrix

  Nuclear Dipole Moment: [e a0]
     X:     5.2154      Y:    -0.5690      Z:     1.7680

  Electronic Dipole Moment: [e a0]
     X:    -5.3123      Y:     0.3663      Z:    -1.0189

  Dipole Moment: [e a0]
     X:    -0.0969      Y:    -0.2028      Z:     0.7492     Total:     0.7821

  Dipole Moment: [D]
     X:    -0.2463      Y:    -0.5153      Z:     1.9042     Total:     1.9880


*** tstop() called on daniele-Precision-5750 at Thu May 27 10:57:37 2021
Module time:
	user time   =      29.70 seconds =       0.49 minutes
	system time =       0.78 seconds =       0.01 minutes
	total time  =          5 seconds =       0.08 minutes
Total time:
	user time   =      29.70 seconds =       0.49 minutes
	system time =       0.78 seconds =       0.01 minutes
	total time  =          5 seconds =       0.08 minutes

*** tstart() called on daniele-Precision-5750
*** at Thu May 27 10:57:37 2021


         ------------------------------------------------------------
                                   SCF GRAD                          
                          Rob Parrish, Justin Turney,                
                       Andy Simmonett, and Alex Sokolov              
         ------------------------------------------------------------

  ==> Geometry <==

    Molecular point group: c1
    Full point group: C1

    Geometry (in Angstrom), charge = 0, multiplicity = 1:

       Center              X                  Y                   Z               Mass       
    ------------   -----------------  -----------------  -----------------  -----------------
         O           -2.319668411521     0.292272239028    -0.588664622219    15.994914619570
         C            0.056311588479     0.207126239028    -0.232584622219    12.000000000000
         C            1.259773588479    -0.381156760972     0.548166377781    12.000000000000
         C           -1.319151411521    -0.329260760972     0.222169377781    12.000000000000
         C            2.626739588479     0.164822239028     0.088237377781    12.000000000000
         H            0.047088588479     1.300782239028    -0.134258622219     1.007825032230
         H            0.170394588479    -0.008646760972    -1.303414622219     1.007825032230
         H            1.262213588479    -1.474529760972     0.446680377781     1.007825032230
         H            1.136829588479    -0.175516760972     1.619805377781     1.007825032230
         H           -1.358104411521    -1.420652760972     0.119521377781     1.007825032230
         H           -1.474960411521    -0.102025760972     1.284931377781     1.007825032230
         H            2.806079588479    -0.056865760972    -0.969272622219     1.007825032230
         H            3.439704588479    -0.287445760972     0.666321377781     1.007825032230
         H            2.684693588479     1.250400239028     0.222277377781     1.007825032230
         H           -3.138747411521     0.366021239028    -0.063594622219     1.007825032230

  Nuclear repulsion =  183.047192390858555

  ==> Basis Set <==

  Basis Set: 6-311G
    Blend: 6-311G
    Number of shells: 65
    Number of basis function: 95
    Number of Cartesian functions: 95
    Spherical Harmonics?: true
    Max angular momentum: 1

  ==> DFJKGrad: Density-Fitted SCF Gradients <==

    Gradient:                    1
    J tasked:                  Yes
    K tasked:                  Yes
    wK tasked:                 Yes
    Omega:               2.000E-01
    OpenMP threads:              8
    Integrals threads:           8
    Memory [MiB]:              500
    Schwarz Cutoff:          0E+00
    Fitting Condition:       1E-10

   => Auxiliary Basis Set <=

  Basis Set: (6-311G AUX)
    Blend: CC-PVTZ-JKFIT
    Number of shells: 225
    Number of basis function: 695
    Number of Cartesian functions: 830
    Spherical Harmonics?: true
    Max angular momentum: 4

  ==> DFT Potential <==

   => Composite Functional: WB97X-D <= 

    wB97X-D Hyb-GGA Exchange-Correlation Functional

    J.-D. Chai and M. Head-Gordon, Phys. Chem. Chem. Phys. 10, 6615 (2008)

    Deriv               =              1
    GGA                 =           TRUE
    Meta                =          FALSE

    Exchange Hybrid     =           TRUE
    MP2 Hybrid          =          FALSE

   => Exchange-Correlation Functionals <=

    1.0000   wB97D range-separated functional

   => Exact (HF) Exchange <=

    0.7780            HF,LR [omega = 0.2000]
    0.2220               HF 

   => Molecular Quadrature <=

    Radial Scheme          =       TREUTLER
    Pruning Scheme         =           FLAT
    Nuclear Scheme         =       TREUTLER

    BS radius alpha        =              1
    Pruning alpha          =              1
    Radial Points          =             75
    Spherical Points       =            302
    Total Points           =         336086
    Total Blocks           =           2564
    Max Points             =            256
    Max Functions          =             89


  -Total Gradient:
     Atom            X                  Y                   Z
    ------   -----------------  -----------------  -----------------
       1        0.016522066722    -0.004967051889    -0.004360766391
       2        0.000420047433     0.003879669232    -0.002927843503
       3        0.003591471780    -0.000539602921     0.001749494177
       4       -0.023197375185     0.001775920420    -0.004782435153
       5        0.003623209913     0.000768255694    -0.000504871703
       6        0.000623193837     0.003176647536    -0.000531579142
       7        0.000606321047    -0.000022607893    -0.002964630149
       8        0.000778331275    -0.001831592112     0.000406751103
       9        0.000486125584    -0.000249079544     0.001785627612
      10       -0.001104288483    -0.000473482466     0.001792375354
      11       -0.001876665594    -0.001579387465     0.000492938278
      12        0.001053479198    -0.000691544260    -0.001674070037
      13        0.001869823528    -0.000941257782     0.001114251912
      14        0.000724848172     0.001846284552     0.000655367521
      15       -0.004176536817    -0.000194890289     0.009816388282


*** tstop() called on daniele-Precision-5750 at Thu May 27 10:57:38 2021
Module time:
	user time   =      12.71 seconds =       0.21 minutes
	system time =       0.12 seconds =       0.00 minutes
	total time  =          1 seconds =       0.02 minutes
Total time:
	user time   =      42.42 seconds =       0.71 minutes
	system time =       0.90 seconds =       0.02 minutes
	total time  =          6 seconds =       0.10 minutes

			-----------------------------------------
			 OPTKING 2.0: for geometry optimizations 
			  - R.A. King,  Bethel University        
			-----------------------------------------
	At level 1: Red. Int., RFO, no backsteps, dynamic trust

	Internal coordinates to be generated automatically.
	Detected frag 1 with atoms:  1 2 3 4 5 6 7 8 9 10 11 12 13 14 15
	---Fragment 1 Bond Connectivity---
	 1 : 4 15
	 2 : 3 4 6 7
	 3 : 2 5 8 9
	 4 : 1 2 10 11
	 5 : 3 12 13 14
	 6 : 2
	 7 : 2
	 8 : 3
	 9 : 3
	 10 : 4
	 11 : 4
	 12 : 5
	 13 : 5
	 14 : 5
	 15 : 1

	Assuming in current code that numbering for constraints corresponds to unified fragment.
	Frozen dihedral atom list: 
	     2     4     1    15
	     4     2     3     5
	     3     2     4     1
	    12     5     3     2
	---Fragment 1 Geometry and Gradient---
	 O          -4.3835379996        0.5523144858       -1.1124149157
	 C           0.1064134799        0.3914118652       -0.4395212370
	 C           2.3806270623       -0.7202818891        1.0358843252
	 C          -2.4928348858       -0.6222126621        0.4198392775
	 C           4.9638184251        0.3114688911        0.1667444780
	 H           0.0889845359        2.4581221806       -0.2537120260
	 H           0.3219991055       -0.0163400101       -2.4630966639
	 H           2.3852379941       -2.7864574121        0.8441035796
	 H           2.1482965735       -0.3316786087        3.0609885405
	 H          -2.5664453876       -2.6846446376        0.2258626701
	 H          -2.7872712237       -0.1928007460        2.4281683940
	 H           5.3027219085       -0.1074607142       -1.8316597969
	 H           6.5000996247       -0.5431937642        1.2591649155
	 H           5.0733356130        2.3629139990        0.4200433679
	 H          -5.9313729848        0.6916798979       -0.1201764190
	             0.0165220667       -0.0049670519       -0.0043607664
	             0.0004200474        0.0038796692       -0.0029278435
	             0.0035914718       -0.0005396029        0.0017494942
	            -0.0231973752        0.0017759204       -0.0047824352
	             0.0036232099        0.0007682557       -0.0005048717
	             0.0006231938        0.0031766475       -0.0005315791
	             0.0006063210       -0.0000226079       -0.0029646301
	             0.0007783313       -0.0018315921        0.0004067511
	             0.0004861256       -0.0002490795        0.0017856276
	            -0.0011042885       -0.0004734825        0.0017923754
	            -0.0018766656       -0.0015793875        0.0004929383
	             0.0010534792       -0.0006915443       -0.0016740700
	             0.0018698235       -0.0009412578        0.0011142519
	             0.0007248482        0.0018462846        0.0006553675
	            -0.0041765368       -0.0001948903        0.0098163883

	Previous optimization step data not found.  Starting new optimization.

	---Fragment 1 Intrafragment Coordinates---
	 - Coordinate -           - BOHR/RAD -       - ANG/DEG -
	 R(1,4)           =         2.702235	       1.429961
	 R(1,15)          =         1.843842	       0.975719
	 R(2,3)           =         2.929971	       1.550474
	 R(2,4)           =         2.919251	       1.544801
	 R(2,6)           =         2.075119	       1.098106
	 R(2,7)           =         2.075475	       1.098294
	 R(3,5)           =         2.914239	       1.542149
	 R(3,8)           =         2.075062	       1.098076
	 R(3,9)           =         2.075099	       1.098095
	 R(4,10)          =         2.072841	       1.096900
	 R(4,11)          =         2.074722	       1.097896
	 R(5,12)          =         2.069777	       1.095279
	 R(5,13)          =         2.069780	       1.095281
	 R(5,14)          =         2.069923	       1.095356
	 B(1,4,2)         =         1.880885	     107.766746
	 B(1,4,10)        =         1.933237	     110.766334
	 B(1,4,11)        =         1.938667	     111.077450
	 B(2,3,5)         =         1.986143	     113.797632
	 B(2,3,8)         =         1.910260	     109.449854
	 B(2,3,9)         =         1.910775	     109.479343
	 B(2,4,10)        =         1.927885	     110.459695
	 B(2,4,11)        =         1.917129	     109.843413
	 B(3,2,4)         =         1.994486	     114.275643
	 B(3,2,6)         =         1.916984	     109.835079
	 B(3,2,7)         =         1.913248	     109.621034
	 B(3,5,12)        =         1.940603	     111.188364
	 B(3,5,13)        =         1.932991	     110.752216
	 B(3,5,14)        =         1.940437	     111.178826
	 B(4,1,15)        =         1.891324	     108.364903
	 B(4,2,6)         =         1.888069	     108.178379
	 B(4,2,7)         =         1.887343	     108.136791
	 B(5,3,8)         =         1.899682	     108.843734
	 B(5,3,9)         =         1.900746	     108.904743
	 B(6,2,7)         =         1.858593	     106.489560
	 B(8,3,9)         =         1.851375	     106.075961
	 B(10,4,11)       =         1.866569	     106.946553
	 B(12,5,13)       =         1.880193	     107.727103
	 B(12,5,14)       =         1.886078	     108.064327
	 B(13,5,14)       =         1.881134	     107.781030
	*D(1,4,2,3)       =        -3.134679	    -179.603898
	 D(1,4,2,6)       =         1.007421	      57.720954
	 D(1,4,2,7)       =        -0.998949	     -57.235558
	*D(2,3,5,12)      =        -1.045052	     -59.877055
	 D(2,3,5,13)      =        -3.134947	    -179.619221
	 D(2,3,5,14)      =         1.057269	      60.577031
	*D(2,4,1,15)      =        -2.619664	    -150.095689
	 D(3,2,4,10)      =        -1.020626	     -58.477543
	 D(3,2,4,11)      =         1.034235	      59.257297
	*D(4,2,3,5)       =        -3.138572	    -179.826902
	 D(4,2,3,8)       =         1.015101	      58.160978
	 D(4,2,3,9)       =        -1.007298	     -57.713946
	 D(5,3,2,6)       =        -1.013290	     -58.057213
	 D(5,3,2,7)       =         1.023082	      58.618269
	 D(6,2,3,8)       =         3.140383	     179.930667
	 D(6,2,3,9)       =         1.117984	      64.055744
	 D(6,2,4,10)      =         3.121474	     178.847309
	 D(6,2,4,11)      =        -1.106850	     -63.417852
	 D(7,2,3,8)       =        -1.106431	     -63.393852
	 D(7,2,3,9)       =        -3.128830	    -179.268775
	 D(7,2,4,10)      =         1.115105	      63.890797
	 D(7,2,4,11)      =        -3.113220	    -178.374364
	 D(8,3,5,12)      =         1.090299	      62.469512
	 D(8,3,5,13)      =        -0.999596	     -57.272654
	 D(8,3,5,14)      =        -3.090566	    -177.076402
	 D(9,3,5,12)      =         3.101332	     177.693256
	 D(9,3,5,13)      =         1.011437	      57.951090
	 D(9,3,5,14)      =        -1.079533	     -61.852658
	 D(10,4,1,15)     =         1.552814	      88.969679
	 D(11,4,1,15)     =        -0.518899	     -29.730733

	Current energy   :      -233.5800115974

	Generating empirical Hessian (Schlegel '84) for each fragment.
	Taking RFO optimization step.
	Going to follow RFO solution 1.
	Using RFO vector 1.
	Norm of target step-size    0.12968
	Projected energy change by RFO approximation:        -0.0029381411

	Back-transformation to cartesian coordinates...
	Successfully converged to displaced geometry.

	Back-transformation to cartesian coordinates to adjust frozen coordinates...
	Successfully converged to displaced geometry.

	--- Internal Coordinate Step in ANG or DEG, aJ/ANG or AJ/DEG ---
	 ---------------------------------------------------------------------------
	   Coordinate                Previous        Force       Change         New 
	   ----------                --------       ------       ------       ------
	    1 R(1,4)          =      1.429961     0.115308     0.017914     1.447875
	    2 R(1,15)         =      0.975719    -0.072337    -0.008838     0.966882
	    3 R(2,3)          =      1.550474    -0.096966    -0.022276     1.528198
	    4 R(2,4)          =      1.544801    -0.124199    -0.028043     1.516758
	    5 R(2,6)          =      1.098106    -0.025645    -0.004810     1.093295
	    6 R(2,7)          =      1.098294    -0.024387    -0.004577     1.093717
	    7 R(3,5)          =      1.542149    -0.057337    -0.012842     1.529307
	    8 R(3,8)          =      1.098076    -0.014691    -0.002756     1.095320
	    9 R(3,9)          =      1.098095    -0.013451    -0.002523     1.095572
	   10 R(4,10)         =      1.096900    -0.002841    -0.000531     1.096370
	   11 R(4,11)         =      1.097896    -0.003459    -0.000648     1.097248
	   12 R(5,12)         =      1.095279    -0.016009    -0.002975     1.092304
	   13 R(5,13)         =      1.095281    -0.019392    -0.003604     1.091676
	   14 R(5,14)         =      1.095356    -0.016122    -0.002997     1.092359
	   15 B(1,4,2)        =    107.766746     0.000124     0.276132   108.042878
	   16 B(1,4,10)       =    110.766334    -0.000016    -0.058554   110.707780
	   17 B(1,4,11)       =    111.077450     0.000037     0.428176   111.505626
	   18 B(2,3,5)        =    113.797632    -0.000382    -1.478384   112.319248
	   19 B(2,3,8)        =    109.449854     0.000080    -0.007683   109.442171
	   20 B(2,3,9)        =    109.479343     0.000066    -0.055431   109.423911
	   21 B(2,4,10)       =    110.459695    -0.000122    -0.716499   109.743196
	   22 B(2,4,11)       =    109.843413    -0.000175    -0.980591   108.862822
	   23 B(3,2,4)        =    114.275643    -0.000367    -1.447710   112.827933
	   24 B(3,2,6)        =    109.835079     0.000116     0.345041   110.180120
	   25 B(3,2,7)        =    109.621034     0.000122     0.437412   110.058446
	   26 B(3,5,12)       =    111.188364    -0.000054    -0.316548   110.871817
	   27 B(3,5,13)       =    110.752216     0.000006     0.173238   110.925454
	   28 B(3,5,14)       =    111.178826    -0.000037    -0.255669   110.923157
	   29 B(4,1,15)       =    108.364903     0.000814     3.747075   112.111978
	   30 B(4,2,6)        =    108.178379     0.000083    -0.077800   108.100578
	   31 B(4,2,7)        =    108.136791     0.000092     0.209373   108.346164
	   32 B(5,3,8)        =    108.843734     0.000145     0.619512   109.463245
	   33 B(5,3,9)        =    108.904743     0.000151     0.527617   109.432360
	   34 B(6,2,7)        =    106.489560    -0.000025     0.648603   107.138163
	   35 B(8,3,9)        =    106.075961    -0.000036     0.518806   106.594767
	   36 B(10,4,11)      =    106.946553     0.000145     1.010362   107.956915
	   37 B(12,5,13)      =    107.727103     0.000032     0.312279   108.039382
	   38 B(12,5,14)      =    108.064327     0.000024    -0.168119   107.896209
	   39 B(13,5,14)      =    107.781030     0.000034     0.278062   108.059092
	   40 *D(1,4,2,3)     =   -179.603898     0.000000    -0.000000  -179.603898
	   41 D(1,4,2,6)      =     57.720954     0.000009     0.577521    58.298474
	   42 D(1,4,2,7)      =    -57.235558    -0.000005    -0.252004   -57.487562
	   43 *D(2,3,5,12)    =    -59.877055    -0.000000    -0.000000   -59.877055
	   44 D(2,3,5,13)     =   -179.619221    -0.000002    -0.298754  -179.917975
	   45 D(2,3,5,14)     =     60.577031    -0.000007    -0.594778    59.982254
	   46 *D(2,4,1,15)    =   -150.095689    -0.000000    -0.000000  -150.095689
	   47 D(3,2,4,10)     =    -58.477543    -0.000003    -0.327377   -58.804920
	   48 D(3,2,4,11)     =     59.257297    -0.000004    -0.107980    59.149316
	   49 *D(4,2,3,5)     =   -179.826902     0.000000    -0.000000  -179.826902
	   50 D(4,2,3,8)      =     58.160978     0.000004     0.217601    58.378579
	   51 D(4,2,3,9)      =    -57.713946    -0.000005    -0.370510   -58.084455
	   52 D(5,3,2,6)      =    -58.057213    -0.000014    -0.849521   -58.906734
	   53 D(5,3,2,7)      =     58.618269     0.000010     0.406686    59.024955
	   54 D(6,2,3,8)      =    179.930667    -0.000010    -0.631920   179.298747
	   55 D(6,2,3,9)      =     64.055744    -0.000019    -1.220031    62.835712
	   56 D(6,2,4,10)     =    178.847309     0.000005     0.250143   179.097452
	   57 D(6,2,4,11)     =    -63.417852     0.000005     0.469540   -62.948312
	   58 D(7,2,3,8)      =    -63.393852     0.000014     0.624288   -62.769564
	   59 D(7,2,3,9)      =   -179.268775     0.000005     0.036177  -179.232598
	   60 D(7,2,4,10)     =     63.890797    -0.000008    -0.579382    63.311415
	   61 D(7,2,4,11)     =   -178.374364    -0.000009    -0.359985  -178.734348
	   62 D(8,3,5,12)     =     62.469512    -0.000012    -0.564058    61.905454
	   63 D(8,3,5,13)     =    -57.272654    -0.000014    -0.862812   -58.135466
	   64 D(8,3,5,14)     =   -177.076402    -0.000019    -1.158835  -178.235237
	   65 D(9,3,5,12)     =    177.693256     0.000015     0.692060   178.385316
	   66 D(9,3,5,13)     =     57.951090     0.000013     0.393306    58.344395
	   67 D(9,3,5,14)     =    -61.852658     0.000008     0.097282   -61.755376
	   68 D(10,4,1,15)    =     88.969679     0.000018     0.739053    89.708732
	   69 D(11,4,1,15)    =    -29.730733    -0.000026    -0.773009   -30.503743
	 ---------------------------------------------------------------------------
	Successfully symmetrized geometry.

  ==> Convergence Check <==

  Measures of convergence in internal coordinates in au.
  Criteria marked as inactive (o), active & met (*), and active & unmet ( ).
  --------------------------------------------------------------------------------------------- ~
   Step     Total Energy     Delta E     MAX Force     RMS Force      MAX Disp      RMS Disp    ~
  --------------------------------------------------------------------------------------------- ~
    Convergence Criteria             o    2.50e-03 *    1.70e-03 *    1.00e-02 *    6.70e-03 *  ~
  --------------------------------------------------------------------------------------------- ~
      1    -233.58001160   -2.34e+02 o    1.51e-02      3.68e-03      6.54e-02      1.56e-02    ~
  ---------------------------------------------------------------------------------------------

	Writing optimization data to binary file.
	Structure for next step:
	Cartesian Geometry (in Angstrom)
	    O    -2.2953215943   0.3383094459  -0.5793928540
	    C     0.0745579064   0.2151345058  -0.2247492187
	    C     1.2361458712  -0.4057264609   0.5502575611
	    C    -1.2773576738  -0.3065937069   0.2232228130
	    C     2.5928332797   0.1313821068   0.0923333600
	    H     0.0770891138   1.3015078302  -0.1019425651
	    H     0.1852565664   0.0113555418  -1.2935971984
	    H     1.2147945765  -1.4941308975   0.4292377234
	    H     1.1077948050  -0.2072726959   1.6200334667
	    H    -1.3150580881  -1.3948965093   0.0959359684
	    H    -1.4068680727  -0.0861161887   1.2902602118
	    H     2.7576284866  -0.0796636334  -0.9666421933
	    H     3.4052842756  -0.3275803296   0.6589322295
	    H     2.6514647891   1.2131744666   0.2321038055
	    H    -3.1290474372   0.4364401131  -0.0996724507
			--------------------------
			 OPTKING Finished Execution 
			--------------------------

    Structure for next step:
    Molecular point group: c1
    Full point group: C1

    Geometry (in Angstrom), charge = 0, multiplicity = 1:

    O           -2.300619535773     0.333051159508    -0.583506017809
    C            0.069259974202     0.209876218864    -0.228862381086
    C            1.230847943606    -0.410984750310     0.546144401766
    C           -1.282655611252    -0.311851995895     0.219109652352
    C            2.587535357419     0.126123819592     0.088220198847
    H            0.071791181669     1.296249547518    -0.106055726988
    H            0.179958634724     0.006097254049    -1.297710365024
    H            1.209496648786    -1.499389191107     0.425124563566
    H            1.102496876867    -0.212530984436     1.615920311586
    H           -1.320356025698    -1.400154802570     0.091822807306
    H           -1.412166010669    -0.091374476796     1.286147055347
    H            2.752330564953    -0.084921921493    -0.970755358598
    H            3.399986356492    -0.332838618663     0.654819070533
    H            2.646166867075     1.207916183617     0.227990644857
    H           -3.134345381950     0.431181827058    -0.103785612608

gradient() will perform analytic gradient computation.

*** tstart() called on daniele-Precision-5750
*** at Thu May 27 10:57:38 2021

   => Loading Basis Set <=

    Name: 6-311G
    Role: ORBITAL
    Keyword: BASIS
    atoms 1    entry O          line   126 file /home/daniele/anaconda3/envs/poltype/share/psi4/basis/6-311g.gbs 
    atoms 2-5  entry C          line    92 file /home/daniele/anaconda3/envs/poltype/share/psi4/basis/6-311g.gbs 
    atoms 6-15 entry H          line    21 file /home/daniele/anaconda3/envs/poltype/share/psi4/basis/6-311g.gbs 


         ---------------------------------------------------------
                                   SCF
               by Justin Turney, Rob Parrish, Andy Simmonett
                          and Daniel G. A. Smith
                              RKS Reference
                        8 Threads,    667 MiB Core
         ---------------------------------------------------------

  ==> Geometry <==

    Molecular point group: c1
    Full point group: C1

    Geometry (in Angstrom), charge = 0, multiplicity = 1:

       Center              X                  Y                   Z               Mass       
    ------------   -----------------  -----------------  -----------------  -----------------
         O           -2.300619535773     0.333051159508    -0.583506017809    15.994914619570
         C            0.069259974202     0.209876218864    -0.228862381086    12.000000000000
         C            1.230847943606    -0.410984750310     0.546144401766    12.000000000000
         C           -1.282655611252    -0.311851995895     0.219109652352    12.000000000000
         C            2.587535357419     0.126123819592     0.088220198847    12.000000000000
         H            0.071791181669     1.296249547518    -0.106055726988     1.007825032230
         H            0.179958634724     0.006097254049    -1.297710365024     1.007825032230
         H            1.209496648786    -1.499389191107     0.425124563566     1.007825032230
         H            1.102496876867    -0.212530984436     1.615920311586     1.007825032230
         H           -1.320356025698    -1.400154802570     0.091822807306     1.007825032230
         H           -1.412166010669    -0.091374476796     1.286147055347     1.007825032230
         H            2.752330564953    -0.084921921493    -0.970755358598     1.007825032230
         H            3.399986356492    -0.332838618663     0.654819070533     1.007825032230
         H            2.646166867075     1.207916183617     0.227990644857     1.007825032230
         H           -3.134345381950     0.431181827058    -0.103785612608     1.007825032230

  Running in c1 symmetry.

  Rotational constants: A =      0.61772  B =      0.06577  C =      0.06228 [cm^-1]
  Rotational constants: A =  18518.66049  B =   1971.66594  C =   1867.02168 [MHz]
  Nuclear repulsion =  184.534080213083570

  Charge       = 0
  Multiplicity = 1
  Electrons    = 42
  Nalpha       = 21
  Nbeta        = 21

  ==> Algorithm <==

  SCF Algorithm Type is DF.
  DIIS enabled.
  MOM disabled.
  Fractional occupation disabled.
  Guess Type is READ.
  Energy threshold   = 1.00e-08
  Density threshold  = 1.00e-08
  Integral threshold = 0.00e+00

  ==> Primary Basis <==

  Basis Set: 6-311G
    Blend: 6-311G
    Number of shells: 65
    Number of basis function: 95
    Number of Cartesian functions: 95
    Spherical Harmonics?: true
    Max angular momentum: 1

  ==> DFT Potential <==

   => Composite Functional: WB97X-D <= 

    wB97X-D Hyb-GGA Exchange-Correlation Functional

    J.-D. Chai and M. Head-Gordon, Phys. Chem. Chem. Phys. 10, 6615 (2008)

    Deriv               =              1
    GGA                 =           TRUE
    Meta                =          FALSE

    Exchange Hybrid     =           TRUE
    MP2 Hybrid          =          FALSE

   => Exchange-Correlation Functionals <=

    1.0000   wB97D range-separated functional

   => Exact (HF) Exchange <=

    0.7780            HF,LR [omega = 0.2000]
    0.2220               HF 

   => Molecular Quadrature <=

    Radial Scheme          =       TREUTLER
    Pruning Scheme         =           FLAT
    Nuclear Scheme         =       TREUTLER

    BS radius alpha        =              1
    Pruning alpha          =              1
    Radial Points          =             75
    Spherical Points       =            302
    Total Points           =         336073
    Total Blocks           =           2574
    Max Points             =            256
    Max Functions          =             89

   => WB97X-D: Empirical Dispersion <=

    Chai and Head-Gordon Dispersion Correction
    Chai, J.-D.; Head-Gordon, M. (2010), J. Chem. Phys., 132: 6615-6620

        s6 =       1.000000

   => Loading Basis Set <=

    Name: (6-311G AUX)
    Role: JKFIT
    Keyword: DF_BASIS_SCF
    atoms 1    entry O          line   229 file /home/daniele/anaconda3/envs/poltype/share/psi4/basis/cc-pvtz-jkfit.gbs 
    atoms 2-5  entry C          line   125 file /home/daniele/anaconda3/envs/poltype/share/psi4/basis/cc-pvtz-jkfit.gbs 
    atoms 6-15 entry H          line    51 file /home/daniele/anaconda3/envs/poltype/share/psi4/basis/cc-pvtz-jkfit.gbs 

   => Loading Basis Set <=

    Name: 6-311G
    Role: ORBITAL
    Keyword: BASIS
    atoms 1    entry O          line   126 file /home/daniele/anaconda3/envs/poltype/share/psi4/basis/6-311g.gbs 
    atoms 2-5  entry C          line    92 file /home/daniele/anaconda3/envs/poltype/share/psi4/basis/6-311g.gbs 
    atoms 6-15 entry H          line    21 file /home/daniele/anaconda3/envs/poltype/share/psi4/basis/6-311g.gbs 

  Reading orbitals from file 180, no projection.

  ==> Pre-Iterations <==

   -------------------------------------------------------
    Irrep   Nso     Nmo     Nalpha   Nbeta   Ndocc  Nsocc
   -------------------------------------------------------
     A         95      95       0       0       0       0
   -------------------------------------------------------
    Total      95      95      21      21      21       0
   -------------------------------------------------------

  ==> Integral Setup <==

  ==> DiskDFJK: Density-Fitted J/K Matrices <==

    J tasked:                  Yes
    K tasked:                  Yes
    wK tasked:                 Yes
    Omega:               2.000E-01
    OpenMP threads:              8
    Integrals threads:           8
    Memory [MiB]:               34
    Algorithm:                Disk
    Integral Cache:           NONE
    Schwarz Cutoff:          1E-12
    Fitting Condition:       1E-10

   => Auxiliary Basis Set <=

  Basis Set: (6-311G AUX)
    Blend: CC-PVTZ-JKFIT
    Number of shells: 225
    Number of basis function: 695
    Number of Cartesian functions: 830
    Spherical Harmonics?: true
    Max angular momentum: 4

  Cached 100.0% of DFT collocation blocks in 0.665 [GiB].

  Minimum eigenvalue in the overlap matrix is 2.3025712996E-03.
  Using Symmetric Orthogonalization.

  SCF Guess: Orbitals guess was supplied from a previous computation.

  ==> Iterations <==

                           Total Energy        Delta E     RMS |[F,P]|

   @DF-RKS iter   0:  -233.59463793073940   -2.33595e+02   9.30708e-04 
   @DF-RKS iter   1:  -233.58139565774829    1.32423e-02   1.30669e-04 DIIS
   @DF-RKS iter   2:  -233.58146083987768   -6.51821e-05   9.67758e-05 DIIS
   @DF-RKS iter   3:  -233.58149118222514   -3.03423e-05   2.53824e-05 DIIS
   @DF-RKS iter   4:  -233.58149351310797   -2.33088e-06   7.89574e-06 DIIS
   @DF-RKS iter   5:  -233.58149382538022   -3.12272e-07   2.09959e-06 DIIS
   @DF-RKS iter   6:  -233.58149385228634   -2.69061e-08   2.52230e-07 DIIS
   @DF-RKS iter   7:  -233.58149385290096   -6.14619e-10   1.37253e-07 DIIS
   @DF-RKS iter   8:  -233.58149385301377   -1.12806e-10   2.29883e-08 DIIS
   @DF-RKS iter   9:  -233.58149385301985   -6.08225e-12   4.87198e-09 DIIS
  Energy and wave function converged.


  ==> Post-Iterations <==

    Orbital Energies [Eh]
    ---------------------

    Doubly Occupied:                                                      

       1A    -19.234488     2A    -10.329836     3A    -10.280749  
       4A    -10.273058     5A    -10.269326     6A     -1.117718  
       7A     -0.900504     8A     -0.823776     9A     -0.726422  
      10A     -0.678221    11A     -0.598625    12A     -0.572142  
      13A     -0.523993    14A     -0.518592    15A     -0.483066  
      16A     -0.451287    17A     -0.434547    18A     -0.419155  
      19A     -0.409427    20A     -0.399122    21A     -0.350562  

    Virtual:                                                              

      22A      0.117870    23A      0.125139    24A      0.149515  
      25A      0.154744    26A      0.170521    27A      0.207270  
      28A      0.210974    29A      0.219303    30A      0.224292  
      31A      0.243127    32A      0.249604    33A      0.303581  
      34A      0.312009    35A      0.329825    36A      0.386015  
      37A      0.388579    38A      0.418755    39A      0.448447  
      40A      0.455166    41A      0.470705    42A      0.507460  
      43A      0.530470    44A      0.606640    45A      0.618980  
      46A      0.652480    47A      0.653673    48A      0.675377  
      49A      0.676555    50A      0.686455    51A      0.693290  
      52A      0.703200    53A      0.708556    54A      0.712801  
      55A      0.722157    56A      0.727215    57A      0.756270  
      58A      0.853415    59A      0.964750    60A      1.012753  
      61A      1.057414    62A      1.093997    63A      1.110150  
      64A      1.172257    65A      1.584634    66A      2.263141  
      67A      2.345841    68A      2.351091    69A      2.353031  
      70A      2.359875    71A      2.364543    72A      2.386627  
      73A      2.392500    74A      2.411609    75A      2.434779  
      76A      2.860329    77A      2.908610    78A      2.920698  
      79A      2.934485    80A      2.956909    81A      2.965859  
      82A      2.989769    83A      3.069039    84A      3.095480  
      85A      3.169308    86A      3.180339    87A      3.315742  
      88A      4.958804    89A      5.015738    90A      5.179416  
      91A     23.431287    92A     23.572656    93A     23.649877  
      94A     23.729846    95A     49.963746  

    Final Occupation by Irrep:
              A 
    DOCC [    21 ]

  @DF-RKS Final Energy:  -233.58149385301985

   => Energetics <=

    Nuclear Repulsion Energy =            184.5340802130835698
    One-Electron Energy =                -680.9250486561827529
    Two-Electron Energy =                 286.0579674733507431
    DFT Exchange-Correlation Energy =     -23.2415326878027955
    Empirical Dispersion Energy =          -0.0069601954686035
    VV10 Nonlocal Energy =                  0.0000000000000000
    Total Energy =                       -233.5814938530197935

Computation Completed


Properties will be evaluated at   0.000000,   0.000000,   0.000000 [a0]

Properties computed using the SCF density matrix

  Nuclear Dipole Moment: [e a0]
     X:     5.1407      Y:    -0.6357      Z:     1.7067

  Electronic Dipole Moment: [e a0]
     X:    -5.2326      Y:     0.4338      Z:    -0.9752

  Dipole Moment: [e a0]
     X:    -0.0920      Y:    -0.2019      Z:     0.7315     Total:     0.7644

  Dipole Moment: [D]
     X:    -0.2337      Y:    -0.5132      Z:     1.8592     Total:     1.9428


*** tstop() called on daniele-Precision-5750 at Thu May 27 10:57:42 2021
Module time:
	user time   =      24.25 seconds =       0.40 minutes
	system time =       0.35 seconds =       0.01 minutes
	total time  =          4 seconds =       0.07 minutes
Total time:
	user time   =      67.18 seconds =       1.12 minutes
	system time =       1.26 seconds =       0.02 minutes
	total time  =         10 seconds =       0.17 minutes

*** tstart() called on daniele-Precision-5750
*** at Thu May 27 10:57:42 2021


         ------------------------------------------------------------
                                   SCF GRAD                          
                          Rob Parrish, Justin Turney,                
                       Andy Simmonett, and Alex Sokolov              
         ------------------------------------------------------------

  ==> Geometry <==

    Molecular point group: c1
    Full point group: C1

    Geometry (in Angstrom), charge = 0, multiplicity = 1:

       Center              X                  Y                   Z               Mass       
    ------------   -----------------  -----------------  -----------------  -----------------
         O           -2.300619535773     0.333051159508    -0.583506017809    15.994914619570
         C            0.069259974202     0.209876218864    -0.228862381086    12.000000000000
         C            1.230847943606    -0.410984750310     0.546144401766    12.000000000000
         C           -1.282655611252    -0.311851995895     0.219109652352    12.000000000000
         C            2.587535357419     0.126123819592     0.088220198847    12.000000000000
         H            0.071791181669     1.296249547518    -0.106055726988     1.007825032230
         H            0.179958634724     0.006097254049    -1.297710365024     1.007825032230
         H            1.209496648786    -1.499389191107     0.425124563566     1.007825032230
         H            1.102496876867    -0.212530984436     1.615920311586     1.007825032230
         H           -1.320356025698    -1.400154802570     0.091822807306     1.007825032230
         H           -1.412166010669    -0.091374476796     1.286147055347     1.007825032230
         H            2.752330564953    -0.084921921493    -0.970755358598     1.007825032230
         H            3.399986356492    -0.332838618663     0.654819070533     1.007825032230
         H            2.646166867075     1.207916183617     0.227990644857     1.007825032230
         H           -3.134345381950     0.431181827058    -0.103785612608     1.007825032230

  Nuclear repulsion =  184.534080213083570

  ==> Basis Set <==

  Basis Set: 6-311G
    Blend: 6-311G
    Number of shells: 65
    Number of basis function: 95
    Number of Cartesian functions: 95
    Spherical Harmonics?: true
    Max angular momentum: 1

  ==> DFJKGrad: Density-Fitted SCF Gradients <==

    Gradient:                    1
    J tasked:                  Yes
    K tasked:                  Yes
    wK tasked:                 Yes
    Omega:               2.000E-01
    OpenMP threads:              8
    Integrals threads:           8
    Memory [MiB]:              500
    Schwarz Cutoff:          0E+00
    Fitting Condition:       1E-10

   => Auxiliary Basis Set <=

  Basis Set: (6-311G AUX)
    Blend: CC-PVTZ-JKFIT
    Number of shells: 225
    Number of basis function: 695
    Number of Cartesian functions: 830
    Spherical Harmonics?: true
    Max angular momentum: 4

  ==> DFT Potential <==

   => Composite Functional: WB97X-D <= 

    wB97X-D Hyb-GGA Exchange-Correlation Functional

    J.-D. Chai and M. Head-Gordon, Phys. Chem. Chem. Phys. 10, 6615 (2008)

    Deriv               =              1
    GGA                 =           TRUE
    Meta                =          FALSE

    Exchange Hybrid     =           TRUE
    MP2 Hybrid          =          FALSE

   => Exchange-Correlation Functionals <=

    1.0000   wB97D range-separated functional

   => Exact (HF) Exchange <=

    0.7780            HF,LR [omega = 0.2000]
    0.2220               HF 

   => Molecular Quadrature <=

    Radial Scheme          =       TREUTLER
    Pruning Scheme         =           FLAT
    Nuclear Scheme         =       TREUTLER

    BS radius alpha        =              1
    Pruning alpha          =              1
    Radial Points          =             75
    Spherical Points       =            302
    Total Points           =         336073
    Total Blocks           =           2574
    Max Points             =            256
    Max Functions          =             89


  -Total Gradient:
     Atom            X                  Y                   Z
    ------   -----------------  -----------------  -----------------
       1        0.000507400546    -0.001182408582    -0.000234838430
       2        0.002004656042    -0.000463497995     0.001919241413
       3       -0.000314673307     0.000203152317     0.000131645398
       4       -0.001420268755    -0.000157907649    -0.002880287117
       5       -0.000898302708     0.000966548205    -0.000936193420
       6       -0.000527930341     0.000002372303     0.000496796798
       7       -0.000500163039    -0.000578240090    -0.000098082365
       8       -0.000076268396    -0.000055021833    -0.000311288016
       9       -0.000134231871     0.000315699695    -0.000022596961
      10        0.001825498105    -0.000570286149     0.000608391419
      11        0.001656173149    -0.000249548541     0.000520844056
      12       -0.000035154778    -0.000140334456     0.000042856368
      13       -0.000523586188    -0.000500989124     0.000471922025
      14       -0.000022295835    -0.000021387914     0.000121100695
      15       -0.001584400641     0.002425676270     0.000225767030


*** tstop() called on daniele-Precision-5750 at Thu May 27 10:57:43 2021
Module time:
	user time   =      12.72 seconds =       0.21 minutes
	system time =       0.12 seconds =       0.00 minutes
	total time  =          1 seconds =       0.02 minutes
Total time:
	user time   =      79.91 seconds =       1.33 minutes
	system time =       1.38 seconds =       0.02 minutes
	total time  =         11 seconds =       0.18 minutes

			-----------------------------------------
			 OPTKING 2.0: for geometry optimizations 
			  - R.A. King,  Bethel University        
			-----------------------------------------
	At level 1: Red. Int., RFO, no backsteps, dynamic trust

	Previous internal coordinate definitions found.
	---Fragment 1 Geometry and Gradient---
	 O          -4.3475408415        0.6293754772       -1.1026665662
	 C           0.1308823827        0.3966085739       -0.4324872207
	 C           2.3259655155       -0.7766486198        1.0320633443
	 C          -2.4238678185       -0.5893148639        0.4140572344
	 C           4.8897331655        0.2383394769        0.1667120146
	 H           0.1356656716        2.4495566351       -0.2004162780
	 H           0.3400725335        0.0115221403       -2.4523171801
	 H           2.2856174159       -2.8334349267        0.8033689943
	 H           2.0834171515       -0.4016253538        3.0536468295
	 H          -2.4951112767       -2.6459091101        0.1735199579
	 H          -2.6686070038       -0.1726727360        2.4304656917
	 H           5.2011509745       -0.1604791737       -1.8344617626
	 H           6.4250430441       -0.6289738332        1.2374287050
	 H           5.0005306610        2.2826307695        0.4308398779
	 H          -5.9230543545        0.8148155634       -0.1961263836
	             0.0005074005       -0.0011824086       -0.0002348384
	             0.0020046560       -0.0004634980        0.0019192414
	            -0.0003146733        0.0002031523        0.0001316454
	            -0.0014202688       -0.0001579076       -0.0028802871
	            -0.0008983027        0.0009665482       -0.0009361934
	            -0.0005279303        0.0000023723        0.0004967968
	            -0.0005001630       -0.0005782401       -0.0000980824
	            -0.0000762684       -0.0000550218       -0.0003112880
	            -0.0001342319        0.0003156997       -0.0000225970
	             0.0018254981       -0.0005702861        0.0006083914
	             0.0016561731       -0.0002495485        0.0005208441
	            -0.0000351548       -0.0001403345        0.0000428564
	            -0.0005235862       -0.0005009891        0.0004719220
	            -0.0000222958       -0.0000213879        0.0001211007
	            -0.0015844006        0.0024256763        0.0002257670

	---Fragment 1 Intrafragment Coordinates---
	 - Coordinate -           - BOHR/RAD -       - ANG/DEG -
	 R(1,4)           =         2.736088	       1.447875
	 R(1,15)          =         1.827141	       0.966882
	 R(2,3)           =         2.887877	       1.528198
	 R(2,4)           =         2.866257	       1.516758
	 R(2,6)           =         2.066029	       1.093295
	 R(2,7)           =         2.066825	       1.093717
	 R(3,5)           =         2.889972	       1.529307
	 R(3,8)           =         2.069855	       1.095320
	 R(3,9)           =         2.070331	       1.095572
	 R(4,10)          =         2.071838	       1.096370
	 R(4,11)          =         2.073497	       1.097248
	 R(5,12)          =         2.064155	       1.092304
	 R(5,13)          =         2.062969	       1.091676
	 R(5,14)          =         2.064259	       1.092359
	 B(1,4,2)         =         1.885704	     108.042878
	 B(1,4,10)        =         1.932215	     110.707780
	 B(1,4,11)        =         1.946140	     111.505626
	 B(2,3,5)         =         1.960341	     112.319248
	 B(2,3,8)         =         1.910126	     109.442171
	 B(2,3,9)         =         1.909808	     109.423911
	 B(2,4,10)        =         1.915380	     109.743196
	 B(2,4,11)        =         1.900015	     108.862822
	 B(3,2,4)         =         1.969219	     112.827933
	 B(3,2,6)         =         1.923006	     110.180120
	 B(3,2,7)         =         1.920882	     110.058446
	 B(3,5,12)        =         1.935078	     110.871817
	 B(3,5,13)        =         1.936014	     110.925454
	 B(3,5,14)        =         1.935974	     110.923157
	 B(4,1,15)        =         1.956723	     112.111978
	 B(4,2,6)         =         1.886711	     108.100578
	 B(4,2,7)         =         1.890997	     108.346164
	 B(5,3,8)         =         1.910494	     109.463245
	 B(5,3,9)         =         1.909955	     109.432360
	 B(6,2,7)         =         1.869914	     107.138163
	 B(8,3,9)         =         1.860430	     106.594767
	 B(10,4,11)       =         1.884204	     107.956915
	 B(12,5,13)       =         1.885643	     108.039382
	 B(12,5,14)       =         1.883144	     107.896209
	 B(13,5,14)       =         1.885987	     108.059092
	*D(1,4,2,3)       =        -3.134679	    -179.603898
	 D(1,4,2,6)       =         1.017500	      58.298474
	 D(1,4,2,7)       =        -1.003347	     -57.487562
	*D(2,3,5,12)      =        -1.045052	     -59.877055
	 D(2,3,5,13)      =        -3.140161	    -179.917975
	 D(2,3,5,14)      =         1.046888	      59.982254
	*D(2,4,1,15)      =        -2.619664	    -150.095689
	 D(3,2,4,10)      =        -1.026339	     -58.804920
	 D(3,2,4,11)      =         1.032350	      59.149316
	*D(4,2,3,5)       =        -3.138572	    -179.826902
	 D(4,2,3,8)       =         1.018898	      58.378579
	 D(4,2,3,9)       =        -1.013765	     -58.084455
	 D(5,3,2,6)       =        -1.028116	     -58.906734
	 D(5,3,2,7)       =         1.030180	      59.024955
	 D(6,2,3,8)       =         3.129353	     179.298747
	 D(6,2,3,9)       =         1.096690	      62.835712
	 D(6,2,4,10)      =         3.125840	     179.097452
	 D(6,2,4,11)      =        -1.098655	     -62.948312
	 D(7,2,3,8)       =        -1.095536	     -62.769564
	 D(7,2,3,9)       =        -3.128199	    -179.232598
	 D(7,2,4,10)      =         1.104993	      63.311415
	 D(7,2,4,11)      =        -3.119503	    -178.734348
	 D(8,3,5,12)      =         1.080454	      61.905454
	 D(8,3,5,13)      =        -1.014655	     -58.135466
	 D(8,3,5,14)      =        -3.110792	    -178.235237
	 D(9,3,5,12)      =         3.113411	     178.385316
	 D(9,3,5,13)      =         1.018302	      58.344395
	 D(9,3,5,14)      =        -1.077835	     -61.755376
	 D(10,4,1,15)     =         1.565713	      89.708732
	 D(11,4,1,15)     =        -0.532391	     -30.503743

	Current energy   :      -233.5814938530

	Energy change for the previous step:
		Projected    :        -0.0029381411
		Actual       :        -0.0014822556

	Performing BFGS update.
	Previous computed or guess Hessian on step 1.
	Steps to be used in Hessian update: 1
	Taking RFO optimization step.
	Going to follow RFO solution 1.
	Using RFO vector 1.
	Norm of target step-size    0.04086
	Projected energy change by RFO approximation:        -0.0003276699

	Back-transformation to cartesian coordinates...
	Successfully converged to displaced geometry.

	Back-transformation to cartesian coordinates to adjust frozen coordinates...
	Successfully converged to displaced geometry.

	--- Internal Coordinate Step in ANG or DEG, aJ/ANG or AJ/DEG ---
	 ---------------------------------------------------------------------------
	   Coordinate                Previous        Force       Change         New 
	   ----------                --------       ------       ------       ------
	    1 R(1,4)          =      1.447875    -0.010748    -0.000757     1.447118
	    2 R(1,15)         =      0.966882    -0.014227    -0.001878     0.965004
	    3 R(2,3)          =      1.528198     0.017385     0.002632     1.530830
	    4 R(2,4)          =      1.516758     0.012307     0.001326     1.518084
	    5 R(2,6)          =      1.093295    -0.000472    -0.000271     1.093025
	    6 R(2,7)          =      1.093717    -0.001279    -0.000395     1.093322
	    7 R(3,5)          =      1.529307     0.008975     0.001259     1.530566
	    8 R(3,8)          =      1.095320    -0.000745    -0.000233     1.095086
	    9 R(3,9)          =      1.095572    -0.000360    -0.000160     1.095412
	   10 R(4,10)         =      1.096370    -0.003578    -0.000611     1.095759
	   11 R(4,11)         =      1.097248    -0.002153    -0.000382     1.096866
	   12 R(5,12)         =      1.092304     0.000081    -0.000106     1.092198
	   13 R(5,13)         =      1.091676    -0.000502    -0.000227     1.091450
	   14 R(5,14)         =      1.092359     0.000040    -0.000113     1.092246
	   15 B(1,4,2)        =    108.042878     0.000043     0.070085   108.112963
	   16 B(1,4,10)       =    110.707780    -0.000112    -0.806542   109.901239
	   17 B(1,4,11)       =    111.505626    -0.000098    -0.618458   110.887169
	   18 B(2,3,5)        =    112.319248     0.000061     0.178317   112.497565
	   19 B(2,3,8)        =    109.442171    -0.000006     0.022377   109.464548
	   20 B(2,3,9)        =    109.423911    -0.000014     0.023535   109.447446
	   21 B(2,4,10)       =    109.743196     0.000098     0.600178   110.343374
	   22 B(2,4,11)       =    108.862822     0.000091     0.616786   109.479609
	   23 B(3,2,4)        =    112.827933    -0.000017    -0.044349   112.783584
	   24 B(3,2,6)        =    110.180120    -0.000013    -0.093536   110.086583
	   25 B(3,2,7)        =    110.058446    -0.000009    -0.077782   109.980664
	   26 B(3,5,12)       =    110.871817    -0.000009    -0.077542   110.794275
	   27 B(3,5,13)       =    110.925454     0.000094     0.467592   111.393046
	   28 B(3,5,14)       =    110.923157    -0.000011    -0.102224   110.820933
	   29 B(4,1,15)       =    112.111978    -0.000212    -0.714119   111.397859
	   30 B(4,2,6)        =    108.100578     0.000033     0.215800   108.316378
	   31 B(4,2,7)        =    108.346164     0.000032     0.257349   108.603513
	   32 B(5,3,8)        =    109.463245    -0.000022    -0.024886   109.438360
	   33 B(5,3,9)        =    109.432360    -0.000020    -0.044187   109.388173
	   34 B(6,2,7)        =    107.138163    -0.000025    -0.261365   106.876798
	   35 B(8,3,9)        =    106.594767    -0.000003    -0.174428   106.420339
	   36 B(10,4,11)      =    107.956915    -0.000015     0.163459   108.120374
	   37 B(12,5,13)      =    108.039382    -0.000040    -0.066762   107.972620
	   38 B(12,5,14)      =    107.896209    -0.000003    -0.161548   107.734660
	   39 B(13,5,14)      =    108.059092    -0.000035    -0.076925   107.982168
	   40 *D(1,4,2,3)     =   -179.603898     0.000000    -0.000000  -179.603898
	   41 D(1,4,2,6)      =     58.298474     0.000001    -0.004336    58.294138
	   42 D(1,4,2,7)      =    -57.487562    -0.000000     0.053890   -57.433672
	   43 *D(2,3,5,12)    =    -59.877055     0.000000    -0.000000   -59.877055
	   44 D(2,3,5,13)     =   -179.917975    -0.000001    -0.174708  -180.092683
	   45 D(2,3,5,14)     =     59.982254    -0.000004    -0.320633    59.661621
	   46 *D(2,4,1,15)    =   -150.095689     0.000000    -0.000000  -150.095689
	   47 D(3,2,4,10)     =    -58.804920    -0.000012    -0.583543   -59.388463
	   48 D(3,2,4,11)     =     59.149316     0.000009     0.343241    59.492557
	   49 *D(4,2,3,5)     =   -179.826902     0.000000    -0.000000  -179.826902
	   50 D(4,2,3,8)      =     58.378579    -0.000002    -0.103897    58.274681
	   51 D(4,2,3,9)      =    -58.084455     0.000001     0.079903   -58.004552
	   52 D(5,3,2,6)      =    -58.906734     0.000005     0.179668   -58.727067
	   53 D(5,3,2,7)      =     59.024955    -0.000005    -0.244007    58.780948
	   54 D(6,2,3,8)      =    179.298747     0.000003     0.075770   179.374517
	   55 D(6,2,3,9)      =     62.835712     0.000006     0.259571    63.095283
	   56 D(6,2,4,10)     =    179.097452    -0.000011    -0.587879   178.509573
	   57 D(6,2,4,11)     =    -62.948312     0.000010     0.338905   -62.609407
	   58 D(7,2,3,8)      =    -62.769564    -0.000007    -0.347904   -63.117468
	   59 D(7,2,3,9)      =   -179.232598    -0.000004    -0.164104  -179.396702
	   60 D(7,2,4,10)     =     63.311415    -0.000012    -0.529653    62.781763
	   61 D(7,2,4,11)     =   -178.734348     0.000009     0.397131  -178.337217
	   62 D(8,3,5,12)     =     61.905454     0.000004     0.130763    62.036218
	   63 D(8,3,5,13)     =    -58.135466     0.000003    -0.043945   -58.179411
	   64 D(8,3,5,14)     =   -178.235237     0.000000    -0.189869  -178.425106
	   65 D(9,3,5,12)     =    178.385316    -0.000002    -0.118367   178.266949
	   66 D(9,3,5,13)     =     58.344395    -0.000003    -0.293075    58.051320
	   67 D(9,3,5,14)     =    -61.755376    -0.000006    -0.439000   -62.194375
	   68 D(10,4,1,15)    =     89.708732    -0.000018    -0.296480    89.412253
	   69 D(11,4,1,15)    =    -30.503743     0.000018     0.431897   -30.071846
	 ---------------------------------------------------------------------------
	Successfully symmetrized geometry.

  ==> Convergence Check <==

  Measures of convergence in internal coordinates in au.
  Criteria marked as inactive (o), active & met (*), and active & unmet ( ).
  ---------------------------------------------------------------------------------------------
   Step     Total Energy     Delta E     MAX Force     RMS Force      MAX Disp      RMS Disp   
  ---------------------------------------------------------------------------------------------
    Convergence Criteria             o    2.50e-03 *    1.70e-03 *    1.00e-02 *    6.70e-03 *
  ---------------------------------------------------------------------------------------------
      2    -233.58149385   -1.48e-03 o    2.78e-03      7.28e-04 *    1.41e-02      4.92e-03 *  ~
  ---------------------------------------------------------------------------------------------

	Writing optimization data to binary file.
	Structure for next step:
	Cartesian Geometry (in Angstrom)
	    O    -2.3032851194   0.3303414335  -0.5835360108
	    C     0.0686524370   0.2115552014  -0.2307003816
	    C     1.2322666126  -0.4101918537   0.5457494705
	    C    -1.2837806130  -0.3127003965   0.2172500540
	    C     2.5921024781   0.1259715444   0.0918674857
	    H     0.0736462781   1.2977203062  -0.1085375002
	    H     0.1835945815   0.0118199819  -1.2994597012
	    H     1.2110453985  -1.4984562220   0.4255631072
	    H     1.1028303083  -0.2142363316   1.6156908049
	    H    -1.3345374561  -1.3990852678   0.0835381336
	    H    -1.4267301508  -0.0930285008   1.2823433630
	    H     2.7582736057  -0.0848248781  -0.9668335039
	    H     3.4078697236  -0.3275512171   0.6576445997
	    H     2.6479371747   1.2082129955   0.2283824988
	    H    -3.1301574410   0.4209024766  -0.0943391830
			--------------------------
			 OPTKING Finished Execution 
			--------------------------

    Structure for next step:
    Molecular point group: c1
    Full point group: C1

    Geometry (in Angstrom), charge = 0, multiplicity = 1:

    O           -2.303376971554     0.330671367785    -0.583463872177
    C            0.068560594083     0.211885135192    -0.230628241579
    C            1.232174774258    -0.409861922378     0.545821613605
    C           -1.283872461177    -0.312370464773     0.217322195769
    C            2.592010645140     0.126301477865     0.091939627021
    H            0.073554435211     1.298050244309    -0.108465359712
    H            0.183502739063     0.012149914915    -1.299387565433
    H            1.210953560075    -1.498126294912     0.425635249791
    H            1.102738469441    -0.213906399491     1.615762952183
    H           -1.334629304474    -1.398755340332     0.083610274848
    H           -1.426821999597    -0.092698568154     1.282415508946
    H            2.758181773394    -0.084494945482    -0.966761366830
    H            3.407777893822    -0.327221285370     0.657716743207
    H            2.647845342008     1.208542933206     0.228454640643
    H           -3.130249296460     0.421232411196    -0.094267042501

gradient() will perform analytic gradient computation.

*** tstart() called on daniele-Precision-5750
*** at Thu May 27 10:57:43 2021

   => Loading Basis Set <=

    Name: 6-311G
    Role: ORBITAL
    Keyword: BASIS
    atoms 1    entry O          line   126 file /home/daniele/anaconda3/envs/poltype/share/psi4/basis/6-311g.gbs 
    atoms 2-5  entry C          line    92 file /home/daniele/anaconda3/envs/poltype/share/psi4/basis/6-311g.gbs 
    atoms 6-15 entry H          line    21 file /home/daniele/anaconda3/envs/poltype/share/psi4/basis/6-311g.gbs 


         ---------------------------------------------------------
                                   SCF
               by Justin Turney, Rob Parrish, Andy Simmonett
                          and Daniel G. A. Smith
                              RKS Reference
                        8 Threads,    667 MiB Core
         ---------------------------------------------------------

  ==> Geometry <==

    Molecular point group: c1
    Full point group: C1

    Geometry (in Angstrom), charge = 0, multiplicity = 1:

       Center              X                  Y                   Z               Mass       
    ------------   -----------------  -----------------  -----------------  -----------------
         O           -2.303376971554     0.330671367785    -0.583463872177    15.994914619570
         C            0.068560594083     0.211885135192    -0.230628241579    12.000000000000
         C            1.232174774258    -0.409861922378     0.545821613605    12.000000000000
         C           -1.283872461177    -0.312370464773     0.217322195769    12.000000000000
         C            2.592010645140     0.126301477865     0.091939627021    12.000000000000
         H            0.073554435211     1.298050244309    -0.108465359712     1.007825032230
         H            0.183502739063     0.012149914915    -1.299387565433     1.007825032230
         H            1.210953560075    -1.498126294912     0.425635249791     1.007825032230
         H            1.102738469441    -0.213906399491     1.615762952183     1.007825032230
         H           -1.334629304474    -1.398755340332     0.083610274848     1.007825032230
         H           -1.426821999597    -0.092698568154     1.282415508946     1.007825032230
         H            2.758181773394    -0.084494945482    -0.966761366830     1.007825032230
         H            3.407777893822    -0.327221285370     0.657716743207     1.007825032230
         H            2.647845342008     1.208542933206     0.228454640643     1.007825032230
         H           -3.130249296460     0.421232411196    -0.094267042501     1.007825032230

  Running in c1 symmetry.

  Rotational constants: A =      0.61895  B =      0.06559  C =      0.06212 [cm^-1]
  Rotational constants: A =  18555.57790  B =   1966.20469  C =   1862.34941 [MHz]
  Nuclear repulsion =  184.418621143244593

  Charge       = 0
  Multiplicity = 1
  Electrons    = 42
  Nalpha       = 21
  Nbeta        = 21

  ==> Algorithm <==

  SCF Algorithm Type is DF.
  DIIS enabled.
  MOM disabled.
  Fractional occupation disabled.
  Guess Type is READ.
  Energy threshold   = 1.00e-08
  Density threshold  = 1.00e-08
  Integral threshold = 0.00e+00

  ==> Primary Basis <==

  Basis Set: 6-311G
    Blend: 6-311G
    Number of shells: 65
    Number of basis function: 95
    Number of Cartesian functions: 95
    Spherical Harmonics?: true
    Max angular momentum: 1

  ==> DFT Potential <==

   => Composite Functional: WB97X-D <= 

    wB97X-D Hyb-GGA Exchange-Correlation Functional

    J.-D. Chai and M. Head-Gordon, Phys. Chem. Chem. Phys. 10, 6615 (2008)

    Deriv               =              1
    GGA                 =           TRUE
    Meta                =          FALSE

    Exchange Hybrid     =           TRUE
    MP2 Hybrid          =          FALSE

   => Exchange-Correlation Functionals <=

    1.0000   wB97D range-separated functional

   => Exact (HF) Exchange <=

    0.7780            HF,LR [omega = 0.2000]
    0.2220               HF 

   => Molecular Quadrature <=

    Radial Scheme          =       TREUTLER
    Pruning Scheme         =           FLAT
    Nuclear Scheme         =       TREUTLER

    BS radius alpha        =              1
    Pruning alpha          =              1
    Radial Points          =             75
    Spherical Points       =            302
    Total Points           =         336076
    Total Blocks           =           2574
    Max Points             =            256
    Max Functions          =             89

   => WB97X-D: Empirical Dispersion <=

    Chai and Head-Gordon Dispersion Correction
    Chai, J.-D.; Head-Gordon, M. (2010), J. Chem. Phys., 132: 6615-6620

        s6 =       1.000000

   => Loading Basis Set <=

    Name: (6-311G AUX)
    Role: JKFIT
    Keyword: DF_BASIS_SCF
    atoms 1    entry O          line   229 file /home/daniele/anaconda3/envs/poltype/share/psi4/basis/cc-pvtz-jkfit.gbs 
    atoms 2-5  entry C          line   125 file /home/daniele/anaconda3/envs/poltype/share/psi4/basis/cc-pvtz-jkfit.gbs 
    atoms 6-15 entry H          line    51 file /home/daniele/anaconda3/envs/poltype/share/psi4/basis/cc-pvtz-jkfit.gbs 

   => Loading Basis Set <=

    Name: 6-311G
    Role: ORBITAL
    Keyword: BASIS
    atoms 1    entry O          line   126 file /home/daniele/anaconda3/envs/poltype/share/psi4/basis/6-311g.gbs 
    atoms 2-5  entry C          line    92 file /home/daniele/anaconda3/envs/poltype/share/psi4/basis/6-311g.gbs 
    atoms 6-15 entry H          line    21 file /home/daniele/anaconda3/envs/poltype/share/psi4/basis/6-311g.gbs 

  Reading orbitals from file 180, no projection.

  ==> Pre-Iterations <==

   -------------------------------------------------------
    Irrep   Nso     Nmo     Nalpha   Nbeta   Ndocc  Nsocc
   -------------------------------------------------------
     A         95      95       0       0       0       0
   -------------------------------------------------------
    Total      95      95      21      21      21       0
   -------------------------------------------------------

  ==> Integral Setup <==

  ==> DiskDFJK: Density-Fitted J/K Matrices <==

    J tasked:                  Yes
    K tasked:                  Yes
    wK tasked:                 Yes
    Omega:               2.000E-01
    OpenMP threads:              8
    Integrals threads:           8
    Memory [MiB]:               34
    Algorithm:                Disk
    Integral Cache:           NONE
    Schwarz Cutoff:          1E-12
    Fitting Condition:       1E-10

   => Auxiliary Basis Set <=

  Basis Set: (6-311G AUX)
    Blend: CC-PVTZ-JKFIT
    Number of shells: 225
    Number of basis function: 695
    Number of Cartesian functions: 830
    Spherical Harmonics?: true
    Max angular momentum: 4

  Cached 100.0% of DFT collocation blocks in 0.664 [GiB].

  Minimum eigenvalue in the overlap matrix is 2.3307544311E-03.
  Using Symmetric Orthogonalization.

  SCF Guess: Orbitals guess was supplied from a previous computation.

  ==> Iterations <==

                           Total Energy        Delta E     RMS |[F,P]|

   @DF-RKS iter   0:  -233.58307790658688   -2.33583e+02   1.16237e-04 
   @DF-RKS iter   1:  -233.58158873914627    1.48917e-03   2.74380e-05 DIIS
   @DF-RKS iter   2:  -233.58159067921571   -1.94007e-06   2.58056e-05 DIIS
   @DF-RKS iter   3:  -233.58159295361398   -2.27440e-06   3.66974e-06 DIIS
   @DF-RKS iter   4:  -233.58159301359200   -5.99780e-08   2.02671e-06 DIIS
   @DF-RKS iter   5:  -233.58159303165831   -1.80663e-08   2.10218e-07 DIIS
   @DF-RKS iter   6:  -233.58159303205383   -3.95517e-10   4.61094e-08 DIIS
   @DF-RKS iter   7:  -233.58159303206975   -1.59162e-11   2.22612e-08 DIIS
   @DF-RKS iter   8:  -233.58159303207256   -2.81375e-12   2.17146e-09 DIIS
  Energy and wave function converged.


  ==> Post-Iterations <==

    Orbital Energies [Eh]
    ---------------------

    Doubly Occupied:                                                      

       1A    -19.233907     2A    -10.329878     3A    -10.280987  
       4A    -10.273733     5A    -10.269442     6A     -1.118718  
       7A     -0.899767     8A     -0.823360     9A     -0.726734  
      10A     -0.678745    11A     -0.598217    12A     -0.571524  
      13A     -0.524205    14A     -0.518691    15A     -0.483513  
      16A     -0.451533    17A     -0.434720    18A     -0.419111  
      19A     -0.409461    20A     -0.399839    21A     -0.350190  

    Virtual:                                                              

      22A      0.117669    23A      0.125244    24A      0.149878  
      25A      0.154955    26A      0.170625    27A      0.206883  
      28A      0.210843    29A      0.219013    30A      0.223905  
      31A      0.242985    32A      0.249827    33A      0.303126  
      34A      0.311292    35A      0.329841    36A      0.385451  
      37A      0.388925    38A      0.417260    39A      0.448359  
      40A      0.455452    41A      0.471226    42A      0.508144  
      43A      0.530883    44A      0.607226    45A      0.618238  
      46A      0.651802    47A      0.653495    48A      0.675274  
      49A      0.676457    50A      0.686367    51A      0.693166  
      52A      0.704293    53A      0.708626    54A      0.713907  
      55A      0.721966    56A      0.727101    57A      0.755804  
      58A      0.852158    59A      0.964906    60A      1.012669  
      61A      1.057631    62A      1.093430    63A      1.109986  
      64A      1.170062    65A      1.588504    66A      2.263212  
      67A      2.345412    68A      2.350948    69A      2.353147  
      70A      2.360123    71A      2.364855    72A      2.386923  
      73A      2.392888    74A      2.411632    75A      2.434815  
      76A      2.861163    77A      2.911196    78A      2.919450  
      79A      2.934484    80A      2.956049    81A      2.966537  
      82A      2.989893    83A      3.069054    84A      3.093154  
      85A      3.168047    86A      3.180606    87A      3.314823  
      88A      4.958704    89A      5.016194    90A      5.179054  
      91A     23.431484    92A     23.572098    93A     23.649171  
      94A     23.727593    95A     49.965711  

    Final Occupation by Irrep:
              A 
    DOCC [    21 ]

  @DF-RKS Final Energy:  -233.58159303207256

   => Energetics <=

    Nuclear Repulsion Energy =            184.4186211432445930
[...]
    Fitting Condition:       1E-10

   => Auxiliary Basis Set <=

  Basis Set: (6-311G AUX)
    Blend: CC-PVTZ-JKFIT
    Number of shells: 225
    Number of basis function: 695
    Number of Cartesian functions: 830
    Spherical Harmonics?: true
    Max angular momentum: 4

  ==> DFT Potential <==

   => Composite Functional: WB97X-D <= 

    wB97X-D Hyb-GGA Exchange-Correlation Functional

    J.-D. Chai and M. Head-Gordon, Phys. Chem. Chem. Phys. 10, 6615 (2008)

    Deriv               =              1
    GGA                 =           TRUE
    Meta                =          FALSE

    Exchange Hybrid     =           TRUE
    MP2 Hybrid          =          FALSE

   => Exchange-Correlation Functionals <=

    1.0000   wB97D range-separated functional

   => Exact (HF) Exchange <=

    0.7780            HF,LR [omega = 0.2000]
    0.2220               HF 

   => Molecular Quadrature <=

    Radial Scheme          =       TREUTLER
    Pruning Scheme         =           FLAT
    Nuclear Scheme         =       TREUTLER

    BS radius alpha        =              1
    Pruning alpha          =              1
    Radial Points          =             75
    Spherical Points       =            302
    Total Points           =         336076
    Total Blocks           =           2574
    Max Points             =            256
    Max Functions          =             89


  -Total Gradient:
     Atom            X                  Y                   Z
    ------   -----------------  -----------------  -----------------
       1       -0.000013194669    -0.002118553551     0.000850056824
       2        0.000823271089     0.000600839328     0.000401589563
       3       -0.000505522633     0.000267340673    -0.000004010435
       4       -0.000627343355    -0.000260590909    -0.001591781366
       5        0.000044779218     0.000262040164    -0.000107463540
       6       -0.000034495041    -0.000120872468     0.000013292686
       7       -0.000025462497     0.000003325417     0.000066976828
       8        0.000023221027     0.000076506600    -0.000022987967
       9        0.000023110426     0.000031600920    -0.000077286068
      10       -0.000181285086    -0.000100959037    -0.000084230036
      11       -0.000130806071     0.000014738328     0.000096270855
      12       -0.000075544105    -0.000001071432     0.000192516970
      13       -0.000008435416    -0.000037064557     0.000055729292
      14       -0.000062078687    -0.000196469134    -0.000015504963
      15        0.000668564647     0.001594273737     0.000248976774


*** tstop() called on daniele-Precision-5750 at Thu May 27 10:57:48 2021
Module time:
	user time   =      12.76 seconds =       0.21 minutes
	system time =       0.14 seconds =       0.00 minutes
	total time  =          2 seconds =       0.03 minutes
Total time:
	user time   =     116.08 seconds =       1.93 minutes
	system time =       1.86 seconds =       0.03 minutes
	total time  =         16 seconds =       0.27 minutes

			-----------------------------------------
			 OPTKING 2.0: for geometry optimizations 
			  - R.A. King,  Bethel University        
			-----------------------------------------
	At level 1: Red. Int., RFO, no backsteps, dynamic trust

	Previous internal coordinate definitions found.
	---Fragment 1 Geometry and Gradient---
	 O          -4.3527516399        0.6248783226       -1.1025869225
	 C           0.1295607458        0.4004048756       -0.4358242134
	 C           2.3284728620       -0.7745267825        1.0314533631
	 C          -2.4261673316       -0.5902946281        0.4106794310
	 C           4.8981902336        0.2386752024        0.1737407151
	 H           0.1389977379        2.4529594588       -0.2049698240
	 H           0.3467699201        0.0229600116       -2.4554866295
	 H           2.2883705792       -2.8310483987        0.8043340514
	 H           2.0838736952       -0.4042245115        3.0533494633
	 H          -2.5220838645       -2.6432645097        0.1580005207
	 H          -2.6963028090       -0.1751749060        2.4234140909
	 H           5.2122081559       -0.1596723059       -1.8269142120
	 H           6.4397669157       -0.6183586118        1.2429045128
	 H           5.0037025190        2.2838151546        0.4317167029
	 H          -5.9153138747        0.7960138923       -0.1781388930
	            -0.0000131947       -0.0021185536        0.0008500568
	             0.0008232711        0.0006008393        0.0004015896
	            -0.0005055226        0.0002673407       -0.0000040104
	            -0.0006273434       -0.0002605909       -0.0015917814
	             0.0000447792        0.0002620402       -0.0001074635
	            -0.0000344950       -0.0001208725        0.0000132927
	            -0.0000254625        0.0000033254        0.0000669768
	             0.0000232210        0.0000765066       -0.0000229880
	             0.0000231104        0.0000316009       -0.0000772861
	            -0.0001812851       -0.0001009590       -0.0000842300
	            -0.0001308061        0.0000147383        0.0000962709
	            -0.0000755441       -0.0000010714        0.0001925170
	            -0.0000084354       -0.0000370646        0.0000557293
	            -0.0000620787       -0.0001964691       -0.0000155050
	             0.0006685646        0.0015942737        0.0002489768

	---Fragment 1 Intrafragment Coordinates---
	 - Coordinate -           - BOHR/RAD -       - ANG/DEG -
	 R(1,4)           =         2.734657	       1.447118
	 R(1,15)          =         1.823593	       0.965004
	 R(2,3)           =         2.892850	       1.530830
	 R(2,4)           =         2.868763	       1.518084
	 R(2,6)           =         2.065518	       1.093025
	 R(2,7)           =         2.066079	       1.093322
	 R(3,5)           =         2.892351	       1.530566
	 R(3,8)           =         2.069414	       1.095086
	 R(3,9)           =         2.070028	       1.095412
	 R(4,10)          =         2.070684	       1.095759
	 R(4,11)          =         2.072776	       1.096866
	 R(5,12)          =         2.063954	       1.092198
	 R(5,13)          =         2.062541	       1.091450
	 R(5,14)          =         2.064045	       1.092246
	 B(1,4,2)         =         1.886927	     108.112963
	 B(1,4,10)        =         1.918138	     109.901239
	 B(1,4,11)        =         1.935346	     110.887169
	 B(2,3,5)         =         1.963453	     112.497565
	 B(2,3,8)         =         1.910517	     109.464548
	 B(2,3,9)         =         1.910218	     109.447446
	 B(2,4,10)        =         1.925855	     110.343374
	 B(2,4,11)        =         1.910780	     109.479609
	 B(3,2,4)         =         1.968445	     112.783584
	 B(3,2,6)         =         1.921373	     110.086583
	 B(3,2,7)         =         1.919525	     109.980664
	 B(3,5,12)        =         1.933725	     110.794275
	 B(3,5,13)        =         1.944175	     111.393046
	 B(3,5,14)        =         1.934190	     110.820933
	 B(4,1,15)        =         1.944259	     111.397859
	 B(4,2,6)         =         1.890477	     108.316378
	 B(4,2,7)         =         1.895489	     108.603513
	 B(5,3,8)         =         1.910060	     109.438360
	 B(5,3,9)         =         1.909184	     109.388173
	 B(6,2,7)         =         1.865352	     106.876798
	 B(8,3,9)         =         1.857385	     106.420339
	 B(10,4,11)       =         1.887057	     108.120374
	 B(12,5,13)       =         1.884478	     107.972620
	 B(12,5,14)       =         1.880325	     107.734660
	 B(13,5,14)       =         1.884644	     107.982168
	*D(1,4,2,3)       =        -3.134679	    -179.603898
	 D(1,4,2,6)       =         1.017425	      58.294138
	 D(1,4,2,7)       =        -1.002407	     -57.433672
	*D(2,3,5,12)      =        -1.045052	     -59.877055
	 D(2,3,5,13)      =         3.139975	     179.907317
	 D(2,3,5,14)      =         1.041292	      59.661621
	*D(2,4,1,15)      =        -2.619664	    -150.095689
	 D(3,2,4,10)      =        -1.036524	     -59.388463
	 D(3,2,4,11)      =         1.038341	      59.492557
	*D(4,2,3,5)       =        -3.138572	    -179.826902
	 D(4,2,3,8)       =         1.017085	      58.274681
	 D(4,2,3,9)       =        -1.012370	     -58.004552
	 D(5,3,2,6)       =        -1.024981	     -58.727067
	 D(5,3,2,7)       =         1.025921	      58.780948
	 D(6,2,3,8)       =         3.130676	     179.374517
	 D(6,2,3,9)       =         1.101220	      63.095283
	 D(6,2,4,10)      =         3.115580	     178.509573
	 D(6,2,4,11)      =        -1.092740	     -62.609407
	 D(7,2,3,8)       =        -1.101608	     -63.117468
	 D(7,2,3,9)       =        -3.131063	    -179.396702
	 D(7,2,4,10)      =         1.095748	      62.781763
	 D(7,2,4,11)      =        -3.112572	    -178.337217
	 D(8,3,5,12)      =         1.082736	      62.036218
	 D(8,3,5,13)      =        -1.015422	     -58.179411
	 D(8,3,5,14)      =        -3.114106	    -178.425106
	 D(9,3,5,12)      =         3.111345	     178.266949
	 D(9,3,5,13)      =         1.013187	      58.051320
	 D(9,3,5,14)      =        -1.085497	     -62.194375
	 D(10,4,1,15)     =         1.560538	      89.412253
	 D(11,4,1,15)     =        -0.524853	     -30.071846

	Current energy   :      -233.5815930321

	Energy change for the previous step:
		Projected    :        -0.0003276699
		Actual       :        -0.0000991791

	Performing BFGS update.
	Previous computed or guess Hessian on step 1.
	Steps to be used in Hessian update: 2 1
	Taking RFO optimization step.
	Going to follow RFO solution 1.
	Using RFO vector 1.
	Norm of target step-size    0.00595
	Projected energy change by RFO approximation:        -0.0000101115

	Back-transformation to cartesian coordinates...
	Successfully converged to displaced geometry.

	Back-transformation to cartesian coordinates to adjust frozen coordinates...
	Successfully converged to displaced geometry.

	--- Internal Coordinate Step in ANG or DEG, aJ/ANG or AJ/DEG ---
	 ---------------------------------------------------------------------------
	   Coordinate                Previous        Force       Change         New 
	   ----------                --------       ------       ------       ------
	    1 R(1,4)          =      1.447118     0.010925     0.001759     1.448877
	    2 R(1,15)         =      0.965004     0.002417     0.000143     0.965147
	    3 R(2,3)          =      1.530830     0.004794     0.001094     1.531925
	    4 R(2,4)          =      1.518084    -0.003353    -0.000862     1.517222
	    5 R(2,6)          =      1.093025     0.000988     0.000141     1.093166
	    6 R(2,7)          =      1.093322     0.000563     0.000057     1.093379
	    7 R(3,5)          =      1.530566     0.000680     0.000136     1.530703
	    8 R(3,8)          =      1.095086     0.000606     0.000084     1.095171
	    9 R(3,9)          =      1.095412     0.000650     0.000098     1.095509
	   10 R(4,10)         =      1.095759    -0.001004    -0.000221     1.095538
	   11 R(4,11)         =      1.096866    -0.000967    -0.000204     1.096662
	   12 R(5,12)         =      1.092198     0.001540     0.000261     1.092459
	   13 R(5,13)         =      1.091450    -0.000286    -0.000087     1.091363
	   14 R(5,14)         =      1.092246     0.001631     0.000278     1.092523
	   15 B(1,4,2)        =    108.112963     0.000003     0.021950   108.134912
	   16 B(1,4,10)       =    109.901239     0.000009     0.049395   109.950634
	   17 B(1,4,11)       =    110.887169     0.000003    -0.007272   110.879897
	   18 B(2,3,5)        =    112.497565     0.000004     0.021621   112.519185
	   19 B(2,3,8)        =    109.464548    -0.000002    -0.009952   109.454597
	   20 B(2,3,9)        =    109.447446    -0.000001    -0.005661   109.441785
	   21 B(2,4,10)       =    110.343374    -0.000010    -0.030774   110.312600
	   22 B(2,4,11)       =    109.479609    -0.000008    -0.041512   109.438097
	   23 B(3,2,4)        =    112.783584     0.000004     0.006823   112.790407
	   24 B(3,2,6)        =    110.086583    -0.000001    -0.005541   110.081043
	   25 B(3,2,7)        =    109.980664    -0.000003    -0.019002   109.961662
	   26 B(3,5,12)       =    110.794275     0.000005     0.019606   110.813880
	   27 B(3,5,13)       =    111.393046     0.000002     0.029265   111.422311
	   28 B(3,5,14)       =    110.820933     0.000003     0.011598   110.832531
	   29 B(4,1,15)       =    111.397859    -0.000029    -0.146342   111.251517
	   30 B(4,2,6)        =    108.316378     0.000000     0.029007   108.345385
	   31 B(4,2,7)        =    108.603513    -0.000000     0.012769   108.616282
	   32 B(5,3,8)        =    109.438360     0.000001     0.013105   109.451465
	   33 B(5,3,9)        =    109.388173    -0.000000     0.013223   109.401397
	   34 B(6,2,7)        =    106.876798    -0.000000    -0.024998   106.851800
	   35 B(8,3,9)        =    106.420339    -0.000001    -0.035555   106.384784
	   36 B(10,4,11)      =    108.120374     0.000003     0.007202   108.127576
	   37 B(12,5,13)      =    107.972620    -0.000004    -0.025319   107.947301
	   38 B(12,5,14)      =    107.734660    -0.000003    -0.014864   107.719796
	   39 B(13,5,14)      =    107.982168    -0.000004    -0.023630   107.958537
	   40 *D(1,4,2,3)     =   -179.603898    -0.000000     0.000000  -179.603898
	   41 D(1,4,2,6)      =     58.294138    -0.000000    -0.017866    58.276273
	   42 D(1,4,2,7)      =    -57.433672    -0.000000    -0.010588   -57.444260
	   43 *D(2,3,5,12)    =    -59.877055    -0.000000     0.000000   -59.877055
	   44 D(2,3,5,13)     =    179.907317     0.000000    -0.000756   179.906560
	   45 D(2,3,5,14)     =     59.661621     0.000000     0.001733    59.663354
	   46 *D(2,4,1,15)    =   -150.095689     0.000000     0.000000  -150.095689
	   47 D(3,2,4,10)     =    -59.388463     0.000001     0.055612   -59.332851
	   48 D(3,2,4,11)     =     59.492557    -0.000000     0.020109    59.512666
	   49 *D(4,2,3,5)     =   -179.826902     0.000000     0.000000  -179.826902
	   50 D(4,2,3,8)      =     58.274681    -0.000000    -0.024244    58.250438
	   51 D(4,2,3,9)      =    -58.004552     0.000000     0.027399   -57.977153
	   52 D(5,3,2,6)      =    -58.727067     0.000001     0.037848   -58.689219
	   53 D(5,3,2,7)      =     58.780948    -0.000000    -0.007449    58.773499
	   54 D(6,2,3,8)      =    179.374517     0.000000     0.013604   179.388121
	   55 D(6,2,3,9)      =     63.095283     0.000001     0.065247    63.160530
	   56 D(6,2,4,10)     =    178.509573     0.000001     0.037747   178.547320
	   57 D(6,2,4,11)     =    -62.609407    -0.000001     0.002243   -62.607164
	   58 D(7,2,3,8)      =    -63.117468    -0.000001    -0.031693   -63.149161
	   59 D(7,2,3,9)      =   -179.396702     0.000000     0.019950  -179.376753
	   60 D(7,2,4,10)     =     62.781763     0.000001     0.045024    62.826787
	   61 D(7,2,4,11)     =   -178.337217    -0.000001     0.009520  -178.327697
	   62 D(8,3,5,12)     =     62.036218     0.000000     0.011164    62.047381
	   63 D(8,3,5,13)     =    -58.179411     0.000000     0.010407   -58.169004
	   64 D(8,3,5,14)     =   -178.425106     0.000000     0.012897  -178.412210
	   65 D(9,3,5,12)     =    178.266949    -0.000000    -0.016664   178.250285
	   66 D(9,3,5,13)     =     58.051320    -0.000000    -0.017420    58.033900
	   67 D(9,3,5,14)     =    -62.194375     0.000000    -0.014931   -62.209306
	   68 D(10,4,1,15)    =     89.412253     0.000001    -0.005292    89.406961
	   69 D(11,4,1,15)    =    -30.071846    -0.000001    -0.041432   -30.113278
	 ---------------------------------------------------------------------------
	Successfully symmetrized geometry.

  ==> Convergence Check <==

  Measures of convergence in internal coordinates in au.
  Criteria marked as inactive (o), active & met (*), and active & unmet ( ).
  ---------------------------------------------------------------------------------------------
   Step     Total Energy     Delta E     MAX Force     RMS Force      MAX Disp      RMS Disp   
  ---------------------------------------------------------------------------------------------
    Convergence Criteria             o    2.50e-03 *    1.70e-03 *    1.00e-02 *    6.70e-03 *
  ---------------------------------------------------------------------------------------------
      3    -233.58159303   -9.92e-05 o    1.33e-03 *    1.99e-04 *    3.32e-03 *    7.16e-04 *  ~
  ---------------------------------------------------------------------------------------------


  **** Optimization is complete! (in 3 steps) ****

  ==> Optimization Summary <==

  Measures of convergence in internal coordinates in au.
  --------------------------------------------------------------------------------------------------------------- ~
   Step         Total Energy             Delta E       MAX Force       RMS Force        MAX Disp        RMS Disp  ~
  --------------------------------------------------------------------------------------------------------------- ~
      1    -233.580011597443   -233.580011597443      0.01507497      0.00367661      0.06539880      0.01560255  ~
      2    -233.581493853020     -0.001482255576      0.00278430      0.00072834      0.01407681      0.00491642  ~
      3    -233.581593032073     -0.000099179053      0.00132606      0.00019919      0.00332443      0.00071587  ~
  --------------------------------------------------------------------------------------------------------------- ~

	Writing optimization data to binary file.
	Final energy is   -233.5815930320726
	Final (previous) structure:
	Cartesian Geometry (in Angstrom)
	    O    -2.3033769625   0.3306713665  -0.5834638699
	    C     0.0685605938   0.2118851344  -0.2306282407
	    C     1.2321747694  -0.4098619208   0.5458216115
	    C    -1.2838724561  -0.3123704635   0.2173221949
	    C     2.5920106350   0.1263014774   0.0919396267
	    H     0.0735544349   1.2980502392  -0.1084653593
	    H     0.1835027383   0.0121499149  -1.2993875603
	    H     1.2109535553  -1.4981262890   0.4256352481
	    H     1.1027384651  -0.2139063987   1.6157629458
	    H    -1.3346292992  -1.3987553348   0.0836102745
	    H    -1.4268219940  -0.0926985678   1.2824155039
	    H     2.7581817626  -0.0844949451  -0.9667613630
	    H     3.4077778804  -0.3272212841   0.6577167406
	    H     2.6478453316   1.2085429285   0.2284546397
	    H    -3.1302492842   0.4212324095  -0.0942670421
	Saving final (previous) structure.
			--------------------------
			 OPTKING Finished Execution 
			--------------------------

    Final optimized geometry and variables:
    Molecular point group: c1
    Full point group: C1

    Geometry (in Angstrom), charge = 0, multiplicity = 1:

    O           -2.303376971554     0.330671367785    -0.583463872177
    C            0.068560594083     0.211885135192    -0.230628241579
    C            1.232174774258    -0.409861922378     0.545821613605
    C           -1.283872461177    -0.312370464773     0.217322195769
    C            2.592010645140     0.126301477865     0.091939627021
    H            0.073554435211     1.298050244309    -0.108465359712
    H            0.183502739063     0.012149914915    -1.299387565433
    H            1.210953560075    -1.498126294912     0.425635249791
    H            1.102738469441    -0.213906399491     1.615762952183
    H           -1.334629304474    -1.398755340332     0.083610274848
    H           -1.426821999597    -0.092698568154     1.282415508946
    H            2.758181773394    -0.084494945482    -0.966761366830
    H            3.407777893822    -0.327221285370     0.657716743207
    H            2.647845342008     1.208542933206     0.228454640643
    H           -3.130249296460     0.421232411196    -0.094267042501

	Removing binary optimization data file.
	Cleaning optimization helper files.

    Psi4 stopped on: Thursday, 27 May 2021 10:57AM
    Psi4 wall time for execution: 0:00:15.54

*** Psi4 exiting successfully. Buy a developer a beer!
