
    -----------------------------------------------------------------------
          Psi4: An Open-Source Ab Initio Electronic Structure Package
                               Psi4 1.3.2 release

                         Git: Rev {HEAD} ecbda83 


    R. M. Parrish, L. A. Burns, D. G. A. Smith, A. C. Simmonett,
    A. E. DePrince III, E. G. Hohenstein, U. Bozkaya, A. Yu. Sokolov,
    R. Di Remigio, R. M. Richard, J. F. Gonthier, A. M. James,
    H. R. McAlexander, A. Kumar, M. Saitow, X. Wang, B. P. Pritchard,
    P. Verma, H. F. Schaefer III, K. Patkowski, R. A. King, E. F. Valeev,
    F. A. Evangelista, J. M. Turney, T. D. Crawford, and C. D. Sherrill,
    J. Chem. Theory Comput. 13(7) pp 3185--3197 (2017).
    (doi: 10.1021/acs.jctc.7b00174)


                         Additional Contributions by
    P. Kraus, H. Kruse, M. H. Lechner, M. C. Schieber, R. A. Shaw,
    A. Alenaizan, R. Galvelis, Z. L. Glick, S. Lehtola, and J. P. Misiewicz

    -----------------------------------------------------------------------


    Psi4 started on: Thursday, 27 May 2021 11:36AM

    Process ID: 228491
    Host:       daniele-Precision-5750
    PSIDATADIR: /home/daniele/anaconda3/envs/poltype/share/psi4
    Memory:     500.0 MiB
    Threads:    1
    
  ==> Input File <==

--------------------------------------------------------------------------
molecule { 
0 1
 O   -2.219580    0.457907   -0.456134
 C    0.045797   -0.290882   -0.586448
 C    1.312914   -0.748046    0.157192
 C   -1.093715    0.055491    0.355832
 C    2.256078    0.406815    0.511811
 H    0.263679    0.578174   -1.211321
 H   -0.311424   -1.078424   -1.253685
 H    1.856407   -1.461161   -0.467908
 H    1.034085   -1.293802    1.064801
 H   -1.349429   -0.823454    0.960433
 H   -0.796800    0.864647    1.035017
 H    2.583532    0.923735   -0.392553
 H    3.143046    0.049779    1.038435
 H    1.762106    1.142256    1.151670
 H   -2.976855    0.696678    0.094477
}
memory 700MB
set_num_threads(8)
psi4_io.set_default_path("/home/daniele/PSI4_sctatch/Psi4-1butanol_3D")
set freeze_core True
E, wfn = energy('wb97x-d/6-311+G*',return_wfn=True)
oeprop(wfn,"WIBERG_LOWDIN_INDICES")
clean()
--------------------------------------------------------------------------

  Memory set to 667.572 MiB by Python driver.
  Threads set to 8 by Python driver.

*** tstart() called on daniele-Precision-5750
*** at Thu May 27 11:36:32 2021

   => Loading Basis Set <=

    Name: 6-311+G*
    Role: ORBITAL
    Keyword: BASIS
    atoms 1    entry O          line   172 file /home/daniele/anaconda3/envs/poltype/share/psi4/basis/6-311pgs.gbs 
    atoms 2-5  entry C          line   130 file /home/daniele/anaconda3/envs/poltype/share/psi4/basis/6-311pgs.gbs 
    atoms 6-15 entry H          line    47 file /home/daniele/anaconda3/envs/poltype/share/psi4/basis/6-311pgs.gbs 


         ---------------------------------------------------------
                                   SCF
               by Justin Turney, Rob Parrish, Andy Simmonett
                          and Daniel G. A. Smith
                              RKS Reference
                        8 Threads,    667 MiB Core
         ---------------------------------------------------------

  ==> Geometry <==

    Molecular point group: c1
    Full point group: C1

    Geometry (in Angstrom), charge = 0, multiplicity = 1:

       Center              X                  Y                   Z               Mass       
    ------------   -----------------  -----------------  -----------------  -----------------
         O           -2.219579971539     0.457906931759    -0.456133827454    15.994914619570
         C            0.045797028461    -0.290882068241    -0.586447827454    12.000000000000
         C            1.312914028461    -0.748046068241     0.157192172546    12.000000000000
         C           -1.093714971539     0.055490931759     0.355832172546    12.000000000000
         C            2.256078028461     0.406814931759     0.511811172546    12.000000000000
         H            0.263679028461     0.578173931759    -1.211320827454     1.007825032230
         H           -0.311423971539    -1.078424068241    -1.253684827454     1.007825032230
         H            1.856407028461    -1.461161068241    -0.467907827454     1.007825032230
         H            1.034085028461    -1.293802068241     1.064801172546     1.007825032230
         H           -1.349428971539    -0.823454068241     0.960433172546     1.007825032230
         H           -0.796799971539     0.864646931759     1.035017172546     1.007825032230
         H            2.583532028461     0.923734931759    -0.392552827454     1.007825032230
         H            3.143046028461     0.049778931759     1.038435172546     1.007825032230
         H            1.762106028461     1.142255931759     1.151670172546     1.007825032230
         H           -2.976854971539     0.696677931759     0.094477172546     1.007825032230

  Running in c1 symmetry.

  Rotational constants: A =      0.44670  B =      0.07279  C =      0.07011 [cm^-1]
  Rotational constants: A =  13391.69276  B =   2182.31926  C =   2101.94767 [MHz]
  Nuclear repulsion =  186.175746684715591

  Charge       = 0
  Multiplicity = 1
  Electrons    = 42
  Nalpha       = 21
  Nbeta        = 21

  ==> Algorithm <==

  SCF Algorithm Type is DF.
  DIIS enabled.
  MOM disabled.
  Fractional occupation disabled.
  Guess Type is SAD.
  Energy threshold   = 1.00e-06
  Density threshold  = 1.00e-06
  Integral threshold = 0.00e+00

  ==> Primary Basis <==

  Basis Set: 6-311+G*
    Blend: 6-311+G*
    Number of shells: 80
    Number of basis function: 140
    Number of Cartesian functions: 145
    Spherical Harmonics?: true
    Max angular momentum: 2

  ==> DFT Potential <==

   => Composite Functional: WB97X-D <= 

    wB97X-D Hyb-GGA Exchange-Correlation Functional

    J.-D. Chai and M. Head-Gordon, Phys. Chem. Chem. Phys. 10, 6615 (2008)

    Deriv               =              1
    GGA                 =           TRUE
    Meta                =          FALSE

    Exchange Hybrid     =           TRUE
    MP2 Hybrid          =          FALSE

   => Exchange-Correlation Functionals <=

    1.0000   wB97D range-separated functional

   => Exact (HF) Exchange <=

    0.7780            HF,LR [omega = 0.2000]
    0.2220               HF 

   => Molecular Quadrature <=

    Radial Scheme          =       TREUTLER
    Pruning Scheme         =           FLAT
    Nuclear Scheme         =       TREUTLER

    BS radius alpha        =              1
    Pruning alpha          =              1
    Radial Points          =             75
    Spherical Points       =            302
    Total Points           =         339750
    Total Blocks           =           2561
    Max Points             =            256
    Max Functions          =            137

   => WB97X-D: Empirical Dispersion <=

    Chai and Head-Gordon Dispersion Correction
    Chai, J.-D.; Head-Gordon, M. (2010), J. Chem. Phys., 132: 6615-6620

        s6 =       1.000000

   => Loading Basis Set <=

    Name: (6-311+G* AUX)
    Role: JKFIT
    Keyword: DF_BASIS_SCF
    atoms 1    entry O          line   324 file /home/daniele/anaconda3/envs/poltype/share/psi4/basis/heavy-aug-cc-pvtz-jkfit.gbs 
    atoms 2-5  entry C          line   200 file /home/daniele/anaconda3/envs/poltype/share/psi4/basis/heavy-aug-cc-pvtz-jkfit.gbs 
    atoms 6-15 entry H          line   116 file /home/daniele/anaconda3/envs/poltype/share/psi4/basis/heavy-aug-cc-pvtz-jkfit.gbs 

  ==> Pre-Iterations <==

   -------------------------------------------------------
    Irrep   Nso     Nmo     Nalpha   Nbeta   Ndocc  Nsocc
   -------------------------------------------------------
     A        140     140       0       0       0       0
   -------------------------------------------------------
    Total     140     140      21      21      21       0
   -------------------------------------------------------

  ==> Integral Setup <==

  ==> DiskDFJK: Density-Fitted J/K Matrices <==

    J tasked:                  Yes
    K tasked:                  Yes
    wK tasked:                 Yes
    Omega:               2.000E-01
    OpenMP threads:              8
    Integrals threads:           8
    Memory [MiB]:               77
    Algorithm:                Disk
    Integral Cache:           NONE
    Schwarz Cutoff:          1E-12
    Fitting Condition:       1E-10

   => Auxiliary Basis Set <=

  Basis Set: (6-311+G* AUX)
    Blend: HEAVY-AUG-CC-PVTZ-JKFIT
    Number of shells: 250
    Number of basis function: 820
    Number of Cartesian functions: 1005
    Spherical Harmonics?: true
    Max angular momentum: 4

  Cached 50.0% of DFT collocation blocks in 0.519 [GiB].

  Minimum eigenvalue in the overlap matrix is 6.0828570685E-05.
  Using Symmetric Orthogonalization.

  SCF Guess: Superposition of Atomic Densities via on-the-fly atomic UHF.

  ==> Iterations <==

                           Total Energy        Delta E     RMS |[F,P]|

   @DF-RKS iter SAD:  -232.91786235331563   -2.32918e+02   0.00000e+00 
   @DF-RKS iter   1:  -233.25046237165225   -3.32600e-01   6.40983e-03 DIIS
   @DF-RKS iter   2:  -233.36126777883598   -1.10805e-01   5.80490e-03 DIIS
   @DF-RKS iter   3:  -233.64106137984066   -2.79794e-01   6.62697e-04 DIIS
   @DF-RKS iter   4:  -233.64376844589464   -2.70707e-03   2.95199e-04 DIIS
   @DF-RKS iter   5:  -233.64446252797239   -6.94082e-04   3.94669e-05 DIIS
   @DF-RKS iter   6:  -233.64448193063839   -1.94027e-05   1.14130e-05 DIIS
   @DF-RKS iter   7:  -233.64448325794376   -1.32731e-06   3.48139e-06 DIIS
   @DF-RKS iter   8:  -233.64448339420227   -1.36259e-07   6.88147e-07 DIIS
  Energy and wave function converged.


  ==> Post-Iterations <==

    Orbital Energies [Eh]
    ---------------------

    Doubly Occupied:                                                      

       1A    -19.245006     2A    -10.328042     3A    -10.279940  
       4A    -10.273077     5A    -10.269579     6A     -1.116820  
       7A     -0.896937     8A     -0.818717     9A     -0.730915  
      10A     -0.671924    11A     -0.602305    12A     -0.563040  
      13A     -0.540677    14A     -0.507293    15A     -0.478568  
      16A     -0.470069    17A     -0.431076    18A     -0.420165  
      19A     -0.414894    20A     -0.402054    21A     -0.360214  

    Virtual:                                                              

      22A      0.065287    23A      0.070632    24A      0.085561  
      25A      0.090489    26A      0.107486    27A      0.118341  
      28A      0.121919    29A      0.128517    30A      0.132426  
      31A      0.154893    32A      0.159909    33A      0.162187  
      34A      0.173951    35A      0.178851    36A      0.207160  
      37A      0.212609    38A      0.235299    39A      0.246237  
      40A      0.255132    41A      0.264281    42A      0.267415  
      43A      0.280777    44A      0.295756    45A      0.301130  
      46A      0.306604    47A      0.318579    48A      0.327457  
      49A      0.334052    50A      0.348589    51A      0.358847  
      52A      0.370153    53A      0.397989    54A      0.433157  
      55A      0.434449    56A      0.480691    57A      0.491131  
      58A      0.504502    59A      0.532720    60A      0.539578  
      61A      0.579273    62A      0.585845    63A      0.622097  
      64A      0.669813    65A      0.673911    66A      0.700779  
      67A      0.715465    68A      0.725791    69A      0.745688  
      70A      0.747059    71A      0.752215    72A      0.770370  
      73A      0.789562    74A      0.795617    75A      0.812160  
      76A      0.839294    77A      0.853166    78A      0.957605  
      79A      1.015017    80A      1.128028    81A      1.144023  
      82A      1.168963    83A      1.178808    84A      1.199337  
      85A      1.253433    86A      1.322585    87A      1.467185  
      88A      1.545229    89A      1.570547    90A      1.600258  
      91A      1.631173    92A      1.651345    93A      1.666487  
      94A      1.678507    95A      1.700071    96A      1.748198  
      97A      1.774389    98A      1.808691    99A      1.833935  
     100A      1.890761   101A      1.946480   102A      2.063167  
     103A      2.105428   104A      2.159199   105A      2.240516  
     106A      2.332317   107A      2.544485   108A      2.562111  
     109A      2.596085   110A      2.605915   111A      2.612401  
     112A      2.621969   113A      2.684347   114A      2.720436  
     115A      2.744731   116A      2.890274   117A      2.967837  
     118A      2.999206   119A      3.015992   120A      3.081645  
     121A      3.155116   122A      3.180593   123A      3.245586  
     124A      3.261939   125A      3.309777   126A      3.323544  
     127A      3.370367   128A      3.467818   129A      3.717425  
     130A      3.894615   131A      4.066161   132A      4.174647  
     133A      5.124728   134A      5.263517   135A      5.536409  
     136A     23.571922   137A     23.678925   138A     23.842379  
     139A     23.871546   140A     50.003710  

    Final Occupation by Irrep:
              A 
    DOCC [    21 ]

  @DF-RKS Final Energy:  -233.64448339420227

   => Energetics <=

    Nuclear Repulsion Energy =            186.1757466847155911
    One-Electron Energy =                -684.2812455963246521
    Two-Electron Energy =                 287.7084604951694473
    DFT Exchange-Correlation Energy =     -23.2402562365234431
    Empirical Dispersion Energy =          -0.0071887412391806
    VV10 Nonlocal Energy =                  0.0000000000000000
    Total Energy =                       -233.6444833942022399

Computation Completed


Properties will be evaluated at   0.000000,   0.000000,   0.000000 [a0]

Properties computed using the SCF density matrix

  Nuclear Dipole Moment: [e a0]
     X:     4.8720      Y:    -0.3743      Z:     1.8909

  Electronic Dipole Moment: [e a0]
     X:    -4.8191      Y:     0.3138      Z:    -1.2010

  Dipole Moment: [e a0]
     X:     0.0529      Y:    -0.0605      Z:     0.6899     Total:     0.6946

  Dipole Moment: [D]
     X:     0.1344      Y:    -0.1537      Z:     1.7535     Total:     1.7654


*** tstop() called on daniele-Precision-5750 at Thu May 27 11:36:40 2021
Module time:
	user time   =      55.29 seconds =       0.92 minutes
	system time =       1.83 seconds =       0.03 minutes
	total time  =          8 seconds =       0.13 minutes
Total time:
	user time   =      55.29 seconds =       0.92 minutes
	system time =       1.83 seconds =       0.03 minutes
	total time  =          8 seconds =       0.13 minutes


Properties will be evaluated at   0.000000,   0.000000,   0.000000 [a0]
OEProp: No title given, name of density matrix used for the following properties is 'SCF density'


  Wiberg Bond Indices using Orthogonal Lowdin Orbitals:

  Irrep: 1 Size: 15 x 15

                 1                   2                   3                   4                   5

    1     0.00000000000000     0.12549485278241     0.02122609885832     1.31916250166500     0.00394844229217
    2     0.12549485278241     0.00000000000000     1.14441655837237     1.15394338556674     0.10710555745886
    3     0.02122609885832     1.14441655837237     0.00000000000000     0.11479559907710     1.20484830700570
    4     1.31916250166500     1.15394338556674     0.11479559907710     0.00000000000000     0.03006042101735
    5     0.00394844229217     0.10710555745886     1.20484830700570     0.03006042101735     0.00000000000000
    6     0.01189837739638     0.85445219719412     0.03716714239802     0.03908807737212     0.01948976447852
    7     0.01276571701799     0.85851430480789     0.04313452754436     0.04098206676672     0.01034372627565
    8     0.00094678745628     0.04486701263420     0.87071193562325     0.01006464931709     0.04056823737857
    9     0.00153756776892     0.03916339289052     0.86387089168463     0.02215917495888     0.03911299162566
   10     0.05036366781834     0.04039526104193     0.01450901960413     0.86523530903147     0.00218951771667
   11     0.04993665233954     0.03973621072634     0.01181888661529     0.86263984056982     0.00758656118255
   12     0.00004402918307     0.01465782885255     0.04079960290221     0.00215858467530     0.90986472728954
   13     0.00022586355347     0.01228743305887     0.04750068247209     0.00079076678802     0.91543952888339
   14     0.00078987708313     0.01280307119310     0.04032857091870     0.00786902062555     0.90613043524008
   15     0.86304187841850     0.01152536291466     0.00185547225078     0.03766381717090     0.00028575651348

                 6                   7                   8                   9                  10

    1     0.01189837739638     0.01276571701799     0.00094678745628     0.00153756776892     0.05036366781834
    2     0.85445219719412     0.85851430480789     0.04486701263420     0.03916339289052     0.04039526104193
    3     0.03716714239802     0.04313452754436     0.87071193562325     0.86387089168463     0.01450901960413
    4     0.03908807737212     0.04098206676672     0.01006464931709     0.02215917495888     0.86523530903147
    5     0.01948976447852     0.01034372627565     0.04056823737857     0.03911299162566     0.00218951771667
    6     0.00000000000000     0.00752515429524     0.00070982934658     0.00663544152359     0.00831223150835
    7     0.00752515429524     0.00000000000000     0.00663495683500     0.00065231758309     0.00549917781813
    8     0.00070982934658     0.00663495683500     0.00000000000000     0.00787263051265     0.00016524576846
    9     0.00663544152359     0.00065231758309     0.00787263051265     0.00000000000000     0.00209763975132
   10     0.00831223150835     0.00549917781813     0.00016524576846     0.00209763975132     0.00000000000000
   11     0.00523068625472     0.00878134121244     0.00021521977168     0.00078756721858     0.00867862629012
   12     0.00167391537762     0.00021259078068     0.00424096549714     0.00934222690114     0.00013596237237
   13     0.00071498627623     0.00023688011637     0.00321229313923     0.00306087253918     0.00002435827486
   14     0.00084811256042     0.00020237884504     0.01010394789715     0.00394416210309     0.00028099219748
   15     0.00036171955115     0.00038582851925     0.00035606896990     0.00006167878308     0.00298825983823

                11                  12                  13                  14                  15

    1     0.04993665233954     0.00004402918307     0.00022586355347     0.00078987708313     0.86304187841850
    2     0.03973621072634     0.01465782885255     0.01228743305887     0.01280307119310     0.01152536291466
    3     0.01181888661529     0.04079960290221     0.04750068247209     0.04032857091870     0.00185547225078
    4     0.86263984056982     0.00215858467530     0.00079076678802     0.00786902062555     0.03766381717090
    5     0.00758656118255     0.90986472728954     0.91543952888339     0.90613043524008     0.00028575651348
    6     0.00523068625472     0.00167391537762     0.00071498627623     0.00084811256042     0.00036171955115
    7     0.00878134121244     0.00021259078068     0.00023688011637     0.00020237884504     0.00038582851925
    8     0.00021521977168     0.00424096549714     0.00321229313923     0.01010394789715     0.00035606896990
    9     0.00078756721858     0.00934222690114     0.00306087253918     0.00394416210309     0.00006167878308
   10     0.00867862629012     0.00013596237237     0.00002435827486     0.00028099219748     0.00298825983823
   11     0.00000000000000     0.00014372505390     0.00011204249819     0.00093803002510     0.00320407248567
   12     0.00014372505390     0.00000000000000     0.00954945933969     0.00807262235982     0.00001520935967
   13     0.00011204249819     0.00954945933969     0.00000000000000     0.00940765409894     0.00002489567370
   14     0.00093803002510     0.00807262235982     0.00940765409894     0.00000000000000     0.00003310713783
   15     0.00320407248567     0.00001520935967     0.00002489567370     0.00003310713783     0.00000000000000



  Atomic Valences: 

 #  #
 Irrep: 1
      1:  2.4613823
      2:  4.4593624
      3:  4.4569833
      4:  4.5066132
      5:  4.1969740
      6:  0.9941076
      7:  0.9958710
      8:  1.0006698
      9:  1.0002986
     10:  1.0008753
     11:  0.9998095
     12:  1.0009114
     13:  1.0025877
     14:  1.0017520
     15:  0.9218031


    Psi4 stopped on: Thursday, 27 May 2021 11:36AM
    Psi4 wall time for execution: 0:00:07.89

*** Psi4 exiting successfully. Buy a developer a beer!
