
    -----------------------------------------------------------------------
          Psi4: An Open-Source Ab Initio Electronic Structure Package
                               Psi4 1.3.2 release

                         Git: Rev {HEAD} ecbda83 


    R. M. Parrish, L. A. Burns, D. G. A. Smith, A. C. Simmonett,
    A. E. DePrince III, E. G. Hohenstein, U. Bozkaya, A. Yu. Sokolov,
    R. Di Remigio, R. M. Richard, J. F. Gonthier, A. M. James,
    H. R. McAlexander, A. Kumar, M. Saitow, X. Wang, B. P. Pritchard,
    P. Verma, H. F. Schaefer III, K. Patkowski, R. A. King, E. F. Valeev,
    F. A. Evangelista, J. M. Turney, T. D. Crawford, and C. D. Sherrill,
    J. Chem. Theory Comput. 13(7) pp 3185--3197 (2017).
    (doi: 10.1021/acs.jctc.7b00174)


                         Additional Contributions by
    P. Kraus, H. Kruse, M. H. Lechner, M. C. Schieber, R. A. Shaw,
    A. Alenaizan, R. Galvelis, Z. L. Glick, S. Lehtola, and J. P. Misiewicz

    -----------------------------------------------------------------------


    Psi4 started on: Thursday, 27 May 2021 11:38AM

    Process ID: 228628
    Host:       daniele-Precision-5750
    PSIDATADIR: /home/daniele/anaconda3/envs/poltype/share/psi4
    Memory:     500.0 MiB
    Threads:    1
    
  ==> Input File <==

--------------------------------------------------------------------------
molecule { 
0 1
 O   -2.219423    0.355663   -0.314648
 C   -0.054503   -0.584373   -0.565080
 C    1.455726   -0.677130   -0.202785
 C   -0.862771    0.467469    0.176241
 C    1.977067    0.298813    0.862824
 H   -0.175306   -0.381930   -1.630529
 H   -0.545038   -1.542239   -0.384139
 H    2.045856   -0.531021   -1.110300
 H    1.677585   -1.692635    0.132788
 H   -0.831649    0.289434    1.256666
 H   -0.467003    1.469976   -0.019929
 H    1.834788    1.339542    0.567246
 H    3.046280    0.146915    1.017328
 H    1.485151    0.151815    1.825798
 H   -2.798672    1.002030    0.109626
}
memory 700MB
set_num_threads(8)
psi4_io.set_default_path("/home/daniele/PSI4_sctatch/Psi4-1butanol_3D")
set freeze_core True
E, wfn = energy('wb97x-d/6-311+G*',return_wfn=True)
oeprop(wfn,"WIBERG_LOWDIN_INDICES")
clean()
--------------------------------------------------------------------------

  Memory set to 667.572 MiB by Python driver.
  Threads set to 8 by Python driver.

*** tstart() called on daniele-Precision-5750
*** at Thu May 27 11:38:27 2021

   => Loading Basis Set <=

    Name: 6-311+G*
    Role: ORBITAL
    Keyword: BASIS
    atoms 1    entry O          line   172 file /home/daniele/anaconda3/envs/poltype/share/psi4/basis/6-311pgs.gbs 
    atoms 2-5  entry C          line   130 file /home/daniele/anaconda3/envs/poltype/share/psi4/basis/6-311pgs.gbs 
    atoms 6-15 entry H          line    47 file /home/daniele/anaconda3/envs/poltype/share/psi4/basis/6-311pgs.gbs 


         ---------------------------------------------------------
                                   SCF
               by Justin Turney, Rob Parrish, Andy Simmonett
                          and Daniel G. A. Smith
                              RKS Reference
                        8 Threads,    667 MiB Core
         ---------------------------------------------------------

  ==> Geometry <==

    Molecular point group: c1
    Full point group: C1

    Geometry (in Angstrom), charge = 0, multiplicity = 1:

       Center              X                  Y                   Z               Mass       
    ------------   -----------------  -----------------  -----------------  -----------------
         O           -2.219422893586     0.355662927879    -0.314647929860    15.994914619570
         C           -0.054502893586    -0.584373072121    -0.565079929860    12.000000000000
         C            1.455726106414    -0.677130072121    -0.202784929860    12.000000000000
         C           -0.862770893586     0.467468927879     0.176241070140    12.000000000000
         C            1.977067106414     0.298812927879     0.862824070140    12.000000000000
         H           -0.175305893586    -0.381930072121    -1.630528929860     1.007825032230
         H           -0.545037893586    -1.542239072121    -0.384138929860     1.007825032230
         H            2.045856106414    -0.531021072121    -1.110299929860     1.007825032230
         H            1.677585106414    -1.692635072121     0.132788070140     1.007825032230
         H           -0.831648893586     0.289433927879     1.256666070140     1.007825032230
         H           -0.467002893586     1.469975927879    -0.019928929860     1.007825032230
         H            1.834788106414     1.339541927879     0.567246070140     1.007825032230
         H            3.046280106414     0.146914927879     1.017328070140     1.007825032230
         H            1.485151106414     0.151814927879     1.825798070140     1.007825032230
         H           -2.798671893586     1.002029927879     0.109626070140     1.007825032230

  Running in c1 symmetry.

  Rotational constants: A =      0.39010  B =      0.08181  C =      0.07118 [cm^-1]
  Rotational constants: A =  11694.95746  B =   2452.63099  C =   2133.92021 [MHz]
  Nuclear repulsion =  187.193429989508303

  Charge       = 0
  Multiplicity = 1
  Electrons    = 42
  Nalpha       = 21
  Nbeta        = 21

  ==> Algorithm <==

  SCF Algorithm Type is DF.
  DIIS enabled.
  MOM disabled.
  Fractional occupation disabled.
  Guess Type is SAD.
  Energy threshold   = 1.00e-06
  Density threshold  = 1.00e-06
  Integral threshold = 0.00e+00

  ==> Primary Basis <==

  Basis Set: 6-311+G*
    Blend: 6-311+G*
    Number of shells: 80
    Number of basis function: 140
    Number of Cartesian functions: 145
    Spherical Harmonics?: true
    Max angular momentum: 2

  ==> DFT Potential <==

   => Composite Functional: WB97X-D <= 

    wB97X-D Hyb-GGA Exchange-Correlation Functional

    J.-D. Chai and M. Head-Gordon, Phys. Chem. Chem. Phys. 10, 6615 (2008)

    Deriv               =              1
    GGA                 =           TRUE
    Meta                =          FALSE

    Exchange Hybrid     =           TRUE
    MP2 Hybrid          =          FALSE

   => Exchange-Correlation Functionals <=

    1.0000   wB97D range-separated functional

   => Exact (HF) Exchange <=

    0.7780            HF,LR [omega = 0.2000]
    0.2220               HF 

   => Molecular Quadrature <=

    Radial Scheme          =       TREUTLER
    Pruning Scheme         =           FLAT
    Nuclear Scheme         =       TREUTLER

    BS radius alpha        =              1
    Pruning alpha          =              1
    Radial Points          =             75
    Spherical Points       =            302
    Total Points           =         339750
    Total Blocks           =           2595
    Max Points             =            256
    Max Functions          =            134

   => WB97X-D: Empirical Dispersion <=

    Chai and Head-Gordon Dispersion Correction
    Chai, J.-D.; Head-Gordon, M. (2010), J. Chem. Phys., 132: 6615-6620

        s6 =       1.000000

   => Loading Basis Set <=

    Name: (6-311+G* AUX)
    Role: JKFIT
    Keyword: DF_BASIS_SCF
    atoms 1    entry O          line   324 file /home/daniele/anaconda3/envs/poltype/share/psi4/basis/heavy-aug-cc-pvtz-jkfit.gbs 
    atoms 2-5  entry C          line   200 file /home/daniele/anaconda3/envs/poltype/share/psi4/basis/heavy-aug-cc-pvtz-jkfit.gbs 
    atoms 6-15 entry H          line   116 file /home/daniele/anaconda3/envs/poltype/share/psi4/basis/heavy-aug-cc-pvtz-jkfit.gbs 

  ==> Pre-Iterations <==

   -------------------------------------------------------
    Irrep   Nso     Nmo     Nalpha   Nbeta   Ndocc  Nsocc
   -------------------------------------------------------
     A        140     140       0       0       0       0
   -------------------------------------------------------
    Total     140     140      21      21      21       0
   -------------------------------------------------------

  ==> Integral Setup <==

  ==> DiskDFJK: Density-Fitted J/K Matrices <==

    J tasked:                  Yes
    K tasked:                  Yes
    wK tasked:                 Yes
    Omega:               2.000E-01
    OpenMP threads:              8
    Integrals threads:           8
    Memory [MiB]:               77
    Algorithm:                Disk
    Integral Cache:           NONE
    Schwarz Cutoff:          1E-12
    Fitting Condition:       1E-10

   => Auxiliary Basis Set <=

  Basis Set: (6-311+G* AUX)
    Blend: HEAVY-AUG-CC-PVTZ-JKFIT
    Number of shells: 250
    Number of basis function: 820
    Number of Cartesian functions: 1005
    Spherical Harmonics?: true
    Max angular momentum: 4

  Cached 50.0% of DFT collocation blocks in 0.531 [GiB].

  Minimum eigenvalue in the overlap matrix is 1.3776755648E-05.
  Using Symmetric Orthogonalization.

  SCF Guess: Superposition of Atomic Densities via on-the-fly atomic UHF.

  ==> Iterations <==

                           Total Energy        Delta E     RMS |[F,P]|

   @DF-RKS iter SAD:  -232.91029376692634   -2.32910e+02   0.00000e+00 
   @DF-RKS iter   1:  -233.25206466568520   -3.41771e-01   6.35471e-03 DIIS
   @DF-RKS iter   2:  -233.36243197608437   -1.10367e-01   5.73728e-03 DIIS
   @DF-RKS iter   3:  -233.63530040859595   -2.72868e-01   6.42837e-04 DIIS
   @DF-RKS iter   4:  -233.63780946575298   -2.50906e-03   2.96724e-04 DIIS
   @DF-RKS iter   5:  -233.63850583817239   -6.96372e-04   3.98267e-05 DIIS
   @DF-RKS iter   6:  -233.63852573466343   -1.98965e-05   1.02250e-05 DIIS
   @DF-RKS iter   7:  -233.63852680126143   -1.06660e-06   3.44520e-06 DIIS
   @DF-RKS iter   8:  -233.63852693076933   -1.29508e-07   6.02979e-07 DIIS
  Energy and wave function converged.


  ==> Post-Iterations <==

    Orbital Energies [Eh]
    ---------------------

    Doubly Occupied:                                                      

       1A    -19.244398     2A    -10.327175     3A    -10.279926  
       4A    -10.272502     5A    -10.271562     6A     -1.116018  
       7A     -0.893015     8A     -0.817125     9A     -0.741270  
      10A     -0.659468    11A     -0.604240    12A     -0.571270  
      13A     -0.519960    14A     -0.515012    15A     -0.487187  
      16A     -0.463254    17A     -0.443563    18A     -0.420247  
      19A     -0.401790    20A     -0.400525    21A     -0.359205  

    Virtual:                                                              

      22A      0.062648    23A      0.071631    24A      0.087204  
      25A      0.096121    26A      0.107498    27A      0.118882  
      28A      0.125668    29A      0.127153    30A      0.133564  
      31A      0.157829    32A      0.165176    33A      0.172389  
      34A      0.177914    35A      0.184555    36A      0.209687  
      37A      0.218623    38A      0.226877    39A      0.228468  
      40A      0.238080    41A      0.243323    42A      0.272701  
      43A      0.280657    44A      0.286999    45A      0.307158  
      46A      0.315537    47A      0.321097    48A      0.327381  
      49A      0.335904    50A      0.360669    51A      0.364149  
      52A      0.375617    53A      0.396337    54A      0.430810  
      55A      0.444412    56A      0.478296    57A      0.505087  
      58A      0.512124    59A      0.531266    60A      0.560422  
      61A      0.578262    62A      0.591982    63A      0.629963  
      64A      0.663259    65A      0.680302    66A      0.696097  
      67A      0.697666    68A      0.720790    69A      0.722706  
      70A      0.758940    71A      0.759739    72A      0.783419  
      73A      0.793582    74A      0.799352    75A      0.815640  
      76A      0.854024    77A      0.870454    78A      0.949749  
      79A      1.032897    80A      1.122673    81A      1.142291  
      82A      1.143774    83A      1.199747    84A      1.244696  
      85A      1.298650    86A      1.315970    87A      1.492280  
      88A      1.514573    89A      1.562365    90A      1.582457  
      91A      1.626763    92A      1.643796    93A      1.664166  
      94A      1.665522    95A      1.715504    96A      1.785010  
      97A      1.794582    98A      1.825984    99A      1.853876  
     100A      1.905337   101A      1.965725   102A      1.970717  
     103A      2.049146   104A      2.202677   105A      2.282964  
     106A      2.352474   107A      2.529586   108A      2.550432  
     109A      2.586512   110A      2.607919   111A      2.620310  
     112A      2.623885   113A      2.662620   114A      2.730628  
     115A      2.792788   116A      2.890978   117A      2.984557  
     118A      2.991071   119A      3.024461   120A      3.104937  
     121A      3.116811   122A      3.180860   123A      3.213570  
     124A      3.240539   125A      3.288799   126A      3.349995  
     127A      3.396833   128A      3.460330   129A      3.792040  
     130A      3.864987   131A      4.006751   132A      4.236678  
     133A      5.116997   134A      5.271937   135A      5.545085  
     136A     23.551566   137A     23.723580   138A     23.795612  
     139A     23.879579   140A     50.003947  

    Final Occupation by Irrep:
              A 
    DOCC [    21 ]

  @DF-RKS Final Energy:  -233.63852693076933

   => Energetics <=

    Nuclear Repulsion Energy =            187.1934299895083029
    One-Electron Energy =                -686.3292021550507798
    Two-Electron Energy =                 288.7452450492069147
    DFT Exchange-Correlation Energy =     -23.2406368121256861
    Empirical Dispersion Energy =          -0.0073630023081137
    VV10 Nonlocal Energy =                  0.0000000000000000
    Total Energy =                       -233.6385269307693306

Computation Completed


Properties will be evaluated at   0.000000,   0.000000,   0.000000 [a0]

Properties computed using the SCF density matrix

  Nuclear Dipole Moment: [e a0]
     X:     4.9317      Y:     0.2378      Z:     1.6527

  Electronic Dipole Moment: [e a0]
     X:    -4.6483      Y:     0.1895      Z:    -1.1814

  Dipole Moment: [e a0]
     X:     0.2834      Y:     0.4273      Z:     0.4713     Total:     0.6964

  Dipole Moment: [D]
     X:     0.7203      Y:     1.0861      Z:     1.1978     Total:     1.7701


*** tstop() called on daniele-Precision-5750 at Thu May 27 11:38:35 2021
Module time:
	user time   =      54.55 seconds =       0.91 minutes
	system time =       1.81 seconds =       0.03 minutes
	total time  =          8 seconds =       0.13 minutes
Total time:
	user time   =      54.55 seconds =       0.91 minutes
	system time =       1.81 seconds =       0.03 minutes
	total time  =          8 seconds =       0.13 minutes


Properties will be evaluated at   0.000000,   0.000000,   0.000000 [a0]
OEProp: No title given, name of density matrix used for the following properties is 'SCF density'


  Wiberg Bond Indices using Orthogonal Lowdin Orbitals:

  Irrep: 1 Size: 15 x 15

                 1                   2                   3                   4                   5

    1     0.00000000000000     0.12946908911785     0.01886499902078     1.31724833204489     0.00746050310997
    2     0.12946908911785     0.00000000000000     1.13449268730054     1.15201409654466     0.09041938303494
    3     0.01886499902078     1.13449268730054     0.00000000000000     0.09466157332619     1.20189772828814
    4     1.31724833204489     1.15201409654466     0.09466157332619     0.00000000000000     0.06480827006768
    5     0.00746050310997     0.09041938303494     1.20189772828814     0.06480827006768     0.00000000000000
    6     0.01360861560817     0.86225903128865     0.03998627117243     0.04063450718006     0.00670305202520
    7     0.01394687007654     0.86195530202534     0.03999571650321     0.04062742076434     0.00669591084651
    8     0.00055638840372     0.04217413092372     0.87489490509455     0.00643138850833     0.04063660444253
    9     0.00054851150197     0.04210152133401     0.87494021024237     0.00643882085361     0.04063047641967
   10     0.04968262263600     0.03891785369766     0.00941264807561     0.86303824896657     0.01142924242271
   11     0.04957631547979     0.03900550650079     0.00929091168388     0.86323697850635     0.01120864877386
   12     0.00123721601239     0.01060647794614     0.03900629147853     0.01210263717910     0.90610944320828
   13     0.00053907276516     0.01210997091423     0.04849925377090     0.00210707781034     0.91230105868490
   14     0.00117153441073     0.01027071483017     0.03910598985175     0.01159599706408     0.90656508965548
   15     0.86298525040155     0.01152637183813     0.00196066706172     0.03716129283894     0.00039393883556

                 6                   7                   8                   9                  10

    1     0.01360861560817     0.01394687007654     0.00055638840372     0.00054851150197     0.04968262263600
    2     0.86225903128865     0.86195530202534     0.04217413092372     0.04210152133401     0.03891785369766
    3     0.03998627117243     0.03999571650321     0.87489490509455     0.87494021024237     0.00941264807561
    4     0.04063450718006     0.04062742076434     0.00643138850833     0.00643882085361     0.86303824896657
    5     0.00670305202520     0.00669591084651     0.04063660444253     0.04063047641967     0.01142924242271
    6     0.00000000000000     0.00729698367106     0.00875851453018     0.00173044871941     0.00856846013464
    7     0.00729698367106     0.00000000000000     0.00174496776410     0.00875113640732     0.00541601067853
    8     0.00875851453018     0.00174496776410     0.00000000000000     0.00779726802177     0.00007009499105
    9     0.00173044871941     0.00875113640732     0.00779726802177     0.00000000000000     0.00005054133297
   10     0.00856846013464     0.00541601067853     0.00007009499105     0.00005054133297     0.00000000000000
   11     0.00552530634486     0.00856270176556     0.00005067163699     0.00006793835135     0.00852282444315
   12     0.00007880098843     0.00005636418552     0.00393313539883     0.00972357178473     0.00048722603139
   13     0.00005796716349     0.00006067357989     0.00369086753746     0.00345554936858     0.00029138450888
   14     0.00005339050435     0.00008037767098     0.00971891491992     0.00418042284431     0.00226960316121
   15     0.00042221277509     0.00045125467078     0.00021490079207     0.00020749700059     0.00307552771708

                11                  12                  13                  14                  15

    1     0.04957631547979     0.00123721601239     0.00053907276516     0.00117153441073     0.86298525040155
    2     0.03900550650079     0.01060647794614     0.01210997091423     0.01027071483017     0.01152637183813
    3     0.00929091168388     0.03900629147853     0.04849925377090     0.03910598985175     0.00196066706172
    4     0.86323697850635     0.01210263717910     0.00210707781034     0.01159599706408     0.03716129283894
    5     0.01120864877386     0.90610944320828     0.91230105868490     0.90656508965548     0.00039393883556
    6     0.00552530634486     0.00007880098843     0.00005796716349     0.00005339050435     0.00042221277509
    7     0.00856270176556     0.00005636418552     0.00006067357989     0.00008037767098     0.00045125467078
    8     0.00005067163699     0.00393313539883     0.00369086753746     0.00971891491992     0.00021490079207
    9     0.00006793835135     0.00972357178473     0.00345554936858     0.00418042284431     0.00020749700059
   10     0.00852282444315     0.00048722603139     0.00029138450888     0.00226960316121     0.00307552771708
   11     0.00000000000000     0.00233094235660     0.00026889492015     0.00044598503302     0.00314446229930
   12     0.00233094235660     0.00000000000000     0.00971832650131     0.00787123205537     0.00003479299964
   13     0.00026889492015     0.00971832650131     0.00000000000000     0.00971233553367     0.00003347162432
   14     0.00044598503302     0.00787123205537     0.00971233553367     0.00000000000000     0.00003270856336
   15     0.00314446229930     0.00003479299964     0.00003347162432     0.00003270856336     0.00000000000000



  Atomic Valences: 

 #  #
 Irrep: 1
      1:  2.4668953
      2:  4.4373221
      3:  4.4270099
      4:  4.5121066
      5:  4.2072593
      6:  0.9956836
      7:  0.9956417
      8:  1.0006728
      9:  1.0006239
     10:  1.0012323
     11:  1.0012381
     12:  1.0032965
     13:  1.0028459
     14:  1.0030743
     15:  0.9216443


    Psi4 stopped on: Thursday, 27 May 2021 11:38AM
    Psi4 wall time for execution: 0:00:07.79

*** Psi4 exiting successfully. Buy a developer a beer!
