
    -----------------------------------------------------------------------
          Psi4: An Open-Source Ab Initio Electronic Structure Package
                               Psi4 1.3.2 release

                         Git: Rev {HEAD} ecbda83 


    R. M. Parrish, L. A. Burns, D. G. A. Smith, A. C. Simmonett,
    A. E. DePrince III, E. G. Hohenstein, U. Bozkaya, A. Yu. Sokolov,
    R. Di Remigio, R. M. Richard, J. F. Gonthier, A. M. James,
    H. R. McAlexander, A. Kumar, M. Saitow, X. Wang, B. P. Pritchard,
    P. Verma, H. F. Schaefer III, K. Patkowski, R. A. King, E. F. Valeev,
    F. A. Evangelista, J. M. Turney, T. D. Crawford, and C. D. Sherrill,
    J. Chem. Theory Comput. 13(7) pp 3185--3197 (2017).
    (doi: 10.1021/acs.jctc.7b00174)


                         Additional Contributions by
    P. Kraus, H. Kruse, M. H. Lechner, M. C. Schieber, R. A. Shaw,
    A. Alenaizan, R. Galvelis, Z. L. Glick, S. Lehtola, and J. P. Misiewicz

    -----------------------------------------------------------------------


    Psi4 started on: Thursday, 27 May 2021 11:06AM

    Process ID: 226116
    Host:       daniele-Precision-5750
    PSIDATADIR: /home/daniele/anaconda3/envs/poltype/share/psi4
    Memory:     500.0 MiB
    Threads:    1
    
  ==> Input File <==

--------------------------------------------------------------------------
molecule { 
0 1
 O   -2.485185    0.243803   -0.243990
 C   -0.046243    0.164136   -0.134471
 C    1.219120   -0.403421    0.559527
 C   -1.382548   -0.334987    0.473609
 C    2.542046    0.102839   -0.050615
 H   -0.036893    1.260798   -0.081519
 H   -0.027488   -0.103571   -1.199229
 H    1.202241   -1.500397    0.512614
 H    1.198095   -0.144960    1.626648
 H   -1.427007   -1.430037    0.420236
 H   -1.436688   -0.072678    1.537080
 H    2.620418   -0.170024   -1.108508
 H    3.401238   -0.332751    0.470687
 H    2.622264    1.192604    0.026411
 H   -2.238294    0.407555   -1.173059
}
set optking { 
  frozen_dihedral = ("
    2 4 1 15
    4 2 3 5
    3 2 4 1
    12 5 3 2
  ")
}
set {
  geom_maxiter 400
  g_convergence GAU_LOOSE
  dynamic_level 1
}
memory 700MB
set_num_threads(8)
psi4_io.set_default_path("/home/daniele/PSI4_sctatch/Psi4-1butanol_3D")
for _ in range(1):
  try:
    set opt_coordinates both
    optimize('wb97x-d/6-311G')
    break
  except OptimizationConvergenceError:
    break
  else:
    try:
      set opt_coordinates cartesian
      optimize('wb97x-d/6-311G')
      break
    except OptimizationConvergenceError:
      pass
clean()
--------------------------------------------------------------------------

  Memory set to 667.572 MiB by Python driver.
  Threads set to 8 by Python driver.
gradient() will perform analytic gradient computation.

*** tstart() called on daniele-Precision-5750
*** at Thu May 27 11:06:50 2021

   => Loading Basis Set <=

    Name: 6-311G
    Role: ORBITAL
    Keyword: BASIS
    atoms 1    entry O          line   126 file /home/daniele/anaconda3/envs/poltype/share/psi4/basis/6-311g.gbs 
    atoms 2-5  entry C          line    92 file /home/daniele/anaconda3/envs/poltype/share/psi4/basis/6-311g.gbs 
    atoms 6-15 entry H          line    21 file /home/daniele/anaconda3/envs/poltype/share/psi4/basis/6-311g.gbs 


         ---------------------------------------------------------
                                   SCF
               by Justin Turney, Rob Parrish, Andy Simmonett
                          and Daniel G. A. Smith
                              RKS Reference
                        8 Threads,    667 MiB Core
         ---------------------------------------------------------

  ==> Geometry <==

    Molecular point group: c1
    Full point group: C1

    Geometry (in Angstrom), charge = 0, multiplicity = 1:

       Center              X                  Y                   Z               Mass       
    ------------   -----------------  -----------------  -----------------  -----------------
         O           -2.406371825944     0.279686983008    -0.342722546676    15.994914619570
         C            0.032570174056     0.200019983008    -0.233203546676    12.000000000000
         C            1.297933174056    -0.367537016992     0.460794453324    12.000000000000
         C           -1.303734825944    -0.299103016992     0.374876453324    12.000000000000
         C            2.620859174056     0.138722983008    -0.149347546676    12.000000000000
         H            0.041920174056     1.296681983008    -0.180251546676     1.007825032230
         H            0.051325174056    -0.067687016992    -1.297961546676     1.007825032230
         H            1.281054174056    -1.464513016992     0.413881453324     1.007825032230
         H            1.276908174056    -0.109076016992     1.527915453324     1.007825032230
         H           -1.348193825944    -1.394153016992     0.321503453324     1.007825032230
         H           -1.357874825944    -0.036794016992     1.438347453324     1.007825032230
         H            2.699231174056    -0.134140016992    -1.207240546676     1.007825032230
         H            3.480051174056    -0.296867016992     0.371954453324     1.007825032230
         H            2.701077174056     1.228487983008    -0.072321546676     1.007825032230
         H           -2.159480825944     0.443438983008    -1.271791546676     1.007825032230

  Running in c1 symmetry.

  Rotational constants: A =      0.59355  B =      0.06450  C =      0.06089 [cm^-1]
  Rotational constants: A =  17794.17532  B =   1933.70313  C =   1825.44510 [MHz]
  Nuclear repulsion =  183.155886761891423

  Charge       = 0
  Multiplicity = 1
  Electrons    = 42
  Nalpha       = 21
  Nbeta        = 21

  ==> Algorithm <==

  SCF Algorithm Type is DF.
  DIIS enabled.
  MOM disabled.
  Fractional occupation disabled.
  Guess Type is SAD.
  Energy threshold   = 1.00e-08
  Density threshold  = 1.00e-08
  Integral threshold = 0.00e+00

  ==> Primary Basis <==

  Basis Set: 6-311G
    Blend: 6-311G
    Number of shells: 65
    Number of basis function: 95
    Number of Cartesian functions: 95
    Spherical Harmonics?: true
    Max angular momentum: 1

  ==> DFT Potential <==

   => Composite Functional: WB97X-D <= 

    wB97X-D Hyb-GGA Exchange-Correlation Functional

    J.-D. Chai and M. Head-Gordon, Phys. Chem. Chem. Phys. 10, 6615 (2008)

    Deriv               =              1
    GGA                 =           TRUE
    Meta                =          FALSE

    Exchange Hybrid     =           TRUE
    MP2 Hybrid          =          FALSE

   => Exchange-Correlation Functionals <=

    1.0000   wB97D range-separated functional

   => Exact (HF) Exchange <=

    0.7780            HF,LR [omega = 0.2000]
    0.2220               HF 

   => Molecular Quadrature <=

    Radial Scheme          =       TREUTLER
    Pruning Scheme         =           FLAT
    Nuclear Scheme         =       TREUTLER

    BS radius alpha        =              1
    Pruning alpha          =              1
    Radial Points          =             75
    Spherical Points       =            302
    Total Points           =         336040
    Total Blocks           =           2573
    Max Points             =            256
    Max Functions          =             89

   => WB97X-D: Empirical Dispersion <=

    Chai and Head-Gordon Dispersion Correction
    Chai, J.-D.; Head-Gordon, M. (2010), J. Chem. Phys., 132: 6615-6620

        s6 =       1.000000

   => Loading Basis Set <=

    Name: (6-311G AUX)
    Role: JKFIT
    Keyword: DF_BASIS_SCF
    atoms 1    entry O          line   229 file /home/daniele/anaconda3/envs/poltype/share/psi4/basis/cc-pvtz-jkfit.gbs 
    atoms 2-5  entry C          line   125 file /home/daniele/anaconda3/envs/poltype/share/psi4/basis/cc-pvtz-jkfit.gbs 
    atoms 6-15 entry H          line    51 file /home/daniele/anaconda3/envs/poltype/share/psi4/basis/cc-pvtz-jkfit.gbs 

  ==> Pre-Iterations <==

   -------------------------------------------------------
    Irrep   Nso     Nmo     Nalpha   Nbeta   Ndocc  Nsocc
   -------------------------------------------------------
     A         95      95       0       0       0       0
   -------------------------------------------------------
    Total      95      95      21      21      21       0
   -------------------------------------------------------

  ==> Integral Setup <==

  ==> DiskDFJK: Density-Fitted J/K Matrices <==

    J tasked:                  Yes
    K tasked:                  Yes
    wK tasked:                 Yes
    Omega:               2.000E-01
    OpenMP threads:              8
    Integrals threads:           8
    Memory [MiB]:               34
    Algorithm:                Disk
    Integral Cache:           NONE
    Schwarz Cutoff:          1E-12
    Fitting Condition:       1E-10

   => Auxiliary Basis Set <=

  Basis Set: (6-311G AUX)
    Blend: CC-PVTZ-JKFIT
    Number of shells: 225
    Number of basis function: 695
    Number of Cartesian functions: 830
    Spherical Harmonics?: true
    Max angular momentum: 4

  Cached 100.0% of DFT collocation blocks in 0.664 [GiB].

  Minimum eigenvalue in the overlap matrix is 2.5371196882E-03.
  Using Symmetric Orthogonalization.

  SCF Guess: Superposition of Atomic Densities via on-the-fly atomic UHF.

  ==> Iterations <==

                           Total Energy        Delta E     RMS |[F,P]|

   @DF-RKS iter SAD:  -232.83615620012151   -2.32836e+02   0.00000e+00 
   @DF-RKS iter   1:  -233.29116799074845   -4.55012e-01   8.10863e-03 DIIS
   @DF-RKS iter   2:  -233.39598427215515   -1.04816e-01   7.01011e-03 DIIS
   @DF-RKS iter   3:  -233.57727442954544   -1.81290e-01   8.07463e-04 DIIS
   @DF-RKS iter   4:  -233.57924955410834   -1.97512e-03   3.34718e-04 DIIS
   @DF-RKS iter   5:  -233.57969441598115   -4.44862e-04   3.59343e-05 DIIS
   @DF-RKS iter   6:  -233.57970118380791   -6.76783e-06   1.74319e-05 DIIS
   @DF-RKS iter   7:  -233.57970257771078   -1.39390e-06   1.84068e-06 DIIS
   @DF-RKS iter   8:  -233.57970261441318   -3.67024e-08   3.52640e-07 DIIS
   @DF-RKS iter   9:  -233.57970261586897   -1.45579e-09   1.11366e-07 DIIS
   @DF-RKS iter  10:  -233.57970261597535   -1.06382e-10   5.10075e-08 DIIS
   @DF-RKS iter  11:  -233.57970261599306   -1.77067e-11   7.00135e-09 DIIS
  Energy and wave function converged.


  ==> Post-Iterations <==

    Orbital Energies [Eh]
    ---------------------

    Doubly Occupied:                                                      

       1A    -19.234754     2A    -10.332461     3A    -10.291457  
       4A    -10.291112     5A    -10.278144     6A     -1.120576  
       7A     -0.898982     8A     -0.822349     9A     -0.737236  
      10A     -0.691631    11A     -0.585753    12A     -0.568092  
      13A     -0.531739    14A     -0.523737    15A     -0.478718  
      16A     -0.468761    17A     -0.458087    18A     -0.425958  
      19A     -0.417925    20A     -0.389351    21A     -0.348915  

    Virtual:                                                              

      22A      0.116438    23A      0.121061    24A      0.143222  
      25A      0.151267    26A      0.170873    27A      0.192361  
      28A      0.206234    29A      0.213278    30A      0.217682  
      31A      0.234591    32A      0.254019    33A      0.293453  
      34A      0.295700    35A      0.316735    36A      0.378628  
      37A      0.388997    38A      0.403578    39A      0.450688  
      40A      0.458215    41A      0.462722    42A      0.486681  
      43A      0.518964    44A      0.593348    45A      0.602281  
      46A      0.644004    47A      0.648675    48A      0.663555  
      49A      0.667676    50A      0.671850    51A      0.684188  
      52A      0.696709    53A      0.700266    54A      0.707860  
      55A      0.714969    56A      0.716726    57A      0.740546  
      58A      0.845772    59A      0.995247    60A      1.015140  
      61A      1.063866    62A      1.069896    63A      1.108657  
      64A      1.119413    65A      1.585664    66A      2.273354  
      67A      2.339239    68A      2.341037    69A      2.344878  
      70A      2.355396    71A      2.361311    72A      2.377158  
      73A      2.384471    74A      2.407453    75A      2.429553  
      76A      2.870092    77A      2.902526    78A      2.921577  
      79A      2.930328    80A      2.936194    81A      2.952380  
      82A      2.976575    83A      3.060092    84A      3.078621  
      85A      3.151671    86A      3.171372    87A      3.288621  
      88A      4.957899    89A      5.013686    90A      5.156133  
      91A     23.423886    92A     23.563614    93A     23.628590  
      94A     23.701986    95A     49.966051  

    Final Occupation by Irrep:
              A 
    DOCC [    21 ]

  @DF-RKS Final Energy:  -233.57970261599306

   => Energetics <=

    Nuclear Repulsion Energy =            183.1558867618914235
    One-Electron Energy =                -677.9804281855025465
    Two-Electron Energy =                 284.4664538436755379
    DFT Exchange-Correlation Energy =     -23.2145589280525186
    Empirical Dispersion Energy =          -0.0070561080049838
    VV10 Nonlocal Energy =                  0.0000000000000000
    Total Energy =                       -233.5797026159930567

Computation Completed


Properties will be evaluated at   0.000000,   0.000000,   0.000000 [a0]

Properties computed using the SCF density matrix

  Nuclear Dipole Moment: [e a0]
     X:     6.2376      Y:    -0.4998      Z:     0.0396

  Electronic Dipole Moment: [e a0]
     X:    -5.3947      Y:     0.3460      Z:    -0.3270

  Dipole Moment: [e a0]
     X:     0.8429      Y:    -0.1539      Z:    -0.2874     Total:     0.9038

  Dipole Moment: [D]
     X:     2.1426      Y:    -0.3911      Z:    -0.7305     Total:     2.2972


*** tstop() called on daniele-Precision-5750 at Thu May 27 11:06:54 2021
Module time:
	user time   =      30.16 seconds =       0.50 minutes
	system time =       0.75 seconds =       0.01 minutes
	total time  =          4 seconds =       0.07 minutes
Total time:
	user time   =      30.16 seconds =       0.50 minutes
	system time =       0.75 seconds =       0.01 minutes
	total time  =          4 seconds =       0.07 minutes

*** tstart() called on daniele-Precision-5750
*** at Thu May 27 11:06:54 2021


         ------------------------------------------------------------
                                   SCF GRAD                          
                          Rob Parrish, Justin Turney,                
                       Andy Simmonett, and Alex Sokolov              
         ------------------------------------------------------------

  ==> Geometry <==

    Molecular point group: c1
    Full point group: C1

    Geometry (in Angstrom), charge = 0, multiplicity = 1:

       Center              X                  Y                   Z               Mass       
    ------------   -----------------  -----------------  -----------------  -----------------
         O           -2.406371825944     0.279686983008    -0.342722546676    15.994914619570
         C            0.032570174056     0.200019983008    -0.233203546676    12.000000000000
         C            1.297933174056    -0.367537016992     0.460794453324    12.000000000000
         C           -1.303734825944    -0.299103016992     0.374876453324    12.000000000000
         C            2.620859174056     0.138722983008    -0.149347546676    12.000000000000
         H            0.041920174056     1.296681983008    -0.180251546676     1.007825032230
         H            0.051325174056    -0.067687016992    -1.297961546676     1.007825032230
         H            1.281054174056    -1.464513016992     0.413881453324     1.007825032230
         H            1.276908174056    -0.109076016992     1.527915453324     1.007825032230
         H           -1.348193825944    -1.394153016992     0.321503453324     1.007825032230
         H           -1.357874825944    -0.036794016992     1.438347453324     1.007825032230
         H            2.699231174056    -0.134140016992    -1.207240546676     1.007825032230
         H            3.480051174056    -0.296867016992     0.371954453324     1.007825032230
         H            2.701077174056     1.228487983008    -0.072321546676     1.007825032230
         H           -2.159480825944     0.443438983008    -1.271791546676     1.007825032230

  Nuclear repulsion =  183.155886761891423

  ==> Basis Set <==

  Basis Set: 6-311G
    Blend: 6-311G
    Number of shells: 65
    Number of basis function: 95
    Number of Cartesian functions: 95
    Spherical Harmonics?: true
    Max angular momentum: 1

  ==> DFJKGrad: Density-Fitted SCF Gradients <==

    Gradient:                    1
    J tasked:                  Yes
    K tasked:                  Yes
    wK tasked:                 Yes
    Omega:               2.000E-01
    OpenMP threads:              8
    Integrals threads:           8
    Memory [MiB]:              500
    Schwarz Cutoff:          0E+00
    Fitting Condition:       1E-10

   => Auxiliary Basis Set <=

  Basis Set: (6-311G AUX)
    Blend: CC-PVTZ-JKFIT
    Number of shells: 225
    Number of basis function: 695
    Number of Cartesian functions: 830
    Spherical Harmonics?: true
    Max angular momentum: 4

  ==> DFT Potential <==

   => Composite Functional: WB97X-D <= 

    wB97X-D Hyb-GGA Exchange-Correlation Functional

    J.-D. Chai and M. Head-Gordon, Phys. Chem. Chem. Phys. 10, 6615 (2008)

    Deriv               =              1
    GGA                 =           TRUE
    Meta                =          FALSE

    Exchange Hybrid     =           TRUE
    MP2 Hybrid          =          FALSE

   => Exchange-Correlation Functionals <=

    1.0000   wB97D range-separated functional

   => Exact (HF) Exchange <=

    0.7780            HF,LR [omega = 0.2000]
    0.2220               HF 

   => Molecular Quadrature <=

    Radial Scheme          =       TREUTLER
    Pruning Scheme         =           FLAT
    Nuclear Scheme         =       TREUTLER

    BS radius alpha        =              1
    Pruning alpha          =              1
    Radial Points          =             75
    Spherical Points       =            302
    Total Points           =         336040
    Total Blocks           =           2573
    Max Points             =            256
    Max Functions          =             89


  -Total Gradient:
     Atom            X                  Y                   Z
    ------   -----------------  -----------------  -----------------
       1        0.005809533177    -0.005573601633     0.001193330086
       2       -0.001702746190     0.003741681576    -0.010686852606
       3        0.001863224719    -0.001223921703     0.002113597396
       4       -0.021279275877     0.003344304992     0.005844981223
       5        0.003228581479     0.000744346631    -0.001074177662
       6        0.000021563937     0.002322514229    -0.000150148651
       7       -0.000600848830     0.000859237664    -0.000755656796
       8        0.001106396480    -0.002138476848     0.000571612291
       9        0.001244166958    -0.000326118954     0.002417939074
      10       -0.000286069308    -0.000675256791     0.001709429937
      11        0.005137472109    -0.004591349754     0.006593357920
      12        0.000667349141    -0.000675813140    -0.001670197694
      13        0.002096019005    -0.000982277100     0.001067454439
      14        0.000800463397     0.001940879201     0.000483637171
      15        0.001890647794     0.003120489860    -0.007722709818


*** tstop() called on daniele-Precision-5750 at Thu May 27 11:06:56 2021
Module time:
	user time   =      12.75 seconds =       0.21 minutes
	system time =       0.14 seconds =       0.00 minutes
	total time  =          2 seconds =       0.03 minutes
Total time:
	user time   =      42.92 seconds =       0.72 minutes
	system time =       0.89 seconds =       0.01 minutes
	total time  =          6 seconds =       0.10 minutes

			-----------------------------------------
			 OPTKING 2.0: for geometry optimizations 
			  - R.A. King,  Bethel University        
			-----------------------------------------
	At level 1: Red. Int., RFO, no backsteps, dynamic trust

	Internal coordinates to be generated automatically.
	Detected frag 1 with atoms:  1 2 3 4 5 6 7 8 9 10 11 12 13 14 15
	---Fragment 1 Bond Connectivity---
	 1 : 4 15
	 2 : 3 4 6 7
	 3 : 2 5 8 9
	 4 : 1 2 10 11
	 5 : 3 12 13 14
	 6 : 2
	 7 : 2
	 8 : 3
	 9 : 3
	 10 : 4
	 11 : 4
	 12 : 5
	 13 : 5
	 14 : 5
	 15 : 1

	Assuming in current code that numbering for constraints corresponds to unified fragment.
	Frozen dihedral atom list: 
	     2     4     1    15
	     4     2     3     5
	     3     2     4     1
	    12     5     3     2
	---Fragment 1 Geometry and Gradient---
	 O          -4.5473837071        0.5285317987       -0.6476517502
	 C           0.0615487088        0.3779829875       -0.4406908347
	 C           2.4527382281       -0.6945443031        0.8707753169
	 C          -2.4637017613       -0.5652227854        0.7084138277
	 C           4.9527060524        0.2621484452       -0.2822259607
	 H           0.0792176481        2.4503738197       -0.3406260569
	 H           0.0969905223       -0.1279099244       -2.4527918446
	 H           2.4208415408       -2.7675285093        0.7821225952
	 H           2.4130067363       -0.2061237990        2.8873417496
	 H          -2.5477170951       -2.6345673791        0.6075534752
	 H          -2.5660115337       -0.0695306152        2.7180827600
	 H           5.1008076683       -0.2534878946       -2.2813540008
	 H           6.5763436215       -0.5609973578        0.7028920479
	 H           5.1042961027        2.3215058363       -0.1366679162
	 H          -4.0808273342        0.8379782312       -2.4033377119
	             0.0058095332       -0.0055736016        0.0011933301
	            -0.0017027462        0.0037416816       -0.0106868526
	             0.0018632247       -0.0012239217        0.0021135974
	            -0.0212792759        0.0033443050        0.0058449812
	             0.0032285815        0.0007443466       -0.0010741777
	             0.0000215639        0.0023225142       -0.0001501487
	            -0.0006008488        0.0008592377       -0.0007556568
	             0.0011063965       -0.0021384768        0.0005716123
	             0.0012441670       -0.0003261190        0.0024179391
	            -0.0002860693       -0.0006752568        0.0017094299
	             0.0051374721       -0.0045913498        0.0065933579
	             0.0006673491       -0.0006758131       -0.0016701977
	             0.0020960190       -0.0009822771        0.0010674544
	             0.0008004634        0.0019408792        0.0004836372
	             0.0018906478        0.0031204899       -0.0077227098

	Previous optimization step data not found.  Starting new optimization.

	---Fragment 1 Intrafragment Coordinates---
	 - Coordinate -           - BOHR/RAD -       - ANG/DEG -
	 R(1,4)           =         2.716053	       1.437273
	 R(1,15)          =         1.842787	       0.975161
	 R(2,3)           =         2.930537	       1.550773
	 R(2,4)           =         2.930353	       1.550676
	 R(2,6)           =         2.074880	       1.097979
	 R(2,7)           =         2.075026	       1.098057
	 R(3,5)           =         2.914535	       1.542305
	 R(3,8)           =         2.075124	       1.098108
	 R(3,9)           =         2.075253	       1.098176
	 R(4,10)          =         2.073504	       1.097251
	 R(4,11)          =         2.072425	       1.096680
	 R(5,12)          =         2.069862	       1.095324
	 R(5,13)          =         2.069837	       1.095311
	 R(5,14)          =         2.070053	       1.095425
	 B(1,4,2)         =         1.913156	     109.615780
	 B(1,4,10)        =         1.924657	     110.274696
	 B(1,4,11)        =         1.928331	     110.485253
	 B(2,3,5)         =         1.985283	     113.748354
	 B(2,3,8)         =         1.911282	     109.508402
	 B(2,3,9)         =         1.910390	     109.457306
	 B(2,4,10)        =         1.914601	     109.698543
	 B(2,4,11)        =         1.923908	     110.231805
	 B(3,2,4)         =         1.993103	     114.196414
	 B(3,2,6)         =         1.914539	     109.695017
	 B(3,2,7)         =         1.907929	     109.316292
	 B(3,5,12)        =         1.940873	     111.203812
	 B(3,5,13)        =         1.932669	     110.733765
	 B(3,5,14)        =         1.940725	     111.195372
	 B(4,1,15)        =         1.927374	     110.430390
	 B(4,2,6)         =         1.885900	     108.054112
	 B(4,2,7)         =         1.892826	     108.450953
	 B(5,3,8)         =         1.900956	     108.916759
	 B(5,3,9)         =         1.900311	     108.879797
	 B(6,2,7)         =         1.865156	     106.865561
	 B(8,3,9)         =         1.850771	     106.041364
	 B(10,4,11)       =         1.858628	     106.491553
	 B(12,5,13)       =         1.880187	     107.726787
	 B(12,5,14)       =         1.886518	     108.089524
	 B(13,5,14)       =         1.880442	     107.741415
	*D(1,4,2,3)       =        -3.136895	    -179.730822
	 D(1,4,2,6)       =         1.010897	      57.920108
	 D(1,4,2,7)       =        -1.004884	     -57.575612
	*D(2,3,5,12)      =        -1.044964	     -59.872002
	 D(2,3,5,13)      =        -3.134816	    -179.611699
	 D(2,3,5,14)      =         1.058293	      60.635750
	*D(2,4,1,15)      =         0.526834	      30.185379
	 D(3,2,4,10)      =        -1.021196	     -58.510224
	 D(3,2,4,11)      =         1.020063	      58.445277
	*D(4,2,3,5)       =        -3.138602	    -179.828640
	 D(4,2,3,8)       =         1.013260	      58.055497
	 D(4,2,3,9)       =        -1.008773	     -57.798460
	 D(5,3,2,6)       =        -1.018940	     -58.380943
	 D(5,3,2,7)       =         1.020867	      58.491367
	 D(6,2,3,8)       =         3.132922	     179.503194
	 D(6,2,3,9)       =         1.110889	      63.649237
	 D(6,2,4,10)      =         3.126595	     179.140705
	 D(6,2,4,11)      =        -1.115332	     -63.903794
	 D(7,2,3,8)       =        -1.110457	     -63.624495
	 D(7,2,3,9)       =        -3.132490	    -179.478453
	 D(7,2,4,10)      =         1.110815	      63.644986
	 D(7,2,4,11)      =        -3.131112	    -179.399513
	 D(8,3,5,12)      =         1.092057	      62.570267
	 D(8,3,5,13)      =        -0.997795	     -57.169430
	 D(8,3,5,14)      =        -3.087871	    -176.921981
	 D(9,3,5,12)      =         3.102827	     177.778895
	 D(9,3,5,13)      =         1.012975	      58.039198
	 D(9,3,5,14)      =        -1.077101	     -61.713353
	 D(10,4,1,15)     =        -1.582789	     -90.687107
	 D(11,4,1,15)     =         2.650410	     151.857289

	Current energy   :      -233.5797026160

	Generating empirical Hessian (Schlegel '84) for each fragment.
	Taking RFO optimization step.
	Going to follow RFO solution 1.
	Using RFO vector 1.
	Norm of target step-size    0.17776
	Projected energy change by RFO approximation:        -0.0030768584

	Back-transformation to cartesian coordinates...
	Successfully converged to displaced geometry.

	Back-transformation to cartesian coordinates to adjust frozen coordinates...
	Successfully converged to displaced geometry.

	--- Internal Coordinate Step in ANG or DEG, aJ/ANG or AJ/DEG ---
	 ---------------------------------------------------------------------------
	   Coordinate                Previous        Force       Change         New 
	   ----------                --------       ------       ------       ------
	    1 R(1,4)          =      1.437273     0.030015     0.004813     1.442086
	    2 R(1,15)         =      0.975161    -0.068890    -0.008382     0.966779
	    3 R(2,3)          =      1.550773    -0.096312    -0.022094     1.528679
	    4 R(2,4)          =      1.550676    -0.098219    -0.022532     1.528144
	    5 R(2,6)          =      1.097979    -0.019057    -0.003549     1.094430
	    6 R(2,7)          =      1.098057    -0.004241    -0.000784     1.097273
	    7 R(3,5)          =      1.542305    -0.054747    -0.012230     1.530075
	    8 R(3,8)          =      1.098108    -0.017085    -0.003181     1.094927
	    9 R(3,9)          =      1.098176    -0.018671    -0.003490     1.094687
	   10 R(4,10)         =      1.097251    -0.004819    -0.000879     1.096372
	   11 R(4,11)         =      1.096680    -0.041676    -0.007765     1.088915
	   12 R(5,12)         =      1.095324    -0.015081    -0.002790     1.092534
	   13 R(5,13)         =      1.095311    -0.020926    -0.003863     1.091448
	   14 R(5,14)         =      1.095425    -0.016705    -0.003083     1.092342
	   15 B(1,4,2)        =    109.615780     0.000947     2.953166   112.568947
	   16 B(1,4,10)       =    110.274696    -0.000258    -0.028339   110.246356
	   17 B(1,4,11)       =    110.485253    -0.000671    -4.558678   105.926575
	   18 B(2,3,5)        =    113.748354    -0.000292    -1.179080   112.569274
	   19 B(2,3,8)        =    109.508402     0.000035    -0.172166   109.336236
	   20 B(2,3,9)        =    109.457306     0.000011    -0.421028   109.036278
	   21 B(2,4,10)       =    109.698543    -0.000271    -0.019605   109.678938
	   22 B(2,4,11)       =    110.231805    -0.000021     0.073875   110.305680
	   23 B(3,2,4)        =    114.196414    -0.000178    -0.745987   113.450427
	   24 B(3,2,6)        =    109.695017     0.000122     0.485079   110.180096
	   25 B(3,2,7)        =    109.316292    -0.000060    -0.552067   108.764225
	   26 B(3,5,12)       =    111.203812    -0.000035    -0.259724   110.944088
	   27 B(3,5,13)       =    110.733765     0.000007     0.152279   110.886044
	   28 B(3,5,14)       =    111.195372    -0.000045    -0.286543   110.908829
	   29 B(4,1,15)       =    110.430390    -0.000110    -0.508541   109.921849
	   30 B(4,2,6)        =    108.054112     0.000039     0.369402   108.423515
	   31 B(4,2,7)        =    108.450953     0.000088     0.049578   108.500531
	   32 B(5,3,8)        =    108.916759     0.000149     0.703011   109.619769
	   33 B(5,3,9)        =    108.879797     0.000130     0.594832   109.474629
	   34 B(6,2,7)        =    106.865561     0.000000     0.466936   107.332497
	   35 B(8,3,9)        =    106.041364    -0.000013     0.585040   106.626404
	   36 B(10,4,11)      =    106.491553     0.000242     1.470397   107.961950
	   37 B(12,5,13)      =    107.726787     0.000029     0.298436   108.025223
	   38 B(12,5,14)      =    108.089524     0.000013    -0.151461   107.938062
	   39 B(13,5,14)      =    107.741415     0.000034     0.270603   108.012018
	   40 *D(1,4,2,3)     =   -179.730822     0.000000     0.000000  -179.730822
	   41 D(1,4,2,6)      =     57.920108    -0.000015    -0.391977    57.528131
	   42 D(1,4,2,7)      =    -57.575612    -0.000030    -1.165107   -58.740719
	   43 *D(2,3,5,12)    =    -59.872002     0.000000     0.000000   -59.872002
	   44 D(2,3,5,13)     =   -179.611699    -0.000004    -0.305161  -179.916861
	   45 D(2,3,5,14)     =     60.635750    -0.000008    -0.557517    60.078232
	   46 *D(2,4,1,15)    =     30.185379    -0.000000     0.000000    30.185379
	   47 D(3,2,4,10)     =    -58.510224     0.000025     1.916557   -56.593667
	   48 D(3,2,4,11)     =     58.445277     0.000053     3.747773    62.193049
	   49 *D(4,2,3,5)     =   -179.828640     0.000000     0.000000  -179.828640
	   50 D(4,2,3,8)      =     58.055497    -0.000004     0.028689    58.084186
	   51 D(4,2,3,9)      =    -57.798460    -0.000006    -0.339488   -58.137948
	   52 D(5,3,2,6)      =    -58.380943     0.000004     0.318386   -58.062557
	   53 D(5,3,2,7)      =     58.491367     0.000012     0.838352    59.329719
	   54 D(6,2,3,8)      =    179.503194     0.000001     0.347075   179.850270
	   55 D(6,2,3,9)      =     63.649237    -0.000002    -0.021102    63.628135
	   56 D(6,2,4,10)     =    179.140705     0.000010     1.524580   180.665285
	   57 D(6,2,4,11)     =    -63.903794     0.000038     3.355796   -60.547998
	   58 D(7,2,3,8)      =    -63.624495     0.000009     0.867041   -62.757454
	   59 D(7,2,3,9)      =   -179.478453     0.000006     0.498864  -178.979589
	   60 D(7,2,4,10)     =     63.644986    -0.000005     0.751450    64.396435
	   61 D(7,2,4,11)     =   -179.399513     0.000022     2.582666  -176.816848
	   62 D(8,3,5,12)     =     62.570267    -0.000010    -0.515537    62.054730
	   63 D(8,3,5,13)     =    -57.169430    -0.000015    -0.820699   -57.990129
	   64 D(8,3,5,14)     =   -176.921981    -0.000019    -1.073055  -177.995036
	   65 D(9,3,5,12)     =    177.778895     0.000021     0.907645   178.686540
	   66 D(9,3,5,13)     =     58.039198     0.000016     0.602484    58.641681
	   67 D(9,3,5,14)     =    -61.713353     0.000012     0.350128   -61.363226
	   68 D(10,4,1,15)    =    -90.687107    -0.000025    -1.947030   -92.634137
	   69 D(11,4,1,15)    =    151.857289     0.000037    -1.047215   150.810073
	 ---------------------------------------------------------------------------
	Successfully symmetrized geometry.

  ==> Convergence Check <==

  Measures of convergence in internal coordinates in au.
  Criteria marked as inactive (o), active & met (*), and active & unmet ( ).
  --------------------------------------------------------------------------------------------- ~
   Step     Total Energy     Delta E     MAX Force     RMS Force      MAX Disp      RMS Disp    ~
  --------------------------------------------------------------------------------------------- ~
    Convergence Criteria             o    2.50e-03 *    1.70e-03 *    1.00e-02 *    6.70e-03 *  ~
  --------------------------------------------------------------------------------------------- ~
      1    -233.57970262   -2.34e+02 o    1.24e-02      3.40e-03      7.96e-02      2.14e-02    ~
  ---------------------------------------------------------------------------------------------

	Writing optimization data to binary file.
	Structure for next step:
	Cartesian Geometry (in Angstrom)
	    O    -2.3989752325   0.3670214879  -0.3102017810
	    C     0.0664750637   0.2204685957  -0.2298113590
	    C     1.2775727310  -0.4138925699   0.4540658717
	    C    -1.2699850021  -0.2378460498   0.3524656964
	    C     2.6042765133   0.0618411281  -0.1414716291
	    H     0.1198499347   1.3111403122  -0.1565703564
	    H     0.0882679003  -0.0370079534  -1.2962253584
	    H     1.2089181436  -1.5038047780   0.3750472297
	    H     1.2503706018  -0.1749409259   1.5220085043
	    H    -1.3401598651  -1.3307178855   0.3001355504
	    H    -1.3462113886   0.0538269209   1.3988177769
	    H     2.6666450022  -0.1858132683  -1.2037366256
	    H     3.4490205347  -0.4083247632   0.3650955571
	    H     2.7105093508   1.1444085322  -0.0416068309
	    H    -2.1793007041   0.5508099643  -1.2335794469
			--------------------------
			 OPTKING Finished Execution 
			--------------------------

    Structure for next step:
    Molecular point group: c1
    Full point group: C1

    Geometry (in Angstrom), charge = 0, multiplicity = 1:

    O           -2.405029266627     0.355514421487    -0.314129627126
    C            0.060421039223     0.208961528660    -0.233739204830
    C            1.271518711358    -0.425399639346     0.450138028553
    C           -1.276039031822    -0.249353118564     0.348537852832
    C            2.598222498857     0.050334060500    -0.145399474625
    H            0.113795910459     1.299633249535    -0.160498201960
    H            0.082213875952    -0.048515021449    -1.300153208451
    H            1.202864123685    -1.515311851823     0.371119386209
    H            1.244316582031    -0.186447994456     1.518080665354
    H           -1.346213895068    -1.342224958586     0.296207706684
    H           -1.352265418569     0.042319853277     1.394889937447
    H            2.660590988019    -0.197320336901    -1.207664475247
    H            3.442966523545    -0.419831832669     0.361167713604
    H            2.704455336812     1.132901468876    -0.045534676020
    H           -2.185354737356     0.539302898561    -1.237507296687

gradient() will perform analytic gradient computation.

*** tstart() called on daniele-Precision-5750
*** at Thu May 27 11:06:56 2021

   => Loading Basis Set <=

    Name: 6-311G
    Role: ORBITAL
    Keyword: BASIS
    atoms 1    entry O          line   126 file /home/daniele/anaconda3/envs/poltype/share/psi4/basis/6-311g.gbs 
    atoms 2-5  entry C          line    92 file /home/daniele/anaconda3/envs/poltype/share/psi4/basis/6-311g.gbs 
    atoms 6-15 entry H          line    21 file /home/daniele/anaconda3/envs/poltype/share/psi4/basis/6-311g.gbs 


         ---------------------------------------------------------
                                   SCF
               by Justin Turney, Rob Parrish, Andy Simmonett
                          and Daniel G. A. Smith
                              RKS Reference
                        8 Threads,    667 MiB Core
         ---------------------------------------------------------

  ==> Geometry <==

    Molecular point group: c1
    Full point group: C1

    Geometry (in Angstrom), charge = 0, multiplicity = 1:

       Center              X                  Y                   Z               Mass       
    ------------   -----------------  -----------------  -----------------  -----------------
         O           -2.405029266627     0.355514421487    -0.314129627126    15.994914619570
         C            0.060421039223     0.208961528660    -0.233739204830    12.000000000000
         C            1.271518711358    -0.425399639346     0.450138028553    12.000000000000
         C           -1.276039031822    -0.249353118564     0.348537852832    12.000000000000
         C            2.598222498857     0.050334060500    -0.145399474625    12.000000000000
         H            0.113795910459     1.299633249535    -0.160498201960     1.007825032230
         H            0.082213875952    -0.048515021449    -1.300153208451     1.007825032230
         H            1.202864123685    -1.515311851823     0.371119386209     1.007825032230
         H            1.244316582031    -0.186447994456     1.518080665354     1.007825032230
         H           -1.346213895068    -1.342224958586     0.296207706684     1.007825032230
         H           -1.352265418569     0.042319853277     1.394889937447     1.007825032230
         H            2.660590988019    -0.197320336901    -1.207664475247     1.007825032230
         H            3.442966523545    -0.419831832669     0.361167713604     1.007825032230
         H            2.704455336812     1.132901468876    -0.045534676020     1.007825032230
         H           -2.185354737356     0.539302898561    -1.237507296687     1.007825032230

  Running in c1 symmetry.

  Rotational constants: A =      0.61108  B =      0.06527  C =      0.06176 [cm^-1]
  Rotational constants: A =  18319.82498  B =   1956.64054  C =   1851.49522 [MHz]
  Nuclear repulsion =  184.381676122862046

  Charge       = 0
  Multiplicity = 1
  Electrons    = 42
  Nalpha       = 21
  Nbeta        = 21

  ==> Algorithm <==

  SCF Algorithm Type is DF.
  DIIS enabled.
  MOM disabled.
  Fractional occupation disabled.
  Guess Type is READ.
  Energy threshold   = 1.00e-08
  Density threshold  = 1.00e-08
  Integral threshold = 0.00e+00

  ==> Primary Basis <==

  Basis Set: 6-311G
    Blend: 6-311G
    Number of shells: 65
    Number of basis function: 95
    Number of Cartesian functions: 95
    Spherical Harmonics?: true
    Max angular momentum: 1

  ==> DFT Potential <==

   => Composite Functional: WB97X-D <= 

    wB97X-D Hyb-GGA Exchange-Correlation Functional

    J.-D. Chai and M. Head-Gordon, Phys. Chem. Chem. Phys. 10, 6615 (2008)

    Deriv               =              1
    GGA                 =           TRUE
    Meta                =          FALSE

    Exchange Hybrid     =           TRUE
    MP2 Hybrid          =          FALSE

   => Exchange-Correlation Functionals <=

    1.0000   wB97D range-separated functional

   => Exact (HF) Exchange <=

    0.7780            HF,LR [omega = 0.2000]
    0.2220               HF 

   => Molecular Quadrature <=

    Radial Scheme          =       TREUTLER
    Pruning Scheme         =           FLAT
    Nuclear Scheme         =       TREUTLER

    BS radius alpha        =              1
    Pruning alpha          =              1
    Radial Points          =             75
    Spherical Points       =            302
    Total Points           =         336031
    Total Blocks           =           2584
    Max Points             =            256
    Max Functions          =             89

   => WB97X-D: Empirical Dispersion <=

    Chai and Head-Gordon Dispersion Correction
    Chai, J.-D.; Head-Gordon, M. (2010), J. Chem. Phys., 132: 6615-6620

        s6 =       1.000000

   => Loading Basis Set <=

    Name: (6-311G AUX)
    Role: JKFIT
    Keyword: DF_BASIS_SCF
    atoms 1    entry O          line   229 file /home/daniele/anaconda3/envs/poltype/share/psi4/basis/cc-pvtz-jkfit.gbs 
    atoms 2-5  entry C          line   125 file /home/daniele/anaconda3/envs/poltype/share/psi4/basis/cc-pvtz-jkfit.gbs 
    atoms 6-15 entry H          line    51 file /home/daniele/anaconda3/envs/poltype/share/psi4/basis/cc-pvtz-jkfit.gbs 

   => Loading Basis Set <=

    Name: 6-311G
    Role: ORBITAL
    Keyword: BASIS
    atoms 1    entry O          line   126 file /home/daniele/anaconda3/envs/poltype/share/psi4/basis/6-311g.gbs 
    atoms 2-5  entry C          line    92 file /home/daniele/anaconda3/envs/poltype/share/psi4/basis/6-311g.gbs 
    atoms 6-15 entry H          line    21 file /home/daniele/anaconda3/envs/poltype/share/psi4/basis/6-311g.gbs 

  Reading orbitals from file 180, no projection.

  ==> Pre-Iterations <==

   -------------------------------------------------------
    Irrep   Nso     Nmo     Nalpha   Nbeta   Ndocc  Nsocc
   -------------------------------------------------------
     A         95      95       0       0       0       0
   -------------------------------------------------------
    Total      95      95      21      21      21       0
   -------------------------------------------------------

  ==> Integral Setup <==

  ==> DiskDFJK: Density-Fitted J/K Matrices <==

    J tasked:                  Yes
    K tasked:                  Yes
    wK tasked:                 Yes
    Omega:               2.000E-01
    OpenMP threads:              8
    Integrals threads:           8
    Memory [MiB]:               34
    Algorithm:                Disk
    Integral Cache:           NONE
    Schwarz Cutoff:          1E-12
    Fitting Condition:       1E-10

   => Auxiliary Basis Set <=

  Basis Set: (6-311G AUX)
    Blend: CC-PVTZ-JKFIT
    Number of shells: 225
    Number of basis function: 695
    Number of Cartesian functions: 830
    Spherical Harmonics?: true
    Max angular momentum: 4

  Cached 100.0% of DFT collocation blocks in 0.667 [GiB].

  Minimum eigenvalue in the overlap matrix is 2.3057518273E-03.
  Using Symmetric Orthogonalization.

  SCF Guess: Orbitals guess was supplied from a previous computation.

  ==> Iterations <==

                           Total Energy        Delta E     RMS |[F,P]|

   @DF-RKS iter   0:  -233.58739084010821   -2.33587e+02   1.09551e-03 
   @DF-RKS iter   1:  -233.58133370079122    6.05714e-03   1.41591e-04 DIIS
   @DF-RKS iter   2:  -233.58146410166376   -1.30401e-04   8.54725e-05 DIIS
   @DF-RKS iter   3:  -233.58148986961172   -2.57679e-05   3.22443e-05 DIIS
   @DF-RKS iter   4:  -233.58149408871418   -4.21910e-06   1.10811e-05 DIIS
   @DF-RKS iter   5:  -233.58149459824199   -5.09528e-07   1.79568e-06 DIIS
   @DF-RKS iter   6:  -233.58149461957268   -2.13307e-08   2.62575e-07 DIIS
   @DF-RKS iter   7:  -233.58149462052774   -9.55055e-10   1.33716e-07 DIIS
   @DF-RKS iter   8:  -233.58149462064949   -1.21759e-10   3.08301e-08 DIIS
   @DF-RKS iter   9:  -233.58149462066172   -1.22213e-11   6.52511e-09 DIIS
  Energy and wave function converged.


  ==> Post-Iterations <==

    Orbital Energies [Eh]
    ---------------------

    Doubly Occupied:                                                      

       1A    -19.233420     2A    -10.328724     3A    -10.288926  
       4A    -10.288118     5A    -10.276392     6A     -1.120391  
       7A     -0.907049     8A     -0.825844     9A     -0.737173  
      10A     -0.692098    11A     -0.589321    12A     -0.570390  
      13A     -0.533568    14A     -0.524421    15A     -0.477578  
      16A     -0.470173    17A     -0.457801    18A     -0.427811  
      19A     -0.418376    20A     -0.392541    21A     -0.349034  

    Virtual:                                                              

      22A      0.116932    23A      0.123631    24A      0.144407  
      25A      0.149417    26A      0.170240    27A      0.194388  
      28A      0.207023    29A      0.214710    30A      0.218986  
      31A      0.236763    32A      0.254743    33A      0.297573  
      34A      0.304518    35A      0.319474    36A      0.377916  
      37A      0.392212    38A      0.408574    39A      0.447189  
      40A      0.461201    41A      0.465975    42A      0.490046  
      43A      0.525718    44A      0.599702    45A      0.609636  
      46A      0.648877    47A      0.655019    48A      0.666612  
      49A      0.668954    50A      0.676488    51A      0.685608  
      52A      0.698397    53A      0.706128    54A      0.711800  
      55A      0.717980    56A      0.719315    57A      0.740957  
      58A      0.846291    59A      0.995206    60A      1.013074  
      61A      1.061572    62A      1.066453    63A      1.108188  
      64A      1.127354    65A      1.595879    66A      2.271628  
      67A      2.339874    68A      2.344343    69A      2.346740  
      70A      2.356269    71A      2.363000    72A      2.378134  
      73A      2.382467    74A      2.407780    75A      2.429848  
      76A      2.861729    77A      2.907535    78A      2.915366  
      79A      2.927125    80A      2.948420    81A      2.955804  
      82A      2.982328    83A      3.062826    84A      3.082391  
      85A      3.160835    86A      3.171114    87A      3.306916  
      88A      4.957639    89A      5.013602    90A      5.163184  
      91A     23.423153    92A     23.568828    93A     23.637761  
      94A     23.720624    95A     49.970952  

    Final Occupation by Irrep:
              A 
    DOCC [    21 ]

  @DF-RKS Final Energy:  -233.58149462066172

   => Energetics <=

    Nuclear Repulsion Energy =            184.3816761228620464
    One-Electron Energy =                -680.3900957146396422
    Two-Electron Energy =                 285.6766276018150847
    DFT Exchange-Correlation Energy =     -23.2425710831387704
    Empirical Dispersion Energy =          -0.0071315475603887
    VV10 Nonlocal Energy =                  0.0000000000000000
    Total Energy =                       -233.5814946206617151

Computation Completed


Properties will be evaluated at   0.000000,   0.000000,   0.000000 [a0]

Properties computed using the SCF density matrix

  Nuclear Dipole Moment: [e a0]
     X:     6.1452      Y:    -0.6503      Z:    -0.0108

  Electronic Dipole Moment: [e a0]
     X:    -5.3001      Y:     0.4986      Z:    -0.3053

  Dipole Moment: [e a0]
     X:     0.8451      Y:    -0.1517      Z:    -0.3161     Total:     0.9149

  Dipole Moment: [D]
     X:     2.1480      Y:    -0.3855      Z:    -0.8033     Total:     2.3255


*** tstop() called on daniele-Precision-5750 at Thu May 27 11:06:59 2021
Module time:
	user time   =      24.41 seconds =       0.41 minutes
	system time =       0.34 seconds =       0.01 minutes
	total time  =          3 seconds =       0.05 minutes
Total time:
	user time   =      67.97 seconds =       1.13 minutes
	system time =       1.25 seconds =       0.02 minutes
	total time  =          9 seconds =       0.15 minutes

*** tstart() called on daniele-Precision-5750
*** at Thu May 27 11:06:59 2021


         ------------------------------------------------------------
                                   SCF GRAD                          
                          Rob Parrish, Justin Turney,                
                       Andy Simmonett, and Alex Sokolov              
         ------------------------------------------------------------

  ==> Geometry <==

    Molecular point group: c1
    Full point group: C1

    Geometry (in Angstrom), charge = 0, multiplicity = 1:

       Center              X                  Y                   Z               Mass       
    ------------   -----------------  -----------------  -----------------  -----------------
         O           -2.405029266627     0.355514421487    -0.314129627126    15.994914619570
         C            0.060421039223     0.208961528660    -0.233739204830    12.000000000000
         C            1.271518711358    -0.425399639346     0.450138028553    12.000000000000
         C           -1.276039031822    -0.249353118564     0.348537852832    12.000000000000
         C            2.598222498857     0.050334060500    -0.145399474625    12.000000000000
         H            0.113795910459     1.299633249535    -0.160498201960     1.007825032230
         H            0.082213875952    -0.048515021449    -1.300153208451     1.007825032230
         H            1.202864123685    -1.515311851823     0.371119386209     1.007825032230
         H            1.244316582031    -0.186447994456     1.518080665354     1.007825032230
         H           -1.346213895068    -1.342224958586     0.296207706684     1.007825032230
         H           -1.352265418569     0.042319853277     1.394889937447     1.007825032230
         H            2.660590988019    -0.197320336901    -1.207664475247     1.007825032230
         H            3.442966523545    -0.419831832669     0.361167713604     1.007825032230
         H            2.704455336812     1.132901468876    -0.045534676020     1.007825032230
         H           -2.185354737356     0.539302898561    -1.237507296687     1.007825032230

  Nuclear repulsion =  184.381676122862046

  ==> Basis Set <==

  Basis Set: 6-311G
    Blend: 6-311G
    Number of shells: 65
    Number of basis function: 95
    Number of Cartesian functions: 95
    Spherical Harmonics?: true
    Max angular momentum: 1

  ==> DFJKGrad: Density-Fitted SCF Gradients <==

    Gradient:                    1
    J tasked:                  Yes
    K tasked:                  Yes
    wK tasked:                 Yes
    Omega:               2.000E-01
    OpenMP threads:              8
    Integrals threads:           8
    Memory [MiB]:              500
    Schwarz Cutoff:          0E+00
    Fitting Condition:       1E-10

   => Auxiliary Basis Set <=

  Basis Set: (6-311G AUX)
    Blend: CC-PVTZ-JKFIT
    Number of shells: 225
    Number of basis function: 695
    Number of Cartesian functions: 830
    Spherical Harmonics?: true
    Max angular momentum: 4

  ==> DFT Potential <==

   => Composite Functional: WB97X-D <= 

    wB97X-D Hyb-GGA Exchange-Correlation Functional

    J.-D. Chai and M. Head-Gordon, Phys. Chem. Chem. Phys. 10, 6615 (2008)

    Deriv               =              1
    GGA                 =           TRUE
    Meta                =          FALSE

    Exchange Hybrid     =           TRUE
    MP2 Hybrid          =          FALSE

   => Exchange-Correlation Functionals <=

    1.0000   wB97D range-separated functional

   => Exact (HF) Exchange <=

    0.7780            HF,LR [omega = 0.2000]
    0.2220               HF 

   => Molecular Quadrature <=

    Radial Scheme          =       TREUTLER
    Pruning Scheme         =           FLAT
    Nuclear Scheme         =       TREUTLER

    BS radius alpha        =              1
    Pruning alpha          =              1
    Radial Points          =             75
    Spherical Points       =            302
    Total Points           =         336031
    Total Blocks           =           2584
    Max Points             =            256
    Max Functions          =             89


  -Total Gradient:
     Atom            X                  Y                   Z
    ------   -----------------  -----------------  -----------------
       1        0.000863760843    -0.003353154274     0.000794543623
       2        0.004294435694     0.000041762412    -0.000115121215
       3       -0.000304488933    -0.000401454356    -0.001174865312
       4       -0.004929576102     0.002622295046    -0.002049047644
       5       -0.000265377213     0.000775758256    -0.000767048287
       6       -0.000607660057     0.000100220768     0.000574249057
       7       -0.000243141112    -0.000696569330     0.000636112965
       8       -0.000009803474    -0.000205320315    -0.000253651101
       9       -0.000185213397     0.000402923320    -0.000116422021
      10        0.000316966560    -0.000478617918     0.000857460882
      11        0.000051843911     0.000263053574    -0.000545921245
      12       -0.000165164264    -0.000048412084     0.000039512302
      13       -0.000318950745    -0.000426521664     0.000479074651
      14       -0.000049961648    -0.000007084581     0.000178454125
      15        0.001476994711     0.001370738952     0.001420294389


*** tstop() called on daniele-Precision-5750 at Thu May 27 11:07:01 2021
Module time:
	user time   =      12.84 seconds =       0.21 minutes
	system time =       0.14 seconds =       0.00 minutes
	total time  =          2 seconds =       0.03 minutes
Total time:
	user time   =      80.82 seconds =       1.35 minutes
	system time =       1.39 seconds =       0.02 minutes
	total time  =         11 seconds =       0.18 minutes

			-----------------------------------------
			 OPTKING 2.0: for geometry optimizations 
			  - R.A. King,  Bethel University        
			-----------------------------------------
	At level 1: Red. Int., RFO, no backsteps, dynamic trust

	Previous internal coordinate definitions found.
	---Fragment 1 Geometry and Gradient---
	 O          -4.5448466376        0.6718248903       -0.5936189632
	 C           0.1141792163        0.3948800599       -0.4417030819
	 C           2.4028221279       -0.8038888122        0.8506375926
	 C          -2.4113642955       -0.4712091026        0.6586410862
	 C           4.9099289358        0.0951175891       -0.2747651858
	 H           0.2150431050        2.4559509052       -0.3032976453
	 H           0.1553617093       -0.0916801035       -2.4569334851
	 H           2.2730837599       -2.8635243946        0.7013139998
	 H           2.3514175534       -0.3523356462        2.8687566939
	 H          -2.5439755680       -2.5364375705        0.5597514419
	 H          -2.5554112900        0.0799729324        2.6359599569
	 H           5.0277882992       -0.3728813957       -2.2821551097
	 H           6.5062637886       -0.7933671825        0.6825080641
	 H           5.1106799051        2.1408735033       -0.0860480669
	 H          -4.1297219406        1.0191347769       -2.3385498690
	             0.0008637608       -0.0033531543        0.0007945436
	             0.0042944357        0.0000417624       -0.0001151212
	            -0.0003044889       -0.0004014544       -0.0011748653
	            -0.0049295761        0.0026222950       -0.0020490476
	            -0.0002653772        0.0007757583       -0.0007670483
	            -0.0006076601        0.0001002208        0.0005742491
	            -0.0002431411       -0.0006965693        0.0006361130
	            -0.0000098035       -0.0002053203       -0.0002536511
	            -0.0001852134        0.0004029233       -0.0001164220
	             0.0003169666       -0.0004786179        0.0008574609
	             0.0000518439        0.0002630536       -0.0005459212
	            -0.0001651643       -0.0000484121        0.0000395123
	            -0.0003189507       -0.0004265217        0.0004790747
	            -0.0000499616       -0.0000070846        0.0001784541
	             0.0014769947        0.0013707390        0.0014202944

	---Fragment 1 Intrafragment Coordinates---
	 - Coordinate -           - BOHR/RAD -       - ANG/DEG -
	 R(1,4)           =         2.725147	       1.442086
	 R(1,15)          =         1.826947	       0.966779
	 R(2,3)           =         2.888785	       1.528679
	 R(2,4)           =         2.887774	       1.528144
	 R(2,6)           =         2.068174	       1.094430
	 R(2,7)           =         2.073545	       1.097273
	 R(3,5)           =         2.891423	       1.530075
	 R(3,8)           =         2.069113	       1.094927
	 R(3,9)           =         2.068658	       1.094687
	 R(4,10)          =         2.071843	       1.096372
	 R(4,11)          =         2.057751	       1.088915
	 R(5,12)          =         2.064589	       1.092534
	 R(5,13)          =         2.062538	       1.091448
	 R(5,14)          =         2.064227	       1.092342
	 B(1,4,2)         =         1.964699	     112.568947
	 B(1,4,10)        =         1.924162	     110.246356
	 B(1,4,11)        =         1.848768	     105.926575
	 B(2,3,5)         =         1.964704	     112.569274
	 B(2,3,8)         =         1.908277	     109.336236
	 B(2,3,9)         =         1.903042	     109.036278
	 B(2,4,10)        =         1.914259	     109.678938
	 B(2,4,11)        =         1.925197	     110.305680
	 B(3,2,4)         =         1.980083	     113.450427
	 B(3,2,6)         =         1.923005	     110.180096
	 B(3,2,7)         =         1.898294	     108.764225
	 B(3,5,12)        =         1.936340	     110.944088
	 B(3,5,13)        =         1.935327	     110.886044
	 B(3,5,14)        =         1.935724	     110.908829
	 B(4,1,15)        =         1.918498	     109.921849
	 B(4,2,6)         =         1.892347	     108.423515
	 B(4,2,7)         =         1.893692	     108.500531
	 B(5,3,8)         =         1.913226	     109.619769
	 B(5,3,9)         =         1.910693	     109.474629
	 B(6,2,7)         =         1.873305	     107.332497
	 B(8,3,9)         =         1.860982	     106.626404
	 B(10,4,11)       =         1.884291	     107.961950
	 B(12,5,13)       =         1.885396	     108.025223
	 B(12,5,14)       =         1.883875	     107.938062
	 B(13,5,14)       =         1.885165	     108.012018
	*D(1,4,2,3)       =        -3.136895	    -179.730822
	 D(1,4,2,6)       =         1.004055	      57.528131
	 D(1,4,2,7)       =        -1.025219	     -58.740719
	*D(2,3,5,12)      =        -1.044964	     -59.872002
	 D(2,3,5,13)      =        -3.140142	    -179.916861
	 D(2,3,5,14)      =         1.048563	      60.078232
	*D(2,4,1,15)      =         0.526834	      30.185379
	 D(3,2,4,10)      =        -0.987746	     -56.593667
	 D(3,2,4,11)      =         1.085473	      62.193049
	*D(4,2,3,5)       =        -3.138602	    -179.828640
	 D(4,2,3,8)       =         1.013760	      58.084186
	 D(4,2,3,9)       =        -1.014699	     -58.137948
	 D(5,3,2,6)       =        -1.013383	     -58.062557
	 D(5,3,2,7)       =         1.035499	      59.329719
	 D(6,2,3,8)       =         3.138979	     179.850270
	 D(6,2,3,9)       =         1.110520	      63.628135
	 D(6,2,4,10)      =        -3.129981	    -179.334715
	 D(6,2,4,11)      =        -1.056762	     -60.547998
	 D(7,2,3,8)       =        -1.095324	     -62.757454
	 D(7,2,3,9)       =        -3.123783	    -178.979589
	 D(7,2,4,10)      =         1.123930	      64.396435
	 D(7,2,4,11)      =        -3.086036	    -176.816848
	 D(8,3,5,12)      =         1.083059	      62.054730
	 D(8,3,5,13)      =        -1.012119	     -57.990129
	 D(8,3,5,14)      =        -3.106599	    -177.995036
	 D(9,3,5,12)      =         3.118668	     178.686540
	 D(9,3,5,13)      =         1.023490	      58.641681
	 D(9,3,5,14)      =        -1.070990	     -61.363226
	 D(10,4,1,15)     =        -1.616771	     -92.634137
	 D(11,4,1,15)     =         2.632132	     150.810073

	Current energy   :      -233.5814946207

	Energy change for the previous step:
		Projected    :        -0.0030768584
		Actual       :        -0.0017920047

	Performing BFGS update.
	Previous computed or guess Hessian on step 1.
	Steps to be used in Hessian update: 1
	Taking RFO optimization step.
	Going to follow RFO solution 1.
	Using RFO vector 1.
	Norm of target step-size    0.04649
	Projected energy change by RFO approximation:        -0.0002397633

	Back-transformation to cartesian coordinates...
	Successfully converged to displaced geometry.

	Back-transformation to cartesian coordinates to adjust frozen coordinates...
	Successfully converged to displaced geometry.

	--- Internal Coordinate Step in ANG or DEG, aJ/ANG or AJ/DEG ---
	 ---------------------------------------------------------------------------
	   Coordinate                Previous        Force       Change         New 
	   ----------                --------       ------       ------       ------
	    1 R(1,4)          =      1.442086     0.030499     0.004958     1.447044
	    2 R(1,15)         =      0.966779     0.006287     0.000341     0.967119
	    3 R(2,3)          =      1.528679     0.014675     0.002226     1.530905
	    4 R(2,4)          =      1.528144    -0.016422    -0.004775     1.523369
	    5 R(2,6)          =      1.094430    -0.000864    -0.000330     1.094101
	    6 R(2,7)          =      1.097273     0.003762     0.000649     1.097922
	    7 R(3,5)          =      1.530075     0.004495     0.000392     1.530467
	    8 R(3,8)          =      1.094927    -0.001708    -0.000466     1.094461
	    9 R(3,9)          =      1.094687     0.000073    -0.000155     1.094532
	   10 R(4,10)         =      1.096372    -0.003365    -0.000656     1.095716
	   11 R(4,11)         =      1.088915     0.003664     0.000292     1.089207
	   12 R(5,12)         =      1.092534     0.000267    -0.000087     1.092447
	   13 R(5,13)         =      1.091448    -0.001303    -0.000423     1.091025
	   14 R(5,14)         =      1.092342    -0.000072    -0.000162     1.092179
	   15 B(1,4,2)        =    112.568947    -0.000014     0.074418   112.643365
	   16 B(1,4,10)       =    110.246356    -0.000033    -0.595927   109.650429
	   17 B(1,4,11)       =    105.926575     0.000020     0.180804   106.107380
	   18 B(2,3,5)        =    112.569274     0.000021     0.064932   112.634205
	   19 B(2,3,8)        =    109.336236    -0.000003    -0.073243   109.262993
	   20 B(2,3,9)        =    109.036278     0.000005     0.151499   109.187777
	   21 B(2,4,10)       =    109.678938     0.000002    -0.285281   109.393657
	   22 B(2,4,11)       =    110.305680     0.000020     0.438486   110.744166
	   23 B(3,2,4)        =    113.450427    -0.000102    -0.307007   113.143420
	   24 B(3,2,6)        =    110.180096    -0.000010    -0.190699   109.989397
	   25 B(3,2,7)        =    108.764225     0.000048     0.199874   108.964099
	   26 B(3,5,12)       =    110.944088     0.000003    -0.022332   110.921756
	   27 B(3,5,13)       =    110.886044     0.000071     0.399106   111.285150
	   28 B(3,5,14)       =    110.908829    -0.000002    -0.066552   110.842277
	   29 B(4,1,15)       =    109.921849     0.000146     0.636491   110.558340
	   30 B(4,2,6)        =    108.423515     0.000068     0.288077   108.711591
	   31 B(4,2,7)        =    108.500531     0.000043     0.346788   108.847319
	   32 B(5,3,8)        =    109.619769    -0.000008    -0.029964   109.589806
	   33 B(5,3,9)        =    109.474629    -0.000008     0.050526   109.525155
	   34 B(6,2,7)        =    107.332497    -0.000044    -0.337194   106.995303
	   35 B(8,3,9)        =    106.626404    -0.000010    -0.176811   106.449594
	   36 B(10,4,11)      =    107.961950     0.000007     0.208125   108.170075
	   37 B(12,5,13)      =    108.025223    -0.000040    -0.087728   107.937496
	   38 B(12,5,14)      =    107.938062    -0.000007    -0.167834   107.770228
	   39 B(13,5,14)      =    108.012018    -0.000030    -0.072334   107.939684
	   40 *D(1,4,2,3)     =   -179.730822     0.000000    -0.000000  -179.730822
	   41 D(1,4,2,6)      =     57.528131     0.000007     0.242072    57.770202
	   42 D(1,4,2,7)      =    -58.740719     0.000006     0.298148   -58.442571
	   43 *D(2,3,5,12)    =    -59.872002     0.000000    -0.000000   -59.872002
	   44 D(2,3,5,13)     =   -179.916861     0.000000    -0.140148  -180.057008
	   45 D(2,3,5,14)     =     60.078232    -0.000002    -0.269582    59.808650
	   46 *D(2,4,1,15)    =     30.185379     0.000000    -0.000000    30.185379
	   47 D(3,2,4,10)     =    -56.593667    -0.000012    -0.919743   -57.513410
	   48 D(3,2,4,11)     =     62.193049    -0.000007    -0.572933    61.620117
	   49 *D(4,2,3,5)     =   -179.828640     0.000000    -0.000000  -179.828640
	   50 D(4,2,3,8)      =     58.084186    -0.000001     0.046509    58.130695
	   51 D(4,2,3,9)      =    -58.137948     0.000002     0.214225   -57.923723
	   52 D(5,3,2,6)      =    -58.062557     0.000002     0.018670   -58.043887
	   53 D(5,3,2,7)      =     59.329719    -0.000005    -0.380713    58.949006
	   54 D(6,2,3,8)      =    179.850270     0.000002     0.065179   179.915449
	   55 D(6,2,3,9)      =     63.628135     0.000004     0.232895    63.861030
	   56 D(6,2,4,10)     =   -179.334715    -0.000004    -0.677671  -180.012386
	   57 D(6,2,4,11)     =    -60.547998     0.000001    -0.330861   -60.878859
	   58 D(7,2,3,8)      =    -62.757454    -0.000006    -0.334204   -63.091658
	   59 D(7,2,3,9)      =   -178.979589    -0.000003    -0.166488  -179.146077
	   60 D(7,2,4,10)     =     64.396435    -0.000006    -0.621595    63.774841
	   61 D(7,2,4,11)     =   -176.816848    -0.000001    -0.274785  -177.091633
	   62 D(8,3,5,12)     =     62.054730     0.000001    -0.070891    61.983839
	   63 D(8,3,5,13)     =    -57.990129     0.000001    -0.211039   -58.201167
	   64 D(8,3,5,14)     =   -177.995036    -0.000001    -0.340473  -178.335509
	   65 D(9,3,5,12)     =    178.686540    -0.000004    -0.272373   178.414167
	   66 D(9,3,5,13)     =     58.641681    -0.000003    -0.412521    58.229161
	   67 D(9,3,5,14)     =    -61.363226    -0.000005    -0.541955   -61.905181
	   68 D(10,4,1,15)    =    -92.634137     0.000007     0.746981   -91.887156
	   69 D(11,4,1,15)    =    150.810073     0.000007     0.702256   151.512330
	 ---------------------------------------------------------------------------
	Successfully symmetrized geometry.

  ==> Convergence Check <==

  Measures of convergence in internal coordinates in au.
  Criteria marked as inactive (o), active & met (*), and active & unmet ( ).
  ---------------------------------------------------------------------------------------------
   Step     Total Energy     Delta E     MAX Force     RMS Force      MAX Disp      RMS Disp   
  ---------------------------------------------------------------------------------------------
    Convergence Criteria             o    2.50e-03 *    1.70e-03 *    1.00e-02 *    6.70e-03 *
  ---------------------------------------------------------------------------------------------
      2    -233.58149462   -1.79e-03 o    3.70e-03      6.96e-04 *    1.61e-02      5.60e-03 *  ~
  ---------------------------------------------------------------------------------------------

	Writing optimization data to binary file.
	Structure for next step:
	Cartesian Geometry (in Angstrom)
	    O    -2.4069070961   0.3577160904  -0.3158955001
	    C     0.0597261989   0.2123699664  -0.2350713144
	    C     1.2691972391  -0.4271062430   0.4518937237
	    C    -1.2713163487  -0.2483789581   0.3451785276
	    C     2.5998856326   0.0468892309  -0.1371102706
	    H     0.1182018576   1.3021208299  -0.1570981217
	    H     0.0849434342  -0.0346570513  -1.3045453321
	    H     1.1979994358  -1.5160397872   0.3682291073
	    H     1.2394223773  -0.1958095490   1.5212929560
	    H    -1.3417652939  -1.3394064276   0.2724546154
	    H    -1.3504517003   0.0278160702   1.3958095649
	    H     2.6655135864  -0.1981626981  -1.1996932966
	    H     3.4458842309  -0.4210494376   0.3685131482
	    H     2.7052959364   1.1294008160  -0.0375456457
	    H    -2.1991662764   0.5488598780  -1.2408970366
			--------------------------
			 OPTKING Finished Execution 
			--------------------------

    Structure for next step:
    Molecular point group: c1
    Full point group: C1

    Geometry (in Angstrom), charge = 0, multiplicity = 1:

    O           -2.407027188924     0.357384724260    -0.316332649155
    C            0.059606115756     0.212038599702    -0.235508463072
    C            1.269077160697    -0.427437612204     0.451456577663
    C           -1.271436437040    -0.248710326640     0.344741381194
    C            2.599765559435     0.046557863537    -0.137547418951
    H            0.118081774757     1.301789467422    -0.157535270093
    H            0.084823351160    -0.034988418946    -1.304982485038
    H            1.197879357114    -1.516371160673     0.367791961000
    H            1.239302298827    -0.196140917311     1.520855814206
    H           -1.341885382574    -1.339737800469     0.272017468730
    H           -1.350571788929     0.027484702760     1.395372422649
    H            2.665393513563    -0.198494066426    -1.200130449114
    H            3.445764161134    -0.421380806768     0.368076001864
    H            2.705175863647     1.129069452867    -0.037982793592
    H           -2.199286368442     0.548528512595    -1.241334189306

gradient() will perform analytic gradient computation.

*** tstart() called on daniele-Precision-5750
*** at Thu May 27 11:07:01 2021

   => Loading Basis Set <=

    Name: 6-311G
    Role: ORBITAL
    Keyword: BASIS
    atoms 1    entry O          line   126 file /home/daniele/anaconda3/envs/poltype/share/psi4/basis/6-311g.gbs 
    atoms 2-5  entry C          line    92 file /home/daniele/anaconda3/envs/poltype/share/psi4/basis/6-311g.gbs 
    atoms 6-15 entry H          line    21 file /home/daniele/anaconda3/envs/poltype/share/psi4/basis/6-311g.gbs 


         ---------------------------------------------------------
                                   SCF
               by Justin Turney, Rob Parrish, Andy Simmonett
                          and Daniel G. A. Smith
                              RKS Reference
                        8 Threads,    667 MiB Core
         ---------------------------------------------------------

  ==> Geometry <==

    Molecular point group: c1
    Full point group: C1

    Geometry (in Angstrom), charge = 0, multiplicity = 1:

       Center              X                  Y                   Z               Mass       
    ------------   -----------------  -----------------  -----------------  -----------------
         O           -2.407027188924     0.357384724260    -0.316332649155    15.994914619570
         C            0.059606115756     0.212038599702    -0.235508463072    12.000000000000
         C            1.269077160697    -0.427437612204     0.451456577663    12.000000000000
         C           -1.271436437040    -0.248710326640     0.344741381194    12.000000000000
         C            2.599765559435     0.046557863537    -0.137547418951    12.000000000000
         H            0.118081774757     1.301789467422    -0.157535270093     1.007825032230
         H            0.084823351160    -0.034988418946    -1.304982485038     1.007825032230
         H            1.197879357114    -1.516371160673     0.367791961000     1.007825032230
         H            1.239302298827    -0.196140917311     1.520855814206     1.007825032230
         H           -1.341885382574    -1.339737800469     0.272017468730     1.007825032230
         H           -1.350571788929     0.027484702760     1.395372422649     1.007825032230
         H            2.665393513563    -0.198494066426    -1.200130449114     1.007825032230
         H            3.445764161134    -0.421380806768     0.368076001864     1.007825032230
         H            2.705175863647     1.129069452867    -0.037982793592     1.007825032230
         H           -2.199286368442     0.548528512595    -1.241334189306     1.007825032230

  Running in c1 symmetry.

  Rotational constants: A =      0.61187  B =      0.06522  C =      0.06172 [cm^-1]
  Rotational constants: A =  18343.31431  B =   1955.32611  C =   1850.39296 [MHz]
  Nuclear repulsion =  184.315852365086243

  Charge       = 0
  Multiplicity = 1
  Electrons    = 42
  Nalpha       = 21
  Nbeta        = 21

  ==> Algorithm <==

  SCF Algorithm Type is DF.
  DIIS enabled.
  MOM disabled.
  Fractional occupation disabled.
  Guess Type is READ.
  Energy threshold   = 1.00e-08
  Density threshold  = 1.00e-08
  Integral threshold = 0.00e+00

  ==> Primary Basis <==

  Basis Set: 6-311G
    Blend: 6-311G
    Number of shells: 65
    Number of basis function: 95
    Number of Cartesian functions: 95
    Spherical Harmonics?: true
    Max angular momentum: 1

  ==> DFT Potential <==

   => Composite Functional: WB97X-D <= 

    wB97X-D Hyb-GGA Exchange-Correlation Functional

    J.-D. Chai and M. Head-Gordon, Phys. Chem. Chem. Phys. 10, 6615 (2008)

    Deriv               =              1
    GGA                 =           TRUE
    Meta                =          FALSE

    Exchange Hybrid     =           TRUE
    MP2 Hybrid          =          FALSE

   => Exchange-Correlation Functionals <=

    1.0000   wB97D range-separated functional

   => Exact (HF) Exchange <=

    0.7780            HF,LR [omega = 0.2000]
    0.2220               HF 

   => Molecular Quadrature <=

    Radial Scheme          =       TREUTLER
    Pruning Scheme         =           FLAT
    Nuclear Scheme         =       TREUTLER

    BS radius alpha        =              1
    Pruning alpha          =              1
    Radial Points          =             75
    Spherical Points       =            302
    Total Points           =         336032
    Total Blocks           =           2587
    Max Points             =            256
    Max Functions          =             89

   => WB97X-D: Empirical Dispersion <=

    Chai and Head-Gordon Dispersion Correction
    Chai, J.-D.; Head-Gordon, M. (2010), J. Chem. Phys., 132: 6615-6620

        s6 =       1.000000

   => Loading Basis Set <=

    Name: (6-311G AUX)
    Role: JKFIT
    Keyword: DF_BASIS_SCF
    atoms 1    entry O          line   229 file /home/daniele/anaconda3/envs/poltype/share/psi4/basis/cc-pvtz-jkfit.gbs 
    atoms 2-5  entry C          line   125 file /home/daniele/anaconda3/envs/poltype/share/psi4/basis/cc-pvtz-jkfit.gbs 
    atoms 6-15 entry H          line    51 file /home/daniele/anaconda3/envs/poltype/share/psi4/basis/cc-pvtz-jkfit.gbs 

   => Loading Basis Set <=

    Name: 6-311G
    Role: ORBITAL
    Keyword: BASIS
    atoms 1    entry O          line   126 file /home/daniele/anaconda3/envs/poltype/share/psi4/basis/6-311g.gbs 
    atoms 2-5  entry C          line    92 file /home/daniele/anaconda3/envs/poltype/share/psi4/basis/6-311g.gbs 
    atoms 6-15 entry H          line    21 file /home/daniele/anaconda3/envs/poltype/share/psi4/basis/6-311g.gbs 

  Reading orbitals from file 180, no projection.

  ==> Pre-Iterations <==

   -------------------------------------------------------
    Irrep   Nso     Nmo     Nalpha   Nbeta   Ndocc  Nsocc
   -------------------------------------------------------
     A         95      95       0       0       0       0
   -------------------------------------------------------
    Total      95      95      21      21      21       0
   -------------------------------------------------------

  ==> Integral Setup <==

  ==> DiskDFJK: Density-Fitted J/K Matrices <==

    J tasked:                  Yes
    K tasked:                  Yes
    wK tasked:                 Yes
    Omega:               2.000E-01
    OpenMP threads:              8
    Integrals threads:           8
    Memory [MiB]:               34
    Algorithm:                Disk
    Integral Cache:           NONE
    Schwarz Cutoff:          1E-12
    Fitting Condition:       1E-10

   => Auxiliary Basis Set <=

  Basis Set: (6-311G AUX)
    Blend: CC-PVTZ-JKFIT
    Number of shells: 225
    Number of basis function: 695
    Number of Cartesian functions: 830
    Spherical Harmonics?: true
    Max angular momentum: 4

  Cached 100.0% of DFT collocation blocks in 0.667 [GiB].

  Minimum eigenvalue in the overlap matrix is 2.3021832557E-03.
  Using Symmetric Orthogonalization.

  SCF Guess: Orbitals guess was supplied from a previous computation.

  ==> Iterations <==

                           Total Energy        Delta E     RMS |[F,P]|

   @DF-RKS iter   0:  -233.58069810142598   -2.33581e+02   2.00137e-04 
   @DF-RKS iter   1:  -233.58156498889295   -8.66887e-04   3.99020e-05 DIIS
   @DF-RKS iter   2:  -233.58156925269677   -4.26380e-06   3.86719e-05 DIIS
   @DF-RKS iter   3:  -233.58157390703016   -4.65433e-06   5.62547e-06 DIIS
   @DF-RKS iter   4:  -233.58157407579162   -1.68761e-07   1.40520e-06 DIIS
   @DF-RKS iter   5:  -233.58157408837951   -1.25879e-08   5.77189e-07 DIIS
   @DF-RKS iter   6:  -233.58157409011994   -1.74043e-09   6.74034e-08 DIIS
   @DF-RKS iter   7:  -233.58157409018165   -6.17035e-11   2.51607e-08 DIIS
   @DF-RKS iter   8:  -233.58157409018790   -6.25278e-12   9.43795e-09 DIIS
  Energy and wave function converged.


  ==> Post-Iterations <==

    Orbital Energies [Eh]
    ---------------------

    Doubly Occupied:                                                      

       1A    -19.232532     2A    -10.328905     3A    -10.289022  
       4A    -10.288038     5A    -10.276307     6A     -1.117934  
       7A     -0.907104     8A     -0.826397     9A     -0.736892  
      10A     -0.692328    11A     -0.589013    12A     -0.570114  
      13A     -0.533188    14A     -0.524368    15A     -0.477440  
      16A     -0.469711    17A     -0.457248    18A     -0.428142  
      19A     -0.418186    20A     -0.392230    21A     -0.348635  

    Virtual:                                                              

      22A      0.116993    23A      0.123556    24A      0.144345  
      25A      0.149532    26A      0.169757    27A      0.194378  
      28A      0.207074    29A      0.214942    30A      0.218754  
      31A      0.236893    32A      0.254174    33A      0.297313  
      34A      0.305557    35A      0.319009    36A      0.377884  
      37A      0.392291    38A      0.407891    39A      0.446789  
      40A      0.462034    41A      0.465520    42A      0.491811  
      43A      0.524673    44A      0.600011    45A      0.610175  
      46A      0.648953    47A      0.654816    48A      0.666371  
      49A      0.669346    50A      0.676700    51A      0.685668  
      52A      0.698561    53A      0.706128    54A      0.712704  
      55A      0.718877    56A      0.720466    57A      0.740357  
      58A      0.845680    59A      0.994897    60A      1.012885  
      61A      1.063847    62A      1.066466    63A      1.108107  
      64A      1.129702    65A      1.595322    66A      2.271847  
      67A      2.339697    68A      2.344531    69A      2.346961  
      70A      2.356355    71A      2.363136    72A      2.378363  
      73A      2.383297    74A      2.407497    75A      2.429829  
      76A      2.859339    77A      2.907447    78A      2.913980  
      79A      2.926163    80A      2.949653    81A      2.958590  
      82A      2.982927    83A      3.063636    84A      3.079776  
      85A      3.161772    86A      3.171692    87A      3.306633  
      88A      4.957693    89A      5.014458    90A      5.165685  
      91A     23.422543    92A     23.568589    93A     23.639075  
      94A     23.720269    95A     49.970925  

    Final Occupation by Irrep:
              A 
    DOCC [    21 ]

  @DF-RKS Final Energy:  -233.58157409018790

   => Energetics <=

    Nuclear Repulsion Energy =            184.3158523650862435
[...]
    Fitting Condition:       1E-10

   => Auxiliary Basis Set <=

  Basis Set: (6-311G AUX)
    Blend: CC-PVTZ-JKFIT
    Number of shells: 225
    Number of basis function: 695
    Number of Cartesian functions: 830
    Spherical Harmonics?: true
    Max angular momentum: 4

  ==> DFT Potential <==

   => Composite Functional: WB97X-D <= 

    wB97X-D Hyb-GGA Exchange-Correlation Functional

    J.-D. Chai and M. Head-Gordon, Phys. Chem. Chem. Phys. 10, 6615 (2008)

    Deriv               =              1
    GGA                 =           TRUE
    Meta                =          FALSE

    Exchange Hybrid     =           TRUE
    MP2 Hybrid          =          FALSE

   => Exchange-Correlation Functionals <=

    1.0000   wB97D range-separated functional

   => Exact (HF) Exchange <=

    0.7780            HF,LR [omega = 0.2000]
    0.2220               HF 

   => Molecular Quadrature <=

    Radial Scheme          =       TREUTLER
    Pruning Scheme         =           FLAT
    Nuclear Scheme         =       TREUTLER

    BS radius alpha        =              1
    Pruning alpha          =              1
    Radial Points          =             75
    Spherical Points       =            302
    Total Points           =         336032
    Total Blocks           =           2587
    Max Points             =            256
    Max Functions          =             89


  -Total Gradient:
     Atom            X                  Y                   Z
    ------   -----------------  -----------------  -----------------
       1        0.000140331565    -0.003337642778    -0.001433920466
       2        0.001070539407    -0.001234170597    -0.000325952836
       3       -0.000573766320    -0.000125835802    -0.000386807735
       4       -0.000857363415     0.003082403745     0.001542351452
       5        0.000156725509     0.000098537853    -0.000122873623
       6       -0.000332818031    -0.000238173935     0.000211727444
       7       -0.000117839457    -0.000069401591    -0.000101445852
       8       -0.000009878385     0.000182702771    -0.000084772372
       9        0.000035746196    -0.000066921394    -0.000072695098
      10        0.000240731712     0.000024406634    -0.000182501789
      11        0.000218739470    -0.000149777031     0.000127347011
      12       -0.000082507392     0.000109034533     0.000144886555
      13       -0.000071349462    -0.000015299570    -0.000004570427
      14       -0.000082454028    -0.000204678411     0.000027126717
      15        0.000220879521     0.001905413884     0.000585931684


*** tstop() called on daniele-Precision-5750 at Thu May 27 11:07:05 2021
Module time:
	user time   =      13.32 seconds =       0.22 minutes
	system time =       0.10 seconds =       0.00 minutes
	total time  =          1 seconds =       0.02 minutes
Total time:
	user time   =     117.91 seconds =       1.97 minutes
	system time =       1.85 seconds =       0.03 minutes
	total time  =         15 seconds =       0.25 minutes

			-----------------------------------------
			 OPTKING 2.0: for geometry optimizations 
			  - R.A. King,  Bethel University        
			-----------------------------------------
	At level 1: Red. Int., RFO, no backsteps, dynamic trust

	Previous internal coordinate definitions found.
	---Fragment 1 Geometry and Gradient---
	 O          -4.5486221636        0.6753592503       -0.5977820714
	 C           0.1126392342        0.4006948815       -0.4450464954
	 C           2.3982082658       -0.8077400228        0.8531292893
	 C          -2.4026666519       -0.4699944019        0.6514667946
	 C           4.9128448977        0.0879816111       -0.2599269511
	 H           0.2231422147        2.4600255664       -0.2976985156
	 H           0.1602929027       -0.0661185294       -2.4660594952
	 H           2.2636639163       -2.8655261982        0.6950260774
	 H           2.3419419314       -0.3706526157        2.8740009652
	 H          -2.5357958648       -2.5317375228        0.5140385172
	 H          -2.5522107938        0.0519385609        2.6368717218
	 H           5.0368637572       -0.3750994231       -2.2679178636
	 H           6.5115505575       -0.7962943193        0.6955628369
	 H           5.1120415035        2.1336320425       -0.0717770774
	 H          -4.1560489078        1.0365686608       -2.3457816480
	             0.0001403316       -0.0033376428       -0.0014339205
	             0.0010705394       -0.0012341706       -0.0003259528
	            -0.0005737663       -0.0001258358       -0.0003868077
	            -0.0008573634        0.0030824037        0.0015423515
	             0.0001567255        0.0000985379       -0.0001228736
	            -0.0003328180       -0.0002381739        0.0002117274
	            -0.0001178395       -0.0000694016       -0.0001014459
	            -0.0000098784        0.0001827028       -0.0000847724
	             0.0000357462       -0.0000669214       -0.0000726951
	             0.0002407317        0.0000244066       -0.0001825018
	             0.0002187395       -0.0001497770        0.0001273470
	            -0.0000825074        0.0001090345        0.0001448866
	            -0.0000713495       -0.0000152996       -0.0000045704
	            -0.0000824540       -0.0002046784        0.0000271267
	             0.0002208795        0.0019054139        0.0005859317

	---Fragment 1 Intrafragment Coordinates---
	 - Coordinate -           - BOHR/RAD -       - ANG/DEG -
	 R(1,4)           =         2.734517	       1.447044
	 R(1,15)          =         1.827591	       0.967119
	 R(2,3)           =         2.892992	       1.530905
	 R(2,4)           =         2.878751	       1.523369
	 R(2,6)           =         2.067551	       1.094101
	 R(2,7)           =         2.074772	       1.097922
	 R(3,5)           =         2.892163	       1.530467
	 R(3,8)           =         2.068232	       1.094461
	 R(3,9)           =         2.068365	       1.094532
	 R(4,10)          =         2.070602	       1.095716
	 R(4,11)          =         2.058303	       1.089207
	 R(5,12)          =         2.064425	       1.092447
	 R(5,13)          =         2.061738	       1.091025
	 R(5,14)          =         2.063920	       1.092179
	 B(1,4,2)         =         1.965998	     112.643365
	 B(1,4,10)        =         1.913761	     109.650429
	 B(1,4,11)        =         1.851923	     106.107380
	 B(2,3,5)         =         1.965838	     112.634205
	 B(2,3,8)         =         1.906999	     109.262993
	 B(2,3,9)         =         1.905686	     109.187777
	 B(2,4,10)        =         1.909279	     109.393657
	 B(2,4,11)        =         1.932850	     110.744166
	 B(3,2,4)         =         1.974725	     113.143420
	 B(3,2,6)         =         1.919677	     109.989397
	 B(3,2,7)         =         1.901782	     108.964099
	 B(3,5,12)        =         1.935950	     110.921756
	 B(3,5,13)        =         1.942292	     111.285150
	 B(3,5,14)        =         1.934563	     110.842277
	 B(4,1,15)        =         1.929607	     110.558340
	 B(4,2,6)         =         1.897375	     108.711591
	 B(4,2,7)         =         1.899744	     108.847319
	 B(5,3,8)         =         1.912703	     109.589806
	 B(5,3,9)         =         1.911575	     109.525155
	 B(6,2,7)         =         1.867420	     106.995303
	 B(8,3,9)         =         1.857896	     106.449594
	 B(10,4,11)       =         1.887924	     108.170075
	 B(12,5,13)       =         1.883865	     107.937496
	 B(12,5,14)       =         1.880945	     107.770228
	 B(13,5,14)       =         1.883903	     107.939684
	*D(1,4,2,3)       =        -3.136895	    -179.730822
	 D(1,4,2,6)       =         1.008280	      57.770202
	 D(1,4,2,7)       =        -1.020015	     -58.442571
	*D(2,3,5,12)      =        -1.044964	     -59.872002
	 D(2,3,5,13)      =         3.140598	     179.942992
	 D(2,3,5,14)      =         1.043858	      59.808650
	*D(2,4,1,15)      =         0.526834	      30.185379
	 D(3,2,4,10)      =        -1.003798	     -57.513410
	 D(3,2,4,11)      =         1.075474	      61.620117
	*D(4,2,3,5)       =        -3.138602	    -179.828640
	 D(4,2,3,8)       =         1.014572	      58.130695
	 D(4,2,3,9)       =        -1.010960	     -57.923723
	 D(5,3,2,6)       =        -1.013057	     -58.043887
	 D(5,3,2,7)       =         1.028854	      58.949006
	 D(6,2,3,8)       =         3.140117	     179.915449
	 D(6,2,3,9)       =         1.114585	      63.861030
	 D(6,2,4,10)      =         3.141376	     179.987614
	 D(6,2,4,11)      =        -1.062537	     -60.878859
	 D(7,2,3,8)       =        -1.101157	     -63.091658
	 D(7,2,3,9)       =        -3.126689	    -179.146077
	 D(7,2,4,10)      =         1.113081	      63.774841
	 D(7,2,4,11)      =        -3.090832	    -177.091633
	 D(8,3,5,12)      =         1.081822	      61.983839
	 D(8,3,5,13)      =        -1.015802	     -58.201167
	 D(8,3,5,14)      =        -3.112542	    -178.335509
	 D(9,3,5,12)      =         3.113915	     178.414167
	 D(9,3,5,13)      =         1.016291	      58.229161
	 D(9,3,5,14)      =        -1.080449	     -61.905181
	 D(10,4,1,15)     =        -1.603733	     -91.887156
	 D(11,4,1,15)     =         2.644389	     151.512330

	Current energy   :      -233.5815740902

	Energy change for the previous step:
		Projected    :        -0.0002397633
		Actual       :        -0.0000794695

	Performing BFGS update.
	Previous computed or guess Hessian on step 1.
	Steps to be used in Hessian update: 2 1
	Taking RFO optimization step.
	Going to follow RFO solution 1.
	Using RFO vector 1.
	Norm of target step-size    0.01249
	Projected energy change by RFO approximation:        -0.0000092177

	Back-transformation to cartesian coordinates...
	Successfully converged to displaced geometry.

	Back-transformation to cartesian coordinates to adjust frozen coordinates...
	Successfully converged to displaced geometry.

	--- Internal Coordinate Step in ANG or DEG, aJ/ANG or AJ/DEG ---
	 ---------------------------------------------------------------------------
	   Coordinate                Previous        Force       Change         New 
	   ----------                --------       ------       ------       ------
	    1 R(1,4)          =      1.447044     0.004248     0.001109     1.448153
	    2 R(1,15)         =      0.967119     0.001177     0.000160     0.967280
	    3 R(2,3)          =      1.530905     0.005841     0.001499     1.532405
	    4 R(2,4)          =      1.523369     0.001427    -0.000120     1.523249
	    5 R(2,6)          =      1.094101     0.002011     0.000340     1.094441
	    6 R(2,7)          =      1.097922    -0.000930    -0.000117     1.097805
	    7 R(3,5)          =      1.530467     0.000583     0.000148     1.530615
	    8 R(3,8)          =      1.094461     0.001577     0.000248     1.094709
	    9 R(3,9)          =      1.094532     0.000589     0.000091     1.094623
	   10 R(4,10)         =      1.095716     0.000302    -0.000002     1.095713
	   11 R(4,11)         =      1.089207    -0.000709    -0.000116     1.089091
	   12 R(5,12)         =      1.092447     0.001370     0.000241     1.092688
	   13 R(5,13)         =      1.091025     0.000435     0.000038     1.091063
	   14 R(5,14)         =      1.092179     0.001691     0.000293     1.092473
	   15 B(1,4,2)        =    112.643365    -0.000018    -0.062564   112.580801
	   16 B(1,4,10)       =    109.650429    -0.000005    -0.042918   109.607511
	   17 B(1,4,11)       =    106.107380    -0.000009    -0.166845   105.940535
	   18 B(2,3,5)        =    112.634205     0.000008     0.039303   112.673508
	   19 B(2,3,8)        =    109.262993    -0.000001     0.019667   109.282660
	   20 B(2,3,9)        =    109.187777    -0.000004    -0.032625   109.155152
	   21 B(2,4,10)       =    109.393657     0.000024     0.189027   109.582684
	   22 B(2,4,11)       =    110.744166     0.000014     0.053995   110.798161
	   23 B(3,2,4)        =    113.143420    -0.000018    -0.073858   113.069562
	   24 B(3,2,6)        =    109.989397    -0.000004    -0.057584   109.931813
	   25 B(3,2,7)        =    108.964099    -0.000002    -0.050864   108.913235
	   26 B(3,5,12)       =    110.921756     0.000003     0.014854   110.936610
	   27 B(3,5,13)       =    111.285150     0.000003     0.041717   111.326867
	   28 B(3,5,14)       =    110.842277     0.000005     0.021017   110.863294
	   29 B(4,1,15)       =    110.558340    -0.000059    -0.216351   110.341989
	   30 B(4,2,6)        =    108.711591     0.000023     0.229225   108.940816
	   31 B(4,2,7)        =    108.847319     0.000011     0.059324   108.906642
	   32 B(5,3,8)        =    109.589806     0.000000     0.013862   109.603668
	   33 B(5,3,9)        =    109.525155    -0.000003    -0.008007   109.517147
	   34 B(6,2,7)        =    106.995303    -0.000009    -0.108452   106.886851
	   35 B(8,3,9)        =    106.449594     0.000000    -0.036689   106.412905
	   36 B(10,4,11)      =    108.170075    -0.000008     0.020467   108.190542
	   37 B(12,5,13)      =    107.937496    -0.000002    -0.027366   107.910130
	   38 B(12,5,14)      =    107.770228    -0.000005    -0.026054   107.744174
	   39 B(13,5,14)      =    107.939684    -0.000004    -0.028569   107.911115
	   40 *D(1,4,2,3)     =   -179.730822    -0.000000    -0.000000  -179.730822
	   41 D(1,4,2,6)      =     57.770202     0.000000    -0.042129    57.728073
	   42 D(1,4,2,7)      =    -58.442571    -0.000001    -0.071410   -58.513981
	   43 *D(2,3,5,12)    =    -59.872002    -0.000000    -0.000000   -59.872002
	   44 D(2,3,5,13)     =    179.942992    -0.000000    -0.003312   179.939680
	   45 D(2,3,5,14)     =     59.808650    -0.000000    -0.009156    59.799494
	   46 *D(2,4,1,15)    =     30.185379    -0.000000    -0.000000    30.185379
	   47 D(3,2,4,10)     =    -57.513410    -0.000000     0.037739   -57.475671
	   48 D(3,2,4,11)     =     61.620117     0.000003     0.215940    61.836057
	   49 *D(4,2,3,5)     =   -179.828640    -0.000000    -0.000000  -179.828640
	   50 D(4,2,3,8)      =     58.130695    -0.000001    -0.058182    58.072514
	   51 D(4,2,3,9)      =    -57.923723    -0.000000    -0.006991   -57.930715
	   52 D(5,3,2,6)      =    -58.043887     0.000003     0.202418   -57.841469
	   53 D(5,3,2,7)      =     58.949006    -0.000000     0.009240    58.958246
	   54 D(6,2,3,8)      =    179.915449     0.000002     0.144236   180.059685
	   55 D(6,2,3,9)      =     63.861030     0.000003     0.195427    64.056457
	   56 D(6,2,4,10)     =    179.987614     0.000000    -0.004391   179.983223
	   57 D(6,2,4,11)     =    -60.878859     0.000003     0.173811   -60.705049
	   58 D(7,2,3,8)      =    -63.091658    -0.000001    -0.048942   -63.140600
	   59 D(7,2,3,9)      =   -179.146077    -0.000001     0.002248  -179.143828
	   60 D(7,2,4,10)     =     63.774841    -0.000002    -0.033671    63.741169
	   61 D(7,2,4,11)     =   -177.091633     0.000001     0.144530  -176.947102
	   62 D(8,3,5,12)     =     61.983839     0.000001     0.061718    62.045557
	   63 D(8,3,5,13)     =    -58.201167     0.000001     0.058406   -58.142761
	   64 D(8,3,5,14)     =   -178.335509     0.000001     0.052561  -178.282948
	   65 D(9,3,5,12)     =    178.414167     0.000001     0.020813   178.434980
	   66 D(9,3,5,13)     =     58.229161     0.000000     0.017501    58.246662
	   67 D(9,3,5,14)     =    -61.905181     0.000000     0.011656   -61.893525
	   68 D(10,4,1,15)    =    -91.887156    -0.000004    -0.168606   -92.055763
	   69 D(11,4,1,15)    =    151.512330     0.000000    -0.080714   151.431616
	 ---------------------------------------------------------------------------
	Successfully symmetrized geometry.

  ==> Convergence Check <==

  Measures of convergence in internal coordinates in au.
  Criteria marked as inactive (o), active & met (*), and active & unmet ( ).
  ---------------------------------------------------------------------------------------------
   Step     Total Energy     Delta E     MAX Force     RMS Force      MAX Disp      RMS Disp   
  ---------------------------------------------------------------------------------------------
    Convergence Criteria             o    2.50e-03 *    1.70e-03 *    1.00e-02 *    6.70e-03 *
  ---------------------------------------------------------------------------------------------
      3    -233.58157409   -7.95e-05 o    7.72e-04 *    1.81e-04 *    4.00e-03 *    1.50e-03 *  ~
  ---------------------------------------------------------------------------------------------


  **** Optimization is complete! (in 3 steps) ****

  ==> Optimization Summary <==

  Measures of convergence in internal coordinates in au.
  --------------------------------------------------------------------------------------------------------------- ~
   Step         Total Energy             Delta E       MAX Force       RMS Force        MAX Disp        RMS Disp  ~
  --------------------------------------------------------------------------------------------------------------- ~
      1    -233.579702615993   -233.579702615993      0.01243966      0.00340012      0.07956394      0.02135992  ~
      2    -233.581494620662     -0.001792004669      0.00370190      0.00069567      0.01605254      0.00559878  ~
      3    -233.581574090188     -0.000079469526      0.00077157      0.00018126      0.00400072      0.00150428  ~
  --------------------------------------------------------------------------------------------------------------- ~

	Writing optimization data to binary file.
	Final energy is   -233.5815740901879
	Final (previous) structure:
	Cartesian Geometry (in Angstrom)
	    O    -2.4070271795   0.3573847229  -0.3163326479
	    C     0.0596061155   0.2120385989  -0.2355084621
	    C     1.2690771557  -0.4274376105   0.4514565759
	    C    -1.2714364320  -0.2487103257   0.3447413798
	    C     2.5997655492   0.0465578634  -0.1375474184
	    H     0.1180817743   1.3017894623  -0.1575352695
	    H     0.0848233508  -0.0349884188  -1.3049824799
	    H     1.1978793524  -1.5163711547   0.3677919596
	    H     1.2393022940  -0.1961409165   1.5208558082
	    H    -1.3418853773  -1.3397377952   0.2720174677
	    H    -1.3505717836   0.0274847027   1.3953724172
	    H     2.6653935031  -0.1984940656  -1.2001304444
	    H     3.4457641476  -0.4213808051   0.3680760004
	    H     2.7051758530   1.1290694484  -0.0379827934
	    H    -2.1992863598   0.5485285104  -1.2413341844
	Saving final (previous) structure.
			--------------------------
			 OPTKING Finished Execution 
			--------------------------

    Final optimized geometry and variables:
    Molecular point group: c1
    Full point group: C1

    Geometry (in Angstrom), charge = 0, multiplicity = 1:

    O           -2.407027188924     0.357384724260    -0.316332649155
    C            0.059606115756     0.212038599702    -0.235508463072
    C            1.269077160697    -0.427437612204     0.451456577663
    C           -1.271436437040    -0.248710326640     0.344741381194
    C            2.599765559435     0.046557863537    -0.137547418951
    H            0.118081774757     1.301789467422    -0.157535270093
    H            0.084823351160    -0.034988418946    -1.304982485038
    H            1.197879357114    -1.516371160673     0.367791961000
    H            1.239302298827    -0.196140917311     1.520855814206
    H           -1.341885382574    -1.339737800469     0.272017468730
    H           -1.350571788929     0.027484702760     1.395372422649
    H            2.665393513563    -0.198494066426    -1.200130449114
    H            3.445764161134    -0.421380806768     0.368076001864
    H            2.705175863647     1.129069452867    -0.037982793592
    H           -2.199286368442     0.548528512595    -1.241334189306

	Removing binary optimization data file.
	Cleaning optimization helper files.

    Psi4 stopped on: Thursday, 27 May 2021 11:07AM
    Psi4 wall time for execution: 0:00:15.73

*** Psi4 exiting successfully. Buy a developer a beer!
