
    -----------------------------------------------------------------------
          Psi4: An Open-Source Ab Initio Electronic Structure Package
                               Psi4 1.3.2 release

                         Git: Rev {HEAD} ecbda83 


    R. M. Parrish, L. A. Burns, D. G. A. Smith, A. C. Simmonett,
    A. E. DePrince III, E. G. Hohenstein, U. Bozkaya, A. Yu. Sokolov,
    R. Di Remigio, R. M. Richard, J. F. Gonthier, A. M. James,
    H. R. McAlexander, A. Kumar, M. Saitow, X. Wang, B. P. Pritchard,
    P. Verma, H. F. Schaefer III, K. Patkowski, R. A. King, E. F. Valeev,
    F. A. Evangelista, J. M. Turney, T. D. Crawford, and C. D. Sherrill,
    J. Chem. Theory Comput. 13(7) pp 3185--3197 (2017).
    (doi: 10.1021/acs.jctc.7b00174)


                         Additional Contributions by
    P. Kraus, H. Kruse, M. H. Lechner, M. C. Schieber, R. A. Shaw,
    A. Alenaizan, R. Galvelis, Z. L. Glick, S. Lehtola, and J. P. Misiewicz

    -----------------------------------------------------------------------


    Psi4 started on: Thursday, 27 May 2021 11:33AM

    Process ID: 228300
    Host:       daniele-Precision-5750
    PSIDATADIR: /home/daniele/anaconda3/envs/poltype/share/psi4
    Memory:     500.0 MiB
    Threads:    1
    
  ==> Input File <==

--------------------------------------------------------------------------
molecule { 
0 1
 O   -2.407027    0.357385   -0.316333
 C    0.059606    0.212039   -0.235508
 C    1.269077   -0.427438    0.451457
 C   -1.271436   -0.248710    0.344741
 C    2.599766    0.046558   -0.137547
 H    0.118082    1.301789   -0.157535
 H    0.084823   -0.034988   -1.304982
 H    1.197879   -1.516371    0.367792
 H    1.239302   -0.196141    1.520856
 H   -1.341885   -1.339738    0.272017
 H   -1.350572    0.027485    1.395372
 H    2.665394   -0.198494   -1.200130
 H    3.445764   -0.421381    0.368076
 H    2.705176    1.129069   -0.037983
 H   -2.199286    0.548529   -1.241334
}
memory 700MB
set_num_threads(8)
psi4_io.set_default_path("/home/daniele/PSI4_sctatch/Psi4-1butanol_3D")
set freeze_core True
E, wfn = energy('wb97x-d/6-311+G*',return_wfn=True)
oeprop(wfn,"WIBERG_LOWDIN_INDICES")
clean()
--------------------------------------------------------------------------

  Memory set to 667.572 MiB by Python driver.
  Threads set to 8 by Python driver.

*** tstart() called on daniele-Precision-5750
*** at Thu May 27 11:33:59 2021

   => Loading Basis Set <=

    Name: 6-311+G*
    Role: ORBITAL
    Keyword: BASIS
    atoms 1    entry O          line   172 file /home/daniele/anaconda3/envs/poltype/share/psi4/basis/6-311pgs.gbs 
    atoms 2-5  entry C          line   130 file /home/daniele/anaconda3/envs/poltype/share/psi4/basis/6-311pgs.gbs 
    atoms 6-15 entry H          line    47 file /home/daniele/anaconda3/envs/poltype/share/psi4/basis/6-311pgs.gbs 


         ---------------------------------------------------------
                                   SCF
               by Justin Turney, Rob Parrish, Andy Simmonett
                          and Daniel G. A. Smith
                              RKS Reference
                        8 Threads,    667 MiB Core
         ---------------------------------------------------------

  ==> Geometry <==

    Molecular point group: c1
    Full point group: C1

    Geometry (in Angstrom), charge = 0, multiplicity = 1:

       Center              X                  Y                   Z               Mass       
    ------------   -----------------  -----------------  -----------------  -----------------
         O           -2.407027141173     0.357384862934    -0.316333080852    15.994914619570
         C            0.059605858827     0.212038862934    -0.235508080852    12.000000000000
         C            1.269076858827    -0.427438137066     0.451456919148    12.000000000000
         C           -1.271436141173    -0.248710137066     0.344740919148    12.000000000000
         C            2.599765858827     0.046557862934    -0.137547080852    12.000000000000
         H            0.118081858827     1.301788862934    -0.157535080852     1.007825032230
         H            0.084822858827    -0.034988137066    -1.304982080852     1.007825032230
         H            1.197878858827    -1.516371137066     0.367791919148     1.007825032230
         H            1.239301858827    -0.196141137066     1.520855919148     1.007825032230
         H           -1.341885141173    -1.339738137066     0.272016919148     1.007825032230
         H           -1.350572141173     0.027484862934     1.395371919148     1.007825032230
         H            2.665393858827    -0.198494137066    -1.200130080852     1.007825032230
         H            3.445763858827    -0.421381137066     0.368075919148     1.007825032230
         H            2.705175858827     1.129068862934    -0.037983080852     1.007825032230
         H           -2.199286141173     0.548528862934    -1.241334080852     1.007825032230

  Running in c1 symmetry.

  Rotational constants: A =      0.61187  B =      0.06522  C =      0.06172 [cm^-1]
  Rotational constants: A =  18343.31621  B =   1955.32614  C =   1850.39297 [MHz]
  Nuclear repulsion =  184.315861257556577

  Charge       = 0
  Multiplicity = 1
  Electrons    = 42
  Nalpha       = 21
  Nbeta        = 21

  ==> Algorithm <==

  SCF Algorithm Type is DF.
  DIIS enabled.
  MOM disabled.
  Fractional occupation disabled.
  Guess Type is SAD.
  Energy threshold   = 1.00e-06
  Density threshold  = 1.00e-06
  Integral threshold = 0.00e+00

  ==> Primary Basis <==

  Basis Set: 6-311+G*
    Blend: 6-311+G*
    Number of shells: 80
    Number of basis function: 140
    Number of Cartesian functions: 145
    Spherical Harmonics?: true
    Max angular momentum: 2

  ==> DFT Potential <==

   => Composite Functional: WB97X-D <= 

    wB97X-D Hyb-GGA Exchange-Correlation Functional

    J.-D. Chai and M. Head-Gordon, Phys. Chem. Chem. Phys. 10, 6615 (2008)

    Deriv               =              1
    GGA                 =           TRUE
    Meta                =          FALSE

    Exchange Hybrid     =           TRUE
    MP2 Hybrid          =          FALSE

   => Exchange-Correlation Functionals <=

    1.0000   wB97D range-separated functional

   => Exact (HF) Exchange <=

    0.7780            HF,LR [omega = 0.2000]
    0.2220               HF 

   => Molecular Quadrature <=

    Radial Scheme          =       TREUTLER
    Pruning Scheme         =           FLAT
    Nuclear Scheme         =       TREUTLER

    BS radius alpha        =              1
    Pruning alpha          =              1
    Radial Points          =             75
    Spherical Points       =            302
    Total Points           =         339750
    Total Blocks           =           2613
    Max Points             =            256
    Max Functions          =            132

   => WB97X-D: Empirical Dispersion <=

    Chai and Head-Gordon Dispersion Correction
    Chai, J.-D.; Head-Gordon, M. (2010), J. Chem. Phys., 132: 6615-6620

        s6 =       1.000000

   => Loading Basis Set <=

    Name: (6-311+G* AUX)
    Role: JKFIT
    Keyword: DF_BASIS_SCF
    atoms 1    entry O          line   324 file /home/daniele/anaconda3/envs/poltype/share/psi4/basis/heavy-aug-cc-pvtz-jkfit.gbs 
    atoms 2-5  entry C          line   200 file /home/daniele/anaconda3/envs/poltype/share/psi4/basis/heavy-aug-cc-pvtz-jkfit.gbs 
    atoms 6-15 entry H          line   116 file /home/daniele/anaconda3/envs/poltype/share/psi4/basis/heavy-aug-cc-pvtz-jkfit.gbs 

  ==> Pre-Iterations <==

   -------------------------------------------------------
    Irrep   Nso     Nmo     Nalpha   Nbeta   Ndocc  Nsocc
   -------------------------------------------------------
     A        140     140       0       0       0       0
   -------------------------------------------------------
    Total     140     140      21      21      21       0
   -------------------------------------------------------

  ==> Integral Setup <==

  ==> DiskDFJK: Density-Fitted J/K Matrices <==

    J tasked:                  Yes
    K tasked:                  Yes
    wK tasked:                 Yes
    Omega:               2.000E-01
    OpenMP threads:              8
    Integrals threads:           8
    Memory [MiB]:               76
    Algorithm:                Disk
    Integral Cache:           NONE
    Schwarz Cutoff:          1E-12
    Fitting Condition:       1E-10

   => Auxiliary Basis Set <=

  Basis Set: (6-311+G* AUX)
    Blend: HEAVY-AUG-CC-PVTZ-JKFIT
    Number of shells: 250
    Number of basis function: 820
    Number of Cartesian functions: 1005
    Spherical Harmonics?: true
    Max angular momentum: 4

  Cached 50.0% of DFT collocation blocks in 0.525 [GiB].

  Minimum eigenvalue in the overlap matrix is 2.4950773883E-05.
  Using Symmetric Orthogonalization.

  SCF Guess: Superposition of Atomic Densities via on-the-fly atomic UHF.

  ==> Iterations <==

                           Total Energy        Delta E     RMS |[F,P]|

   @DF-RKS iter SAD:  -232.92369969751763   -2.32924e+02   0.00000e+00 
   @DF-RKS iter   1:  -233.26322533201417   -3.39526e-01   6.31111e-03 DIIS
   @DF-RKS iter   2:  -233.39076089188427   -1.27536e-01   5.51901e-03 DIIS
   @DF-RKS iter   3:  -233.64265078125894   -2.51890e-01   6.41165e-04 DIIS
   @DF-RKS iter   4:  -233.64520279693053   -2.55202e-03   2.88147e-04 DIIS
   @DF-RKS iter   5:  -233.64586741061993   -6.64614e-04   4.04258e-05 DIIS
   @DF-RKS iter   6:  -233.64588614729431   -1.87367e-05   1.44449e-05 DIIS
   @DF-RKS iter   7:  -233.64588816821455   -2.02092e-06   3.22877e-06 DIIS
   @DF-RKS iter   8:  -233.64588829982441   -1.31610e-07   5.32232e-07 DIIS
  Energy and wave function converged.


  ==> Post-Iterations <==

    Orbital Energies [Eh]
    ---------------------

    Doubly Occupied:                                                      

       1A    -19.242759     2A    -10.327355     3A    -10.286828  
       4A    -10.285609     5A    -10.275124     6A     -1.115073  
       7A     -0.903896     8A     -0.823452     9A     -0.734685  
      10A     -0.689456    11A     -0.589640    12A     -0.570513  
      13A     -0.532134    14A     -0.523979    15A     -0.478049  
      16A     -0.473498    17A     -0.457532    18A     -0.427930  
      19A     -0.419452    20A     -0.400589    21A     -0.357317  

    Virtual:                                                              

      22A      0.066295    23A      0.073342    24A      0.082837  
      25A      0.089538    26A      0.105446    27A      0.111794  
      28A      0.119548    29A      0.124414    30A      0.131516  
      31A      0.140429    32A      0.153532    33A      0.163617  
      34A      0.170591    35A      0.198333    36A      0.207437  
      37A      0.226474    38A      0.230809    39A      0.238085  
      40A      0.249768    41A      0.262927    42A      0.266939  
      43A      0.276328    44A      0.282747    45A      0.291904  
      46A      0.293292    47A      0.318273    48A      0.323400  
      49A      0.334664    50A      0.338748    51A      0.350755  
      52A      0.355554    53A      0.370446    54A      0.396224  
      55A      0.415196    56A      0.475504    57A      0.487347  
      58A      0.494249    59A      0.523765    60A      0.547933  
      61A      0.569721    62A      0.605552    63A      0.622583  
      64A      0.668261    65A      0.679693    66A      0.703010  
      67A      0.714966    68A      0.725933    69A      0.730798  
      70A      0.746408    71A      0.753067    72A      0.759371  
      73A      0.763900    74A      0.776507    75A      0.809614  
      76A      0.820453    77A      0.845336    78A      0.948437  
      79A      1.064707    80A      1.091398    81A      1.104714  
      82A      1.145844    83A      1.161189    84A      1.211206  
      85A      1.262593    86A      1.288027    87A      1.416323  
      88A      1.470113    89A      1.578825    90A      1.604482  
      91A      1.614628    92A      1.635025    93A      1.676934  
      94A      1.689034    95A      1.711304    96A      1.736590  
      97A      1.762708    98A      1.793937    99A      1.887259  
     100A      1.895187   101A      1.898045   102A      1.987730  
     103A      2.033825   104A      2.241189   105A      2.259728  
     106A      2.342156   107A      2.542201   108A      2.578752  
     109A      2.593990   110A      2.596329   111A      2.603559  
     112A      2.634619   113A      2.653883   114A      2.690729  
     115A      2.707805   116A      2.900703   117A      2.960406  
     118A      3.014337   119A      3.041359   120A      3.085562  
     121A      3.102355   122A      3.202614   123A      3.228745  
     124A      3.267634   125A      3.309082   126A      3.318451  
     127A      3.360224   128A      3.467918   129A      3.685696  
     130A      3.870302   131A      4.048066   132A      4.184918  
     133A      5.130265   134A      5.241820   135A      5.532130  
     136A     23.551402   137A     23.716936   138A     23.800606  
     139A     23.852080   140A     50.008056  

    Final Occupation by Irrep:
              A 
    DOCC [    21 ]

  @DF-RKS Final Energy:  -233.64588829982441

   => Energetics <=

    Nuclear Repulsion Energy =            184.3158612575565769
    One-Electron Energy =                -680.3762205482287300
    Two-Electron Energy =                 285.6629061172584443
    DFT Exchange-Correlation Energy =     -23.2413071363146955
    Empirical Dispersion Energy =          -0.0071279900959845
    VV10 Nonlocal Energy =                  0.0000000000000000
    Total Energy =                       -233.6458882998244349

Computation Completed


Properties will be evaluated at   0.000000,   0.000000,   0.000000 [a0]

Properties computed using the SCF density matrix

  Nuclear Dipole Moment: [e a0]
     X:     6.1426      Y:    -0.6547      Z:    -0.0183

  Electronic Dipole Moment: [e a0]
     X:    -5.3269      Y:     0.5066      Z:    -0.2674

  Dipole Moment: [e a0]
     X:     0.8157      Y:    -0.1481      Z:    -0.2856     Total:     0.8768

  Dipole Moment: [D]
     X:     2.0733      Y:    -0.3765      Z:    -0.7259     Total:     2.2287


*** tstop() called on daniele-Precision-5750 at Thu May 27 11:34:06 2021
Module time:
	user time   =      50.85 seconds =       0.85 minutes
	system time =       1.77 seconds =       0.03 minutes
	total time  =          7 seconds =       0.12 minutes
Total time:
	user time   =      50.85 seconds =       0.85 minutes
	system time =       1.77 seconds =       0.03 minutes
	total time  =          7 seconds =       0.12 minutes


Properties will be evaluated at   0.000000,   0.000000,   0.000000 [a0]
OEProp: No title given, name of density matrix used for the following properties is 'SCF density'


  Wiberg Bond Indices using Orthogonal Lowdin Orbitals:

  Irrep: 1 Size: 15 x 15

                 1                   2                   3                   4                   5

    1     0.00000000000000     0.12386573887129     0.02222323211082     1.32219942619761     0.00333531451009
    2     0.12386573887129     0.00000000000000     1.14695841371646     1.15847185077590     0.11480808421802
    3     0.02222323211082     1.14695841371646     0.00000000000000     0.11891971722481     1.20370481524220
    4     1.32219942619761     1.15847185077590     0.11891971722481     0.00000000000000     0.02123900192742
    5     0.00333531451009     0.11480808421802     1.20370481524220     0.02123900192742     0.00000000000000
    6     0.01112847250530     0.85699505904481     0.03812583309386     0.03916295732769     0.01333543710751
    7     0.01285906974511     0.85499911464258     0.03816710968429     0.04034027592410     0.01349607821742
    8     0.00114821292018     0.03997197195126     0.86572185749011     0.01406651967116     0.03911960709305
    9     0.00079158720689     0.03980504082241     0.86555551775802     0.01402463758466     0.03918247187032
   10     0.05226948690568     0.04235511542508     0.01435385748474     0.86454691763648     0.00158238222475
   11     0.04735726379418     0.03940557765175     0.01233807652075     0.86566797744952     0.00136953887500
   12     0.00016227120330     0.01446979310732     0.04161041822100     0.00162985468828     0.90996464218786
   13     0.00049751652274     0.01186047870479     0.04784329754940     0.00155283164608     0.91455064441816
   14     0.00014405650939     0.01447506793233     0.04155573231411     0.00163276765071     0.90982115581034
   15     0.85799563883422     0.01680247324943     0.00242796974643     0.03369953533782     0.00035222902284

                 6                   7                   8                   9                  10

    1     0.01112847250530     0.01285906974511     0.00114821292018     0.00079158720689     0.05226948690568
    2     0.85699505904481     0.85499911464258     0.03997197195126     0.03980504082241     0.04235511542508
    3     0.03812583309386     0.03816710968429     0.86572185749011     0.86555551775802     0.01435385748474
    4     0.03916295732769     0.04034027592410     0.01406651967116     0.01402463758466     0.86454691763648
    5     0.01333543710751     0.01349607821742     0.03911960709305     0.03918247187032     0.00158238222475
    6     0.00000000000000     0.00682176096207     0.00903218129165     0.00411906526629     0.00897082687304
    7     0.00682176096207     0.00000000000000     0.00426664740468     0.00903679654357     0.00506901908772
    8     0.00903218129165     0.00426664740468     0.00000000000000     0.00715519684030     0.00147856040328
    9     0.00411906526629     0.00903679654357     0.00715519684030     0.00000000000000     0.00044337776948
   10     0.00897082687304     0.00506901908772     0.00147856040328     0.00044337776948     0.00000000000000
   11     0.00481633142843     0.00900016516925     0.00037577105408     0.00116295665121     0.00777873920629
   12     0.00045018285820     0.00112174157308     0.00378881434636     0.00991370657800     0.00001858574216
   13     0.00036668700996     0.00035978050398     0.00312150702203     0.00312337206335     0.00010714854619
   14     0.00111507361591     0.00044483017968     0.00989847212138     0.00379822702393     0.00024175595795
   15     0.00077621075818     0.00244283007170     0.00006105142109     0.00028873938120     0.00121897347949

                11                  12                  13                  14                  15

    1     0.04735726379418     0.00016227120330     0.00049751652274     0.00014405650939     0.85799563883422
    2     0.03940557765175     0.01446979310732     0.01186047870479     0.01447506793233     0.01680247324943
    3     0.01233807652075     0.04161041822100     0.04784329754940     0.04155573231411     0.00242796974643
    4     0.86566797744952     0.00162985468828     0.00155283164608     0.00163276765071     0.03369953533782
    5     0.00136953887500     0.90996464218786     0.91455064441816     0.90982115581034     0.00035222902284
    6     0.00481633142843     0.00045018285820     0.00036668700996     0.00111507361591     0.00077621075818
    7     0.00900016516925     0.00112174157308     0.00035978050398     0.00044483017968     0.00244283007170
    8     0.00037577105408     0.00378881434636     0.00312150702203     0.00989847212138     0.00006105142109
    9     0.00116295665121     0.00991370657800     0.00312337206335     0.00379822702393     0.00028873938120
   10     0.00777873920629     0.00001858574216     0.00010714854619     0.00024175595795     0.00121897347949
   11     0.00000000000000     0.00020766881352     0.00008103402324     0.00002119637908     0.00761374747484
   12     0.00020766881352     0.00000000000000     0.00955654841458     0.00811525849932     0.00003085645117
   13     0.00008103402324     0.00955654841458     0.00000000000000     0.00957709989981     0.00005205754474
   14     0.00002119637908     0.00811525849932     0.00957709989981     0.00000000000000     0.00004644274985
   15     0.00761374747484     0.00003085645117     0.00005205754474     0.00004644274985     0.00000000000000



  Atomic Valences: 

 #  #
 Irrep: 1
      1:  2.4559773
      2:  4.4752438
      3:  4.4595058
      4:  4.4971543
      5:  4.1858614
      6:  0.9952161
      7:  0.9984252
      8:  0.9992064
      9:  0.9984007
     10:  1.0004347
     11:  0.9971960
     12:  1.0010403
     13:  1.0026500
     14:  1.0008871
     15:  0.9238088


    Psi4 stopped on: Thursday, 27 May 2021 11:34AM
    Psi4 wall time for execution: 0:00:07.32

*** Psi4 exiting successfully. Buy a developer a beer!
