
    -----------------------------------------------------------------------
          Psi4: An Open-Source Ab Initio Electronic Structure Package
                               Psi4 1.3.2 release

                         Git: Rev {HEAD} ecbda83 


    R. M. Parrish, L. A. Burns, D. G. A. Smith, A. C. Simmonett,
    A. E. DePrince III, E. G. Hohenstein, U. Bozkaya, A. Yu. Sokolov,
    R. Di Remigio, R. M. Richard, J. F. Gonthier, A. M. James,
    H. R. McAlexander, A. Kumar, M. Saitow, X. Wang, B. P. Pritchard,
    P. Verma, H. F. Schaefer III, K. Patkowski, R. A. King, E. F. Valeev,
    F. A. Evangelista, J. M. Turney, T. D. Crawford, and C. D. Sherrill,
    J. Chem. Theory Comput. 13(7) pp 3185--3197 (2017).
    (doi: 10.1021/acs.jctc.7b00174)


                         Additional Contributions by
    P. Kraus, H. Kruse, M. H. Lechner, M. C. Schieber, R. A. Shaw,
    A. Alenaizan, R. Galvelis, Z. L. Glick, S. Lehtola, and J. P. Misiewicz

    -----------------------------------------------------------------------


    Psi4 started on: Thursday, 27 May 2021 11:03AM

    Process ID: 225894
    Host:       daniele-Precision-5750
    PSIDATADIR: /home/daniele/anaconda3/envs/poltype/share/psi4
    Memory:     500.0 MiB
    Threads:    1
    
  ==> Input File <==

--------------------------------------------------------------------------
molecule { 
0 1
 O   -2.339045    0.422659   -0.463708
 C    0.042165    0.239022   -0.194077
 C    1.249069   -0.406395    0.534189
 C   -1.336319   -0.249064    0.303232
 C    2.618864    0.092864    0.031183
 H    0.080556    1.330396   -0.079038
 H    0.107674    0.037251   -1.271405
 H    1.204179   -1.497636    0.420258
 H    1.173934   -0.209736    1.611790
 H   -1.411461   -1.337703    0.183053
 H   -1.456139   -0.036684    1.372637
 H    2.751227   -0.119834   -1.035118
 H    3.433553   -0.398325    0.573837
 H    2.724913    1.173041    0.178923
 H   -3.118095   -0.160948   -0.530335
}
set optking { 
  frozen_dihedral = ("
    2 4 1 15
    4 2 3 5
    3 2 4 1
    12 5 3 2
  ")
}
set {
  geom_maxiter 400
  g_convergence GAU_LOOSE
  dynamic_level 1
}
memory 700MB
set_num_threads(8)
psi4_io.set_default_path("/home/daniele/PSI4_sctatch/Psi4-1butanol_3D")
for _ in range(1):
  try:
    set opt_coordinates both
    optimize('wb97x-d/6-311G')
    break
  except OptimizationConvergenceError:
    break
  else:
    try:
      set opt_coordinates cartesian
      optimize('wb97x-d/6-311G')
      break
    except OptimizationConvergenceError:
      pass
clean()
--------------------------------------------------------------------------

  Memory set to 667.572 MiB by Python driver.
  Threads set to 8 by Python driver.
gradient() will perform analytic gradient computation.

*** tstart() called on daniele-Precision-5750
*** at Thu May 27 11:03:07 2021

   => Loading Basis Set <=

    Name: 6-311G
    Role: ORBITAL
    Keyword: BASIS
    atoms 1    entry O          line   126 file /home/daniele/anaconda3/envs/poltype/share/psi4/basis/6-311g.gbs 
    atoms 2-5  entry C          line    92 file /home/daniele/anaconda3/envs/poltype/share/psi4/basis/6-311g.gbs 
    atoms 6-15 entry H          line    21 file /home/daniele/anaconda3/envs/poltype/share/psi4/basis/6-311g.gbs 


         ---------------------------------------------------------
                                   SCF
               by Justin Turney, Rob Parrish, Andy Simmonett
                          and Daniel G. A. Smith
                              RKS Reference
                        8 Threads,    667 MiB Core
         ---------------------------------------------------------

  ==> Geometry <==

    Molecular point group: c1
    Full point group: C1

    Geometry (in Angstrom), charge = 0, multiplicity = 1:

       Center              X                  Y                   Z               Mass       
    ------------   -----------------  -----------------  -----------------  -----------------
         O           -2.325623486665     0.400413525714    -0.492235249913    15.994914619570
         C            0.055586513335     0.216776525714    -0.222604249913    12.000000000000
         C            1.262490513335    -0.428640474286     0.505661750087    12.000000000000
         C           -1.322897486665    -0.271309474286     0.274704750087    12.000000000000
         C            2.632285513335     0.070618525714     0.002655750087    12.000000000000
         H            0.093977513335     1.308150525714    -0.107565249913     1.007825032230
         H            0.121095513335     0.015005525714    -1.299932249913     1.007825032230
         H            1.217600513335    -1.519881474286     0.391730750087     1.007825032230
         H            1.187355513335    -0.231981474286     1.583262750087     1.007825032230
         H           -1.398039486665    -1.359948474286     0.154525750087     1.007825032230
         H           -1.442717486665    -0.058929474286     1.344109750087     1.007825032230
         H            2.764648513335    -0.142079474286    -1.063645249913     1.007825032230
         H            3.446974513335    -0.420570474286     0.545309750087     1.007825032230
         H            2.738334513335     1.150795525714     0.150395750087     1.007825032230
         H           -3.104673486665    -0.183193474286    -0.558862249913     1.007825032230

  Running in c1 symmetry.

  Rotational constants: A =      0.61582  B =      0.06406  C =      0.06073 [cm^-1]
  Rotational constants: A =  18461.71660  B =   1920.49398  C =   1820.61415 [MHz]
  Nuclear repulsion =  183.052589389889278

  Charge       = 0
  Multiplicity = 1
  Electrons    = 42
  Nalpha       = 21
  Nbeta        = 21

  ==> Algorithm <==

  SCF Algorithm Type is DF.
  DIIS enabled.
  MOM disabled.
  Fractional occupation disabled.
  Guess Type is SAD.
  Energy threshold   = 1.00e-08
  Density threshold  = 1.00e-08
  Integral threshold = 0.00e+00

  ==> Primary Basis <==

  Basis Set: 6-311G
    Blend: 6-311G
    Number of shells: 65
    Number of basis function: 95
    Number of Cartesian functions: 95
    Spherical Harmonics?: true
    Max angular momentum: 1

  ==> DFT Potential <==

   => Composite Functional: WB97X-D <= 

    wB97X-D Hyb-GGA Exchange-Correlation Functional

    J.-D. Chai and M. Head-Gordon, Phys. Chem. Chem. Phys. 10, 6615 (2008)

    Deriv               =              1
    GGA                 =           TRUE
    Meta                =          FALSE

    Exchange Hybrid     =           TRUE
    MP2 Hybrid          =          FALSE

   => Exchange-Correlation Functionals <=

    1.0000   wB97D range-separated functional

   => Exact (HF) Exchange <=

    0.7780            HF,LR [omega = 0.2000]
    0.2220               HF 

   => Molecular Quadrature <=

    Radial Scheme          =       TREUTLER
    Pruning Scheme         =           FLAT
    Nuclear Scheme         =       TREUTLER

    BS radius alpha        =              1
    Pruning alpha          =              1
    Radial Points          =             75
    Spherical Points       =            302
    Total Points           =         336081
    Total Blocks           =           2569
    Max Points             =            256
    Max Functions          =             89

   => WB97X-D: Empirical Dispersion <=

    Chai and Head-Gordon Dispersion Correction
    Chai, J.-D.; Head-Gordon, M. (2010), J. Chem. Phys., 132: 6615-6620

        s6 =       1.000000

   => Loading Basis Set <=

    Name: (6-311G AUX)
    Role: JKFIT
    Keyword: DF_BASIS_SCF
    atoms 1    entry O          line   229 file /home/daniele/anaconda3/envs/poltype/share/psi4/basis/cc-pvtz-jkfit.gbs 
    atoms 2-5  entry C          line   125 file /home/daniele/anaconda3/envs/poltype/share/psi4/basis/cc-pvtz-jkfit.gbs 
    atoms 6-15 entry H          line    51 file /home/daniele/anaconda3/envs/poltype/share/psi4/basis/cc-pvtz-jkfit.gbs 

  ==> Pre-Iterations <==

   -------------------------------------------------------
    Irrep   Nso     Nmo     Nalpha   Nbeta   Ndocc  Nsocc
   -------------------------------------------------------
     A         95      95       0       0       0       0
   -------------------------------------------------------
    Total      95      95      21      21      21       0
   -------------------------------------------------------

  ==> Integral Setup <==

  ==> DiskDFJK: Density-Fitted J/K Matrices <==

    J tasked:                  Yes
    K tasked:                  Yes
    wK tasked:                 Yes
    Omega:               2.000E-01
    OpenMP threads:              8
    Integrals threads:           8
    Memory [MiB]:               34
    Algorithm:                Disk
    Integral Cache:           NONE
    Schwarz Cutoff:          1E-12
    Fitting Condition:       1E-10

   => Auxiliary Basis Set <=

  Basis Set: (6-311G AUX)
    Blend: CC-PVTZ-JKFIT
    Number of shells: 225
    Number of basis function: 695
    Number of Cartesian functions: 830
    Spherical Harmonics?: true
    Max angular momentum: 4

  Cached 100.0% of DFT collocation blocks in 0.660 [GiB].

  Minimum eigenvalue in the overlap matrix is 2.5912803355E-03.
  Using Symmetric Orthogonalization.

  SCF Guess: Superposition of Atomic Densities via on-the-fly atomic UHF.

  ==> Iterations <==

                           Total Energy        Delta E     RMS |[F,P]|

   @DF-RKS iter SAD:  -232.83736050592358   -2.32837e+02   0.00000e+00 
   @DF-RKS iter   1:  -233.28280243861420   -4.45442e-01   8.20830e-03 DIIS
   @DF-RKS iter   2:  -233.38206205556227   -9.92596e-02   7.24317e-03 DIIS
   @DF-RKS iter   3:  -233.57740831861395   -1.95346e-01   8.42459e-04 DIIS
   @DF-RKS iter   4:  -233.57956307392837   -2.15476e-03   3.28294e-04 DIIS
   @DF-RKS iter   5:  -233.57999471923773   -4.31645e-04   3.31116e-05 DIIS
   @DF-RKS iter   6:  -233.58000076453860   -6.04530e-06   1.60079e-05 DIIS
   @DF-RKS iter   7:  -233.58000192411330   -1.15957e-06   1.90709e-06 DIIS
   @DF-RKS iter   8:  -233.58000195642092   -3.23076e-08   3.18050e-07 DIIS
   @DF-RKS iter   9:  -233.58000195740621   -9.85295e-10   1.06889e-07 DIIS
   @DF-RKS iter  10:  -233.58000195747920   -7.29869e-11   3.96775e-08 DIIS
   @DF-RKS iter  11:  -233.58000195749099   -1.17950e-11   5.30773e-09 DIIS
  Energy and wave function converged.


  ==> Post-Iterations <==

    Orbital Energies [Eh]
    ---------------------

    Doubly Occupied:                                                      

       1A    -19.238446     2A    -10.331242     3A    -10.283461  
       4A    -10.277583     5A    -10.271556     6A     -1.125971  
       7A     -0.891508     8A     -0.819067     9A     -0.726544  
      10A     -0.677591    11A     -0.599732    12A     -0.567099  
      13A     -0.523194    14A     -0.515521    15A     -0.482638  
      16A     -0.452893    17A     -0.437013    18A     -0.416686  
      19A     -0.409306    20A     -0.400339    21A     -0.350623  

    Virtual:                                                              

      22A      0.115057    23A      0.124508    24A      0.149628  
      25A      0.156693    26A      0.170739    27A      0.205045  
      28A      0.209334    29A      0.217479    30A      0.222715  
      31A      0.241292    32A      0.250837    33A      0.294106  
      34A      0.307391    35A      0.328895    36A      0.385007  
      37A      0.389287    38A      0.412482    39A      0.447959  
      40A      0.451561    41A      0.469024    42A      0.499198  
      43A      0.529217    44A      0.604698    45A      0.611231  
      46A      0.643950    47A      0.648372    48A      0.672135  
      49A      0.675410    50A      0.680020    51A      0.692049  
      52A      0.701090    53A      0.703674    54A      0.711929  
      55A      0.719940    56A      0.723392    57A      0.753573  
      58A      0.849860    59A      0.962585    60A      1.011653  
      61A      1.054175    62A      1.087554    63A      1.109424  
      64A      1.164390    65A      1.589217    66A      2.260449  
      67A      2.344654    68A      2.348345    69A      2.351169  
      70A      2.359419    71A      2.364117    72A      2.386075  
      73A      2.391759    74A      2.411323    75A      2.434026  
      76A      2.880301    77A      2.908975    78A      2.923412  
      79A      2.937833    80A      2.950837    81A      2.954334  
      82A      2.983059    83A      3.065854    84A      3.087117  
      85A      3.160959    86A      3.179326    87A      3.298893  
      88A      4.956723    89A      5.011181    90A      5.160760  
      91A     23.432991    92A     23.568289    93A     23.638508  
      94A     23.708971    95A     49.963969  

    Final Occupation by Irrep:
              A 
    DOCC [    21 ]

  @DF-RKS Final Energy:  -233.58000195749099

   => Energetics <=

    Nuclear Repulsion Energy =            183.0525893898892775
    One-Electron Energy =                -677.9681697009302752
    Two-Electron Energy =                 284.5602398052809008
    DFT Exchange-Correlation Energy =     -23.2178056050080670
    Empirical Dispersion Energy =          -0.0068558467228178
    VV10 Nonlocal Energy =                  0.0000000000000000
    Total Energy =                       -233.5800019574910209

Computation Completed


Properties will be evaluated at   0.000000,   0.000000,   0.000000 [a0]

Properties computed using the SCF density matrix

  Nuclear Dipole Moment: [e a0]
     X:     5.2617      Y:    -1.3505      Z:     1.0657

  Electronic Dipole Moment: [e a0]
     X:    -5.3267      Y:     0.6216      Z:    -0.7892

  Dipole Moment: [e a0]
     X:    -0.0651      Y:    -0.7289      Z:     0.2766     Total:     0.7823

  Dipole Moment: [D]
     X:    -0.1653      Y:    -1.8527      Z:     0.7029     Total:     1.9884


*** tstop() called on daniele-Precision-5750 at Thu May 27 11:03:11 2021
Module time:
	user time   =      30.89 seconds =       0.51 minutes
	system time =       0.81 seconds =       0.01 minutes
	total time  =          4 seconds =       0.07 minutes
Total time:
	user time   =      30.89 seconds =       0.51 minutes
	system time =       0.81 seconds =       0.01 minutes
	total time  =          4 seconds =       0.07 minutes

*** tstart() called on daniele-Precision-5750
*** at Thu May 27 11:03:11 2021


         ------------------------------------------------------------
                                   SCF GRAD                          
                          Rob Parrish, Justin Turney,                
                       Andy Simmonett, and Alex Sokolov              
         ------------------------------------------------------------

  ==> Geometry <==

    Molecular point group: c1
    Full point group: C1

    Geometry (in Angstrom), charge = 0, multiplicity = 1:

       Center              X                  Y                   Z               Mass       
    ------------   -----------------  -----------------  -----------------  -----------------
         O           -2.325623486665     0.400413525714    -0.492235249913    15.994914619570
         C            0.055586513335     0.216776525714    -0.222604249913    12.000000000000
         C            1.262490513335    -0.428640474286     0.505661750087    12.000000000000
         C           -1.322897486665    -0.271309474286     0.274704750087    12.000000000000
         C            2.632285513335     0.070618525714     0.002655750087    12.000000000000
         H            0.093977513335     1.308150525714    -0.107565249913     1.007825032230
         H            0.121095513335     0.015005525714    -1.299932249913     1.007825032230
         H            1.217600513335    -1.519881474286     0.391730750087     1.007825032230
         H            1.187355513335    -0.231981474286     1.583262750087     1.007825032230
         H           -1.398039486665    -1.359948474286     0.154525750087     1.007825032230
         H           -1.442717486665    -0.058929474286     1.344109750087     1.007825032230
         H            2.764648513335    -0.142079474286    -1.063645249913     1.007825032230
         H            3.446974513335    -0.420570474286     0.545309750087     1.007825032230
         H            2.738334513335     1.150795525714     0.150395750087     1.007825032230
         H           -3.104673486665    -0.183193474286    -0.558862249913     1.007825032230

  Nuclear repulsion =  183.052589389889278

  ==> Basis Set <==

  Basis Set: 6-311G
    Blend: 6-311G
    Number of shells: 65
    Number of basis function: 95
    Number of Cartesian functions: 95
    Spherical Harmonics?: true
    Max angular momentum: 1

  ==> DFJKGrad: Density-Fitted SCF Gradients <==

    Gradient:                    1
    J tasked:                  Yes
    K tasked:                  Yes
    wK tasked:                 Yes
    Omega:               2.000E-01
    OpenMP threads:              8
    Integrals threads:           8
    Memory [MiB]:              500
    Schwarz Cutoff:          0E+00
    Fitting Condition:       1E-10

   => Auxiliary Basis Set <=

  Basis Set: (6-311G AUX)
    Blend: CC-PVTZ-JKFIT
    Number of shells: 225
    Number of basis function: 695
    Number of Cartesian functions: 830
    Spherical Harmonics?: true
    Max angular momentum: 4

  ==> DFT Potential <==

   => Composite Functional: WB97X-D <= 

    wB97X-D Hyb-GGA Exchange-Correlation Functional

    J.-D. Chai and M. Head-Gordon, Phys. Chem. Chem. Phys. 10, 6615 (2008)

    Deriv               =              1
    GGA                 =           TRUE
    Meta                =          FALSE

    Exchange Hybrid     =           TRUE
    MP2 Hybrid          =          FALSE

   => Exchange-Correlation Functionals <=

    1.0000   wB97D range-separated functional

   => Exact (HF) Exchange <=

    0.7780            HF,LR [omega = 0.2000]
    0.2220               HF 

   => Molecular Quadrature <=

    Radial Scheme          =       TREUTLER
    Pruning Scheme         =           FLAT
    Nuclear Scheme         =       TREUTLER

    BS radius alpha        =              1
    Pruning alpha          =              1
    Radial Points          =             75
    Spherical Points       =            302
    Total Points           =         336081
    Total Blocks           =           2569
    Max Points             =            256
    Max Functions          =             89


  -Total Gradient:
     Atom            X                  Y                   Z
    ------   -----------------  -----------------  -----------------
       1        0.015854483069     0.005813685092     0.005368048596
       2        0.000469310523     0.002634830582    -0.003886010275
       3        0.003639134325    -0.001560633754     0.000894194086
       4       -0.023185481983     0.003202900269    -0.003567341681
       5        0.003624311745     0.000611187308    -0.000825667642
       6        0.000321482234     0.002868237455    -0.000324965205
       7        0.000839868028     0.000272722378    -0.003097780943
       8        0.000599229145    -0.001742727995     0.000450032308
       9        0.000620076389    -0.000180533476     0.001811528306
      10       -0.001958790102    -0.000379341501     0.001511960217
      11       -0.000993792201    -0.001854134135     0.000599257014
      12        0.000904449487    -0.000740191353    -0.001755583758
      13        0.001813038348    -0.000875985969     0.001089140603
      14        0.000978670099     0.001819455227     0.000805547507
      15       -0.003590491897    -0.009954503133     0.000962576469


*** tstop() called on daniele-Precision-5750 at Thu May 27 11:03:13 2021
Module time:
	user time   =      13.52 seconds =       0.23 minutes
	system time =       0.15 seconds =       0.00 minutes
	total time  =          2 seconds =       0.03 minutes
Total time:
	user time   =      44.42 seconds =       0.74 minutes
	system time =       0.96 seconds =       0.02 minutes
	total time  =          6 seconds =       0.10 minutes

			-----------------------------------------
			 OPTKING 2.0: for geometry optimizations 
			  - R.A. King,  Bethel University        
			-----------------------------------------
	At level 1: Red. Int., RFO, no backsteps, dynamic trust

	Internal coordinates to be generated automatically.
	Detected frag 1 with atoms:  1 2 3 4 5 6 7 8 9 10 11 12 13 14 15
	---Fragment 1 Bond Connectivity---
	 1 : 4 15
	 2 : 3 4 6 7
	 3 : 2 5 8 9
	 4 : 1 2 10 11
	 5 : 3 12 13 14
	 6 : 2
	 7 : 2
	 8 : 3
	 9 : 3
	 10 : 4
	 11 : 4
	 12 : 5
	 13 : 5
	 14 : 5
	 15 : 1

	Assuming in current code that numbering for constraints corresponds to unified fragment.
	Frozen dihedral atom list: 
	     2     4     1    15
	     4     2     3     5
	     3     2     4     1
	    12     5     3     2
	---Fragment 1 Geometry and Gradient---
	 O          -4.3947914607        0.7566719005       -0.9301898116
	 C           0.1050432865        0.4096482640       -0.4206610667
	 C           2.3857613062       -0.8100131027        0.9555622198
	 C          -2.4999139419       -0.5127006016        0.5191167430
	 C           4.9742987042        0.1334496730        0.0050186403
	 H           0.1775917622        2.4720462245       -0.2032688630
	 H           0.2288373552        0.0283563340       -2.4565159340
	 H           2.3009315004       -2.8721597296        0.7402638326
	 H           2.2437767338       -0.4383814526        2.9919329823
	 H          -2.6419117424       -2.5699301611        0.2920113470
	 H          -2.7263409262       -0.1113605671        2.5399993102
	 H           5.2244285234       -0.2684912945       -2.0099982170
	 H           6.5138377916       -0.7947630129        1.0304860812
	 H           5.1747022701        2.1746883700        0.2842067781
	 H          -5.8669825988       -0.3461854944       -1.0560965942
	             0.0158544831        0.0058136851        0.0053680486
	             0.0004693105        0.0026348306       -0.0038860103
	             0.0036391343       -0.0015606338        0.0008941941
	            -0.0231854820        0.0032029003       -0.0035673417
	             0.0036243117        0.0006111873       -0.0008256676
	             0.0003214822        0.0028682375       -0.0003249652
	             0.0008398680        0.0002727224       -0.0030977809
	             0.0005992291       -0.0017427280        0.0004500323
	             0.0006200764       -0.0001805335        0.0018115283
	            -0.0019587901       -0.0003793415        0.0015119602
	            -0.0009937922       -0.0018541341        0.0005992570
	             0.0009044495       -0.0007401914       -0.0017555838
	             0.0018130383       -0.0008759860        0.0010891406
	             0.0009786701        0.0018194552        0.0008055475
	            -0.0035904919       -0.0099545031        0.0009625765

	Previous optimization step data not found.  Starting new optimization.

	---Fragment 1 Intrafragment Coordinates---
	 - Coordinate -           - BOHR/RAD -       - ANG/DEG -
	 R(1,4)           =         2.702287	       1.429989
	 R(1,15)          =         1.843772	       0.975682
	 R(2,3)           =         2.929717	       1.550339
	 R(2,4)           =         2.918855	       1.544591
	 R(2,6)           =         2.075092	       1.098092
	 R(2,7)           =         2.074949	       1.098016
	 R(3,5)           =         2.914478	       1.542275
	 R(3,8)           =         2.075090	       1.098090
	 R(3,9)           =         2.074868	       1.097973
	 R(4,10)          =         2.074592	       1.097827
	 R(4,11)          =         2.072754	       1.096854
	 R(5,12)          =         2.069883	       1.095335
	 R(5,13)          =         2.069624	       1.095198
	 R(5,14)          =         2.069967	       1.095379
	 B(1,4,2)         =         1.880406	     107.739336
	 B(1,4,10)        =         1.938102	     111.045046
	 B(1,4,11)        =         1.934085	     110.814882
	 B(2,3,5)         =         1.986076	     113.793760
	 B(2,3,8)         =         1.910437	     109.459965
	 B(2,3,9)         =         1.910485	     109.462736
	 B(2,4,10)        =         1.916854	     109.827637
	 B(2,4,11)        =         1.928599	     110.500600
	 B(3,2,4)         =         1.995405	     114.328268
	 B(3,2,6)         =         1.914877	     109.714381
	 B(3,2,7)         =         1.915535	     109.752048
	 B(3,5,12)        =         1.941174	     111.221080
	 B(3,5,13)        =         1.932532	     110.725932
	 B(3,5,14)        =         1.940374	     111.175242
	 B(4,1,15)        =         1.891825	     108.393608
	 B(4,2,6)         =         1.887605	     108.151778
	 B(4,2,7)         =         1.887125	     108.124301
	 B(5,3,8)         =         1.900926	     108.915064
	 B(5,3,9)         =         1.899579	     108.837838
	 B(6,2,7)         =         1.858070	     106.459558
	 B(8,3,9)         =         1.851493	     106.082733
	 B(10,4,11)       =         1.866339	     106.933362
	 B(12,5,13)       =         1.881122	     107.780353
	 B(12,5,14)       =         1.887138	     108.125025
	 B(13,5,14)       =         1.879078	     107.663257
	*D(1,4,2,3)       =        -3.134179	    -179.575208
	 D(1,4,2,6)       =         1.010362	      57.889486
	 D(1,4,2,7)       =        -0.995044	     -57.011809
	*D(2,3,5,12)      =        -1.044574	     -59.849704
	 D(2,3,5,13)      =        -3.135710	    -179.662977
	 D(2,3,5,14)      =         1.059435	      60.701166
	*D(2,4,1,15)      =         2.619717	     150.098729
	 D(3,2,4,10)      =        -1.021053	     -58.501999
	 D(3,2,4,11)      =         1.033788	      59.231717
	*D(4,2,3,5)       =        -3.138411	    -179.817689
	 D(4,2,3,8)       =         1.013566	      58.073066
	 D(4,2,3,9)       =        -1.008911	     -57.806331
	 D(5,3,2,6)       =        -1.014675	     -58.136616
	 D(5,3,2,7)       =         1.021169	      58.508663
	 D(6,2,3,8)       =         3.137302	     179.754140
	 D(6,2,3,9)       =         1.114825	      63.874742
	 D(6,2,4,10)      =         3.123488	     178.962694
	 D(6,2,4,11)      =        -1.104856	     -63.303590
	 D(7,2,3,8)       =        -1.110040	     -63.600581
	 D(7,2,3,9)       =        -3.132517	    -179.479979
	 D(7,2,4,10)      =         1.118082	      64.061400
	 D(7,2,4,11)      =        -3.110262	    -178.204885
	 D(8,3,5,12)      =         1.091877	      62.559964
	 D(8,3,5,13)      =        -0.999259	     -57.253310
	 D(8,3,5,14)      =        -3.087298	    -176.889167
	 D(9,3,5,12)      =         3.103093	     177.794121
	 D(9,3,5,13)      =         1.011957	      57.980848
	 D(9,3,5,14)      =        -1.076083	     -61.655009
	 D(10,4,1,15)     =         0.519930	      29.789809
	 D(11,4,1,15)     =        -1.551679	     -88.904663

	Current energy   :      -233.5800019575

	Generating empirical Hessian (Schlegel '84) for each fragment.
	Taking RFO optimization step.
	Going to follow RFO solution 1.
	Using RFO vector 1.
	Norm of target step-size    0.12993
	Projected energy change by RFO approximation:        -0.0029297382

	Back-transformation to cartesian coordinates...
	Successfully converged to displaced geometry.

	Back-transformation to cartesian coordinates to adjust frozen coordinates...
	Successfully converged to displaced geometry.

	--- Internal Coordinate Step in ANG or DEG, aJ/ANG or AJ/DEG ---
	 ---------------------------------------------------------------------------
	   Coordinate                Previous        Force       Change         New 
	   ----------                --------       ------       ------       ------
	    1 R(1,4)          =      1.429989     0.115032     0.017874     1.447862
	    2 R(1,15)         =      0.975682    -0.072201    -0.008820     0.966862
	    3 R(2,3)          =      1.550339    -0.096531    -0.022168     1.528171
	    4 R(2,4)          =      1.544591    -0.123163    -0.027793     1.516798
	    5 R(2,6)          =      1.098092    -0.023303    -0.004371     1.093720
	    6 R(2,7)          =      1.098016    -0.025065    -0.004701     1.093315
	    7 R(3,5)          =      1.542275    -0.057948    -0.012984     1.529291
	    8 R(3,8)          =      1.098090    -0.013589    -0.002549     1.095541
	    9 R(3,9)          =      1.097973    -0.014021    -0.002629     1.095344
	   10 R(4,10)         =      1.097827    -0.002869    -0.000538     1.097289
	   11 R(4,11)         =      1.096854    -0.002762    -0.000516     1.096338
	   12 R(5,12)         =      1.095335    -0.016213    -0.003014     1.092321
	   13 R(5,13)         =      1.095198    -0.018716    -0.003478     1.091720
	   14 R(5,14)         =      1.095379    -0.016584    -0.003084     1.092296
	   15 B(1,4,2)        =    107.739336     0.000132     0.303738   108.043074
	   16 B(1,4,10)       =    111.045046     0.000034     0.432556   111.477602
	   17 B(1,4,11)       =    110.814882    -0.000020    -0.086521   110.728362
	   18 B(2,3,5)        =    113.793760    -0.000381    -1.474909   112.318851
	   19 B(2,3,8)        =    109.459965     0.000083    -0.015592   109.444373
	   20 B(2,3,9)        =    109.462736     0.000065    -0.030833   109.431903
	   21 B(2,4,10)       =    109.827637    -0.000178    -0.988347   108.839290
	   22 B(2,4,11)       =    110.500600    -0.000123    -0.722495   109.778105
	   23 B(3,2,4)        =    114.328268    -0.000377    -1.488340   112.839928
	   24 B(3,2,6)        =    109.714381     0.000117     0.380154   110.094534
	   25 B(3,2,7)        =    109.752048     0.000123     0.390957   110.143005
	   26 B(3,5,12)       =    111.221080    -0.000048    -0.311988   110.909093
	   27 B(3,5,13)       =    110.725932     0.000008     0.193118   110.919050
	   28 B(3,5,14)       =    111.175242    -0.000047    -0.307187   110.868056
	   29 B(4,1,15)       =    108.393608     0.000806     3.710264   112.103872
	   30 B(4,2,6)        =    108.151778     0.000104     0.243043   108.394821
	   31 B(4,2,7)        =    108.124301     0.000078    -0.078632   108.045669
	   32 B(5,3,8)        =    108.915064     0.000148     0.553613   109.468677
	   33 B(5,3,9)        =    108.837838     0.000145     0.576796   109.414634
	   34 B(6,2,7)        =    106.459558    -0.000025     0.672728   107.132286
	   35 B(8,3,9)        =    106.082733    -0.000037     0.514690   106.597423
	   36 B(10,4,11)      =    106.933362     0.000147     1.019746   107.953108
	   37 B(12,5,13)      =    107.780353     0.000028     0.271951   108.052304
	   38 B(12,5,14)      =    108.125025     0.000019    -0.209076   107.915948
	   39 B(13,5,14)      =    107.663257     0.000046     0.388670   108.051927
	   40 *D(1,4,2,3)     =   -179.575208     0.000000     0.000000  -179.575208
	   41 D(1,4,2,6)      =     57.889486     0.000006     0.330952    58.220438
	   42 D(1,4,2,7)      =    -57.011809    -0.000009    -0.543411   -57.555220
	   43 *D(2,3,5,12)    =    -59.849704     0.000000     0.000000   -59.849704
	   44 D(2,3,5,13)     =   -179.662977    -0.000002    -0.264372  -179.927349
	   45 D(2,3,5,14)     =     60.701166    -0.000009    -0.678496    60.022669
	   46 *D(2,4,1,15)    =    150.098729    -0.000000     0.000000   150.098729
	   47 D(3,2,4,10)     =    -58.501999     0.000004     0.125973   -58.376026
	   48 D(3,2,4,11)     =     59.231717     0.000003     0.348204    59.579920
	   49 *D(4,2,3,5)     =   -179.817689    -0.000000     0.000000  -179.817689
	   50 D(4,2,3,8)      =     58.073066     0.000003     0.306538    58.379604
	   51 D(4,2,3,9)      =    -57.806331    -0.000006    -0.286106   -58.092437
	   52 D(5,3,2,6)      =    -58.136616    -0.000009    -0.436631   -58.573247
	   53 D(5,3,2,7)      =     58.508663     0.000016     0.841982    59.350646
	   54 D(6,2,3,8)      =    179.754140    -0.000006    -0.130094   179.624046
	   55 D(6,2,3,9)      =     63.874742    -0.000015    -0.722737    63.152005
	   56 D(6,2,4,10)     =    178.962694     0.000010     0.456925   179.419619
	   57 D(6,2,4,11)     =    -63.303590     0.000009     0.679156   -62.624434
	   58 D(7,2,3,8)      =    -63.600581     0.000019     1.148520   -62.452061
	   59 D(7,2,3,9)      =   -179.479979     0.000009     0.555876  -178.924102
	   60 D(7,2,4,10)     =     64.061400    -0.000005    -0.417438    63.643962
	   61 D(7,2,4,11)     =   -178.204885    -0.000005    -0.195207  -178.400092
	   62 D(8,3,5,12)     =     62.559964    -0.000010    -0.620811    61.939153
	   63 D(8,3,5,13)     =    -57.253310    -0.000012    -0.885183   -58.138493
	   64 D(8,3,5,14)     =   -176.889167    -0.000020    -1.299307  -178.188474
	   65 D(9,3,5,12)     =    177.794121     0.000016     0.621075   178.415196
	   66 D(9,3,5,13)     =     57.980848     0.000014     0.356703    58.337550
	   67 D(9,3,5,14)     =    -61.655009     0.000007    -0.057421   -61.712431
	   68 D(10,4,1,15)    =     29.789809     0.000026     0.762548    30.552357
	   69 D(11,4,1,15)    =    -88.904663    -0.000018    -0.745861   -89.650523
	 ---------------------------------------------------------------------------
	Successfully symmetrized geometry.

  ==> Convergence Check <==

  Measures of convergence in internal coordinates in au.
  Criteria marked as inactive (o), active & met (*), and active & unmet ( ).
  --------------------------------------------------------------------------------------------- ~
   Step     Total Energy     Delta E     MAX Force     RMS Force      MAX Disp      RMS Disp    ~
  --------------------------------------------------------------------------------------------- ~
    Convergence Criteria             o    2.50e-03 *    1.70e-03 *    1.00e-02 *    6.70e-03 *  ~
  --------------------------------------------------------------------------------------------- ~
      1    -233.58000196   -2.34e+02 o    1.49e-02      3.66e-03      6.48e-02      1.56e-02    ~
  ---------------------------------------------------------------------------------------------

	Writing optimization data to binary file.
	Structure for next step:
	Cartesian Geometry (in Angstrom)
	    O    -2.2972533111   0.3869344310  -0.5405932410
	    C     0.0754384682   0.2094090139  -0.2304091105
	    C     1.2365904624  -0.4291149379   0.5307222417
	    C    -1.2799139408  -0.2712241656   0.2519682107
	    C     2.5966904490   0.0669691108   0.0380164005
	    H     0.1122132951   1.2977014969  -0.1279834981
	    H     0.1549301207  -0.0165525925  -1.2971613858
	    H     1.1856932821  -1.5185161803   0.4266786383
	    H     1.1351086703  -0.2118030992   1.5994852830
	    H    -1.3285790861  -1.3619644333   0.1426016330
	    H    -1.4013965416  -0.0324364024   1.3150673867
	    H     2.7352586757  -0.1628248030  -1.0208310841
	    H     3.4086819742  -0.4039410527   0.5954800484
	    H     2.6842994903   1.1487379342   0.1613491675
	    H    -3.0913643319  -0.1561484284  -0.6368784436
			--------------------------
			 OPTKING Finished Execution 
			--------------------------

    Structure for next step:
    Molecular point group: c1
    Full point group: C1

    Geometry (in Angstrom), charge = 0, multiplicity = 1:

    O           -2.303192314259     0.391354252306    -0.535243097801
    C            0.069499474364     0.213828834529    -0.225058966113
    C            1.230651473131    -0.424695119817     0.536072389138
    C           -1.285852939967    -0.266804346897     0.257318357060
    C            2.590751465079     0.071388930888     0.043366546030
    H            0.106274301385     1.302121321781    -0.122633353301
    H            0.148991127151    -0.012132772708    -1.291811245596
    H            1.179754292545    -1.514096366438     0.432028785279
    H            1.129169680595    -0.207383280214     1.604835434621
    H           -1.334518085521    -1.357544618854     0.147951778903
    H           -1.407335541256    -0.028016582752     1.320417537161
    H            2.729319692259    -0.158404983796    -1.015480942749
    H            3.402742993432    -0.399521234422     0.600830196060
    H            2.678360506641     1.153157758530     0.166699313494
    H           -3.097303338193    -0.151728609151    -0.631528300765

gradient() will perform analytic gradient computation.

*** tstart() called on daniele-Precision-5750
*** at Thu May 27 11:03:13 2021

   => Loading Basis Set <=

    Name: 6-311G
    Role: ORBITAL
    Keyword: BASIS
    atoms 1    entry O          line   126 file /home/daniele/anaconda3/envs/poltype/share/psi4/basis/6-311g.gbs 
    atoms 2-5  entry C          line    92 file /home/daniele/anaconda3/envs/poltype/share/psi4/basis/6-311g.gbs 
    atoms 6-15 entry H          line    21 file /home/daniele/anaconda3/envs/poltype/share/psi4/basis/6-311g.gbs 


         ---------------------------------------------------------
                                   SCF
               by Justin Turney, Rob Parrish, Andy Simmonett
                          and Daniel G. A. Smith
                              RKS Reference
                        8 Threads,    667 MiB Core
         ---------------------------------------------------------

  ==> Geometry <==

    Molecular point group: c1
    Full point group: C1

    Geometry (in Angstrom), charge = 0, multiplicity = 1:

       Center              X                  Y                   Z               Mass       
    ------------   -----------------  -----------------  -----------------  -----------------
         O           -2.303192314259     0.391354252306    -0.535243097801    15.994914619570
         C            0.069499474364     0.213828834529    -0.225058966113    12.000000000000
         C            1.230651473131    -0.424695119817     0.536072389138    12.000000000000
         C           -1.285852939967    -0.266804346897     0.257318357060    12.000000000000
         C            2.590751465079     0.071388930888     0.043366546030    12.000000000000
         H            0.106274301385     1.302121321781    -0.122633353301     1.007825032230
         H            0.148991127151    -0.012132772708    -1.291811245596     1.007825032230
         H            1.179754292545    -1.514096366438     0.432028785279     1.007825032230
         H            1.129169680595    -0.207383280214     1.604835434621     1.007825032230
         H           -1.334518085521    -1.357544618854     0.147951778903     1.007825032230
         H           -1.407335541256    -0.028016582752     1.320417537161     1.007825032230
         H            2.729319692259    -0.158404983796    -1.015480942749     1.007825032230
         H            3.402742993432    -0.399521234422     0.600830196060     1.007825032230
         H            2.678360506641     1.153157758530     0.166699313494     1.007825032230
         H           -3.097303338193    -0.151728609151    -0.631528300765     1.007825032230

  Running in c1 symmetry.

  Rotational constants: A =      0.61761  B =      0.06577  C =      0.06228 [cm^-1]
  Rotational constants: A =  18515.39986  B =   1971.66979  C =   1867.04476 [MHz]
  Nuclear repulsion =  184.533960236443562

  Charge       = 0
  Multiplicity = 1
  Electrons    = 42
  Nalpha       = 21
  Nbeta        = 21

  ==> Algorithm <==

  SCF Algorithm Type is DF.
  DIIS enabled.
  MOM disabled.
  Fractional occupation disabled.
  Guess Type is READ.
  Energy threshold   = 1.00e-08
  Density threshold  = 1.00e-08
  Integral threshold = 0.00e+00

  ==> Primary Basis <==

  Basis Set: 6-311G
    Blend: 6-311G
    Number of shells: 65
    Number of basis function: 95
    Number of Cartesian functions: 95
    Spherical Harmonics?: true
    Max angular momentum: 1

  ==> DFT Potential <==

   => Composite Functional: WB97X-D <= 

    wB97X-D Hyb-GGA Exchange-Correlation Functional

    J.-D. Chai and M. Head-Gordon, Phys. Chem. Chem. Phys. 10, 6615 (2008)

    Deriv               =              1
    GGA                 =           TRUE
    Meta                =          FALSE

    Exchange Hybrid     =           TRUE
    MP2 Hybrid          =          FALSE

   => Exchange-Correlation Functionals <=

    1.0000   wB97D range-separated functional

   => Exact (HF) Exchange <=

    0.7780            HF,LR [omega = 0.2000]
    0.2220               HF 

   => Molecular Quadrature <=

    Radial Scheme          =       TREUTLER
    Pruning Scheme         =           FLAT
    Nuclear Scheme         =       TREUTLER

    BS radius alpha        =              1
    Pruning alpha          =              1
    Radial Points          =             75
    Spherical Points       =            302
    Total Points           =         336075
    Total Blocks           =           2582
    Max Points             =            256
    Max Functions          =             89

   => WB97X-D: Empirical Dispersion <=

    Chai and Head-Gordon Dispersion Correction
    Chai, J.-D.; Head-Gordon, M. (2010), J. Chem. Phys., 132: 6615-6620

        s6 =       1.000000

   => Loading Basis Set <=

    Name: (6-311G AUX)
    Role: JKFIT
    Keyword: DF_BASIS_SCF
    atoms 1    entry O          line   229 file /home/daniele/anaconda3/envs/poltype/share/psi4/basis/cc-pvtz-jkfit.gbs 
    atoms 2-5  entry C          line   125 file /home/daniele/anaconda3/envs/poltype/share/psi4/basis/cc-pvtz-jkfit.gbs 
    atoms 6-15 entry H          line    51 file /home/daniele/anaconda3/envs/poltype/share/psi4/basis/cc-pvtz-jkfit.gbs 

   => Loading Basis Set <=

    Name: 6-311G
    Role: ORBITAL
    Keyword: BASIS
    atoms 1    entry O          line   126 file /home/daniele/anaconda3/envs/poltype/share/psi4/basis/6-311g.gbs 
    atoms 2-5  entry C          line    92 file /home/daniele/anaconda3/envs/poltype/share/psi4/basis/6-311g.gbs 
    atoms 6-15 entry H          line    21 file /home/daniele/anaconda3/envs/poltype/share/psi4/basis/6-311g.gbs 

  Reading orbitals from file 180, no projection.

  ==> Pre-Iterations <==

   -------------------------------------------------------
    Irrep   Nso     Nmo     Nalpha   Nbeta   Ndocc  Nsocc
   -------------------------------------------------------
     A         95      95       0       0       0       0
   -------------------------------------------------------
    Total      95      95      21      21      21       0
   -------------------------------------------------------

  ==> Integral Setup <==

  ==> DiskDFJK: Density-Fitted J/K Matrices <==

    J tasked:                  Yes
    K tasked:                  Yes
    wK tasked:                 Yes
    Omega:               2.000E-01
    OpenMP threads:              8
    Integrals threads:           8
    Memory [MiB]:               34
    Algorithm:                Disk
    Integral Cache:           NONE
    Schwarz Cutoff:          1E-12
    Fitting Condition:       1E-10

   => Auxiliary Basis Set <=

  Basis Set: (6-311G AUX)
    Blend: CC-PVTZ-JKFIT
    Number of shells: 225
    Number of basis function: 695
    Number of Cartesian functions: 830
    Spherical Harmonics?: true
    Max angular momentum: 4

  Cached 100.0% of DFT collocation blocks in 0.664 [GiB].

  Minimum eigenvalue in the overlap matrix is 2.3028181419E-03.
  Using Symmetric Orthogonalization.

  SCF Guess: Orbitals guess was supplied from a previous computation.

  ==> Iterations <==

                           Total Energy        Delta E     RMS |[F,P]|

   @DF-RKS iter   0:  -233.59400526570619   -2.33594e+02   9.47553e-04 
   @DF-RKS iter   1:  -233.58137158253538    1.26337e-02   1.33722e-04 DIIS
   @DF-RKS iter   2:  -233.58144611414784   -7.45316e-05   9.67683e-05 DIIS
   @DF-RKS iter   3:  -233.58147690143025   -3.07873e-05   2.66324e-05 DIIS
   @DF-RKS iter   4:  -233.58147955067642   -2.64925e-06   8.49232e-06 DIIS
   @DF-RKS iter   5:  -233.58147990637599   -3.55700e-07   2.18480e-06 DIIS
   @DF-RKS iter   6:  -233.58147993517349   -2.87975e-08   2.63383e-07 DIIS
   @DF-RKS iter   7:  -233.58147993583813   -6.64642e-10   1.43784e-07 DIIS
   @DF-RKS iter   8:  -233.58147993596043   -1.22299e-10   2.34146e-08 DIIS
   @DF-RKS iter   9:  -233.58147993596691   -6.48015e-12   5.07496e-09 DIIS
  Energy and wave function converged.


  ==> Post-Iterations <==

    Orbital Energies [Eh]
    ---------------------

    Doubly Occupied:                                                      

       1A    -19.234474     2A    -10.329842     3A    -10.280760  
       4A    -10.273062     5A    -10.269332     6A     -1.117726  
       7A     -0.900510     8A     -0.823780     9A     -0.726428  
      10A     -0.678225    11A     -0.598452    12A     -0.572375  
      13A     -0.524035    14A     -0.518498    15A     -0.483142  
      16A     -0.451225    17A     -0.434545    18A     -0.419244  
      19A     -0.409350    20A     -0.399127    21A     -0.350569  

    Virtual:                                                              

      22A      0.117885    23A      0.125110    24A      0.149531  
      25A      0.154728    26A      0.170504    27A      0.207259  
      28A      0.211018    29A      0.219196    30A      0.224227  
      31A      0.243063    32A      0.249815    33A      0.303579  
      34A      0.311944    35A      0.329764    36A      0.386034  
      37A      0.388585    38A      0.418699    39A      0.448275  
      40A      0.455041    41A      0.471133    42A      0.507505  
      43A      0.530455    44A      0.606572    45A      0.618963  
      46A      0.652281    47A      0.653827    48A      0.675401  
      49A      0.676528    50A      0.686436    51A      0.693263  
      52A      0.703166    53A      0.708362    54A      0.712987  
      55A      0.722172    56A      0.727146    57A      0.756402  
      58A      0.853397    59A      0.964803    60A      1.012878  
      61A      1.056794    62A      1.093876    63A      1.110135  
      64A      1.173048    65A      1.584547    66A      2.263252  
      67A      2.345827    68A      2.351154    69A      2.352873  
      70A      2.359876    71A      2.364503    72A      2.386624  
      73A      2.392516    74A      2.411673    75A      2.434815  
      76A      2.860246    77A      2.908506    78A      2.920688  
      79A      2.934448    80A      2.956936    81A      2.965849  
      82A      2.989765    83A      3.069127    84A      3.095532  
      85A      3.169261    86A      3.180337    87A      3.315778  
      88A      4.958888    89A      5.015649    90A      5.179631  
      91A     23.431301    92A     23.572614    93A     23.649883  
      94A     23.729834    95A     49.963737  

    Final Occupation by Irrep:
              A 
    DOCC [    21 ]

  @DF-RKS Final Energy:  -233.58147993596691

   => Energetics <=

    Nuclear Repulsion Energy =            184.5339602364435621
    One-Electron Energy =                -680.9246039454865240
    Two-Electron Energy =                 286.0576744487302108
    DFT Exchange-Correlation Energy =     -23.2415504349865216
    Empirical Dispersion Energy =          -0.0069602406676228
    VV10 Nonlocal Energy =                  0.0000000000000000
    Total Energy =                       -233.5814799359668541

Computation Completed


Properties will be evaluated at   0.000000,   0.000000,   0.000000 [a0]

Properties computed using the SCF density matrix

  Nuclear Dipole Moment: [e a0]
     X:     5.1783      Y:    -1.2858      Z:     1.1330

  Electronic Dipole Moment: [e a0]
     X:    -5.2393      Y:     0.5750      Z:    -0.8575

  Dipole Moment: [e a0]
     X:    -0.0610      Y:    -0.7108      Z:     0.2755     Total:     0.7647

  Dipole Moment: [D]
     X:    -0.1551      Y:    -1.8066      Z:     0.7002     Total:     1.9437


*** tstop() called on daniele-Precision-5750 at Thu May 27 11:03:17 2021
Module time:
	user time   =      26.63 seconds =       0.44 minutes
	system time =       0.35 seconds =       0.01 minutes
	total time  =          4 seconds =       0.07 minutes
Total time:
	user time   =      71.56 seconds =       1.19 minutes
	system time =       1.33 seconds =       0.02 minutes
	total time  =         10 seconds =       0.17 minutes

*** tstart() called on daniele-Precision-5750
*** at Thu May 27 11:03:17 2021


         ------------------------------------------------------------
                                   SCF GRAD                          
                          Rob Parrish, Justin Turney,                
                       Andy Simmonett, and Alex Sokolov              
         ------------------------------------------------------------

  ==> Geometry <==

    Molecular point group: c1
    Full point group: C1

    Geometry (in Angstrom), charge = 0, multiplicity = 1:

       Center              X                  Y                   Z               Mass       
    ------------   -----------------  -----------------  -----------------  -----------------
         O           -2.303192314259     0.391354252306    -0.535243097801    15.994914619570
         C            0.069499474364     0.213828834529    -0.225058966113    12.000000000000
         C            1.230651473131    -0.424695119817     0.536072389138    12.000000000000
         C           -1.285852939967    -0.266804346897     0.257318357060    12.000000000000
         C            2.590751465079     0.071388930888     0.043366546030    12.000000000000
         H            0.106274301385     1.302121321781    -0.122633353301     1.007825032230
         H            0.148991127151    -0.012132772708    -1.291811245596     1.007825032230
         H            1.179754292545    -1.514096366438     0.432028785279     1.007825032230
         H            1.129169680595    -0.207383280214     1.604835434621     1.007825032230
         H           -1.334518085521    -1.357544618854     0.147951778903     1.007825032230
         H           -1.407335541256    -0.028016582752     1.320417537161     1.007825032230
         H            2.729319692259    -0.158404983796    -1.015480942749     1.007825032230
         H            3.402742993432    -0.399521234422     0.600830196060     1.007825032230
         H            2.678360506641     1.153157758530     0.166699313494     1.007825032230
         H           -3.097303338193    -0.151728609151    -0.631528300765     1.007825032230

  Nuclear repulsion =  184.533960236443562

  ==> Basis Set <==

  Basis Set: 6-311G
    Blend: 6-311G
    Number of shells: 65
    Number of basis function: 95
    Number of Cartesian functions: 95
    Spherical Harmonics?: true
    Max angular momentum: 1

  ==> DFJKGrad: Density-Fitted SCF Gradients <==

    Gradient:                    1
    J tasked:                  Yes
    K tasked:                  Yes
    wK tasked:                 Yes
    Omega:               2.000E-01
    OpenMP threads:              8
    Integrals threads:           8
    Memory [MiB]:              500
    Schwarz Cutoff:          0E+00
    Fitting Condition:       1E-10

   => Auxiliary Basis Set <=

  Basis Set: (6-311G AUX)
    Blend: CC-PVTZ-JKFIT
    Number of shells: 225
    Number of basis function: 695
    Number of Cartesian functions: 830
    Spherical Harmonics?: true
    Max angular momentum: 4

  ==> DFT Potential <==

   => Composite Functional: WB97X-D <= 

    wB97X-D Hyb-GGA Exchange-Correlation Functional

    J.-D. Chai and M. Head-Gordon, Phys. Chem. Chem. Phys. 10, 6615 (2008)

    Deriv               =              1
    GGA                 =           TRUE
    Meta                =          FALSE

    Exchange Hybrid     =           TRUE
    MP2 Hybrid          =          FALSE

   => Exchange-Correlation Functionals <=

    1.0000   wB97D range-separated functional

   => Exact (HF) Exchange <=

    0.7780            HF,LR [omega = 0.2000]
    0.2220               HF 

   => Molecular Quadrature <=

    Radial Scheme          =       TREUTLER
    Pruning Scheme         =           FLAT
    Nuclear Scheme         =       TREUTLER

    BS radius alpha        =              1
    Pruning alpha          =              1
    Radial Points          =             75
    Spherical Points       =            302
    Total Points           =         336075
    Total Blocks           =           2582
    Max Points             =            256
    Max Functions          =             89


  -Total Gradient:
     Atom            X                  Y                   Z
    ------   -----------------  -----------------  -----------------
       1        0.000414151387     0.000305290450     0.001115558714
       2        0.002094707185    -0.001623457240     0.000939509973
       3       -0.000284376398    -0.000393101841    -0.000445115628
       4       -0.001614567807     0.002905505833    -0.000160131060
       5       -0.000887257725     0.000897988157    -0.001074003037
       6       -0.000557532051     0.000134563177     0.000513431077
       7       -0.000489063083    -0.000532667270     0.000012522045
       8       -0.000105295328    -0.000040528187    -0.000286633633
       9       -0.000080193845     0.000350303840    -0.000016673192
      10        0.001647634848    -0.000383972632     0.000419415860
      11        0.001798843478    -0.000418843206     0.000742359591
      12       -0.000046301265    -0.000134198705     0.000063065713
      13       -0.000512903364    -0.000503651673     0.000502592143
      14       -0.000049963281    -0.000022261691     0.000171774656
      15       -0.001373793281    -0.000590584476    -0.002486388817


*** tstop() called on daniele-Precision-5750 at Thu May 27 11:03:18 2021
Module time:
	user time   =      13.91 seconds =       0.23 minutes
	system time =       0.13 seconds =       0.00 minutes
	total time  =          1 seconds =       0.02 minutes
Total time:
	user time   =      85.48 seconds =       1.42 minutes
	system time =       1.46 seconds =       0.02 minutes
	total time  =         11 seconds =       0.18 minutes

			-----------------------------------------
			 OPTKING 2.0: for geometry optimizations 
			  - R.A. King,  Bethel University        
			-----------------------------------------
	At level 1: Red. Int., RFO, no backsteps, dynamic trust

	Previous internal coordinate definitions found.
	---Fragment 1 Geometry and Gradient---
	 O          -4.3524026882        0.7395523549       -1.0114628654
	 C           0.1313349724        0.4040779350       -0.4252998080
	 C           2.3255942401       -0.8025574633        1.0130299989
	 C          -2.4299098942       -0.5041871447        0.4862612219
	 C           4.8958107281        0.1349055278        0.0819508950
	 H           0.2008293238        2.4606526803       -0.2317434516
	 H           0.2815524254       -0.0229276176       -2.4411694600
	 H           2.2294125082       -2.8612274601        0.8164160825
	 H           2.1338214455       -0.3918976026        3.0326994479
	 H          -2.5218736911       -2.5653875327        0.2795883419
	 H          -2.6594787396       -0.0529436684        2.4952275165
	 H           5.1576667272       -0.2993420363       -1.9189808674
	 H           6.4302523329       -0.7549857144        1.1354045185
	 H           5.0613678228        2.1791523431        0.3150160478
	 H          -5.8530550367       -0.2867255167       -1.1934155289
	             0.0004141514        0.0003052905        0.0011155587
	             0.0020947072       -0.0016234572        0.0009395100
	            -0.0002843764       -0.0003931018       -0.0004451156
	            -0.0016145678        0.0029055058       -0.0001601311
	            -0.0008872577        0.0008979882       -0.0010740030
	            -0.0005575321        0.0001345632        0.0005134311
	            -0.0004890631       -0.0005326673        0.0000125220
	            -0.0001052953       -0.0000405282       -0.0002866336
	            -0.0000801938        0.0003503038       -0.0000166732
	             0.0016476348       -0.0003839726        0.0004194159
	             0.0017988435       -0.0004188432        0.0007423596
	            -0.0000463013       -0.0001341987        0.0000630657
	            -0.0005129034       -0.0005036517        0.0005025921
	            -0.0000499633       -0.0000222617        0.0001717747
	            -0.0013737933       -0.0005905845       -0.0024863888

	---Fragment 1 Intrafragment Coordinates---
	 - Coordinate -           - BOHR/RAD -       - ANG/DEG -
	 R(1,4)           =         2.736064	       1.447862
	 R(1,15)          =         1.827104	       0.966862
	 R(2,3)           =         2.887825	       1.528171
	 R(2,4)           =         2.866333	       1.516798
	 R(2,6)           =         2.066832	       1.093720
	 R(2,7)           =         2.066066	       1.093315
	 R(3,5)           =         2.889941	       1.529291
	 R(3,8)           =         2.070273	       1.095541
	 R(3,9)           =         2.069899	       1.095344
	 R(4,10)          =         2.073576	       1.097289
	 R(4,11)          =         2.071779	       1.096338
	 R(5,12)          =         2.064187	       1.092321
	 R(5,13)          =         2.063052	       1.091720
	 R(5,14)          =         2.064140	       1.092296
	 B(1,4,2)         =         1.885707	     108.043074
	 B(1,4,10)        =         1.945651	     111.477602
	 B(1,4,11)        =         1.932574	     110.728362
	 B(2,3,5)         =         1.960334	     112.318851
	 B(2,3,8)         =         1.910165	     109.444373
	 B(2,3,9)         =         1.909947	     109.431903
	 B(2,4,10)        =         1.899604	     108.839290
	 B(2,4,11)        =         1.915989	     109.778105
	 B(3,2,4)         =         1.969428	     112.839928
	 B(3,2,6)         =         1.921512	     110.094534
	 B(3,2,7)         =         1.922358	     110.143005
	 B(3,5,12)        =         1.935729	     110.909093
	 B(3,5,13)        =         1.935903	     110.919050
	 B(3,5,14)        =         1.935013	     110.868056
	 B(4,1,15)        =         1.956582	     112.103872
	 B(4,2,6)         =         1.891847	     108.394821
	 B(4,2,7)         =         1.885753	     108.045669
	 B(5,3,8)         =         1.910589	     109.468677
	 B(5,3,9)         =         1.909646	     109.414634
	 B(6,2,7)         =         1.869811	     107.132286
	 B(8,3,9)         =         1.860476	     106.597423
	 B(10,4,11)       =         1.884137	     107.953108
	 B(12,5,13)       =         1.885868	     108.052304
	 B(12,5,14)       =         1.883489	     107.915948
	 B(13,5,14)       =         1.885862	     108.051927
	*D(1,4,2,3)       =        -3.134179	    -179.575208
	 D(1,4,2,6)       =         1.016138	      58.220438
	 D(1,4,2,7)       =        -1.004528	     -57.555220
	*D(2,3,5,12)      =        -1.044574	     -59.849704
	 D(2,3,5,13)      =        -3.140325	    -179.927349
	 D(2,3,5,14)      =         1.047593	      60.022669
	*D(2,4,1,15)      =         2.619717	     150.098729
	 D(3,2,4,10)      =        -1.018854	     -58.376026
	 D(3,2,4,11)      =         1.039866	      59.579920
	*D(4,2,3,5)       =        -3.138411	    -179.817689
	 D(4,2,3,8)       =         1.018916	      58.379604
	 D(4,2,3,9)       =        -1.013904	     -58.092437
	 D(5,3,2,6)       =        -1.022296	     -58.573247
	 D(5,3,2,7)       =         1.035864	      59.350646
	 D(6,2,3,8)       =         3.135031	     179.624046
	 D(6,2,3,9)       =         1.102210	      63.152005
	 D(6,2,4,10)      =         3.131463	     179.419619
	 D(6,2,4,11)      =        -1.093003	     -62.624434
	 D(7,2,3,8)       =        -1.089994	     -62.452061
	 D(7,2,3,9)       =        -3.122815	    -178.924102
	 D(7,2,4,10)      =         1.110797	      63.643962
	 D(7,2,4,11)      =        -3.113669	    -178.400092
	 D(8,3,5,12)      =         1.081042	      61.939153
	 D(8,3,5,13)      =        -1.014708	     -58.138493
	 D(8,3,5,14)      =        -3.109976	    -178.188474
	 D(9,3,5,12)      =         3.113933	     178.415196
	 D(9,3,5,13)      =         1.018182	      58.337550
	 D(9,3,5,14)      =        -1.077085	     -61.712431
	 D(10,4,1,15)     =         0.533239	      30.552357
	 D(11,4,1,15)     =        -1.564697	     -89.650523

	Current energy   :      -233.5814799360

	Energy change for the previous step:
		Projected    :        -0.0029297382
		Actual       :        -0.0014779785

	Performing BFGS update.
	Previous computed or guess Hessian on step 1.
	Steps to be used in Hessian update: 1
	Taking RFO optimization step.
	Going to follow RFO solution 1.
	Using RFO vector 1.
	Norm of target step-size    0.04134
	Projected energy change by RFO approximation:        -0.0001745869

	Back-transformation to cartesian coordinates...
	Successfully converged to displaced geometry.

	Back-transformation to cartesian coordinates to adjust frozen coordinates...
	Successfully converged to displaced geometry.

	--- Internal Coordinate Step in ANG or DEG, aJ/ANG or AJ/DEG ---
	 ---------------------------------------------------------------------------
	   Coordinate                Previous        Force       Change         New 
	   ----------                --------       ------       ------       ------
	    1 R(1,4)          =      1.447862    -0.010562    -0.000730     1.447132
	    2 R(1,15)         =      0.966862    -0.014106    -0.001869     0.964993
	    3 R(2,3)          =      1.528171     0.017434     0.002644     1.530815
	    4 R(2,4)          =      1.516798     0.012186     0.001306     1.518104
	    5 R(2,6)          =      1.093720    -0.001350    -0.000400     1.093320
	    6 R(2,7)          =      1.093315    -0.000528    -0.000277     1.093038
	    7 R(3,5)          =      1.529291     0.009213     0.001300     1.530591
	    8 R(3,8)          =      1.095541    -0.000527    -0.000190     1.095351
	    9 R(3,9)          =      1.095344    -0.000510    -0.000191     1.095153
	   10 R(4,10)         =      1.097289    -0.002212    -0.000388     1.096901
	   11 R(4,11)         =      1.096338    -0.003540    -0.000605     1.095733
	   12 R(5,12)         =      1.092321     0.000312    -0.000070     1.092250
	   13 R(5,13)         =      1.091720    -0.000724    -0.000259     1.091461
	   14 R(5,14)         =      1.092296    -0.000035    -0.000130     1.092166
	   15 B(1,4,2)        =    108.043074     0.000045     0.078628   108.121701
	   16 B(1,4,10)       =    111.477602    -0.000099    -0.622262   110.855340
	   17 B(1,4,11)       =    110.728362    -0.000111    -0.800428   109.927933
	   18 B(2,3,5)        =    112.318851     0.000061     0.178992   112.497843
	   19 B(2,3,8)        =    109.444373    -0.000006     0.003187   109.447560
	   20 B(2,3,9)        =    109.431903    -0.000015     0.035447   109.467350
	   21 B(2,4,10)       =    108.839290     0.000089     0.605508   109.444798
	   22 B(2,4,11)       =    109.778105     0.000097     0.597353   110.375457
	   23 B(3,2,4)        =    112.839928    -0.000020    -0.058998   112.780931
	   24 B(3,2,6)        =    110.094534    -0.000010    -0.096796   109.997739
	   25 B(3,2,7)        =    110.143005    -0.000011    -0.074476   110.068529
	   26 B(3,5,12)       =    110.909093    -0.000010    -0.090360   110.818733
	   27 B(3,5,13)       =    110.919050     0.000094     0.476322   111.395372
	   28 B(3,5,14)       =    110.868056    -0.000005    -0.078036   110.790020
	   29 B(4,1,15)       =    112.103872    -0.000211    -0.711585   111.392287
	   30 B(4,2,6)        =    108.394821     0.000034     0.255345   108.650166
	   31 B(4,2,7)        =    108.045669     0.000032     0.226522   108.272191
	   32 B(5,3,8)        =    109.468677    -0.000022    -0.060602   109.408075
	   33 B(5,3,9)        =    109.414634    -0.000018     0.001063   109.415697
	   34 B(6,2,7)        =    107.132286    -0.000025    -0.254199   106.878087
	   35 B(8,3,9)        =    106.597423    -0.000003    -0.177552   106.419871
	   36 B(10,4,11)      =    107.953108    -0.000014     0.166362   108.119470
	   37 B(12,5,13)      =    108.052304    -0.000041    -0.072111   107.980193
	   38 B(12,5,14)      =    107.915948    -0.000006    -0.184632   107.731317
	   39 B(13,5,14)      =    108.051927    -0.000037    -0.069704   107.982223
	   40 *D(1,4,2,3)     =   -179.575208    -0.000000     0.000000  -179.575208
	   41 D(1,4,2,6)      =     58.220438     0.000000    -0.018872    58.201566
	   42 D(1,4,2,7)      =    -57.555220    -0.000001     0.026326   -57.528894
	   43 *D(2,3,5,12)    =    -59.849704     0.000000     0.000000   -59.849704
	   44 D(2,3,5,13)     =   -179.927349    -0.000001    -0.165622  -180.092971
	   45 D(2,3,5,14)     =     60.022669    -0.000004    -0.342096    59.680573
	   46 *D(2,4,1,15)    =    150.098729    -0.000000     0.000000   150.098729
	   47 D(3,2,4,10)     =    -58.376026    -0.000009    -0.349622   -58.725648
	   48 D(3,2,4,11)     =     59.579920     0.000012     0.572318    60.152239
	   49 *D(4,2,3,5)     =   -179.817689     0.000000     0.000000  -179.817689
	   50 D(4,2,3,8)      =     58.379604    -0.000002    -0.045274    58.334330
	   51 D(4,2,3,9)      =    -58.092437     0.000002     0.146440   -57.945997
	   52 D(5,3,2,6)      =    -58.573247     0.000005     0.217892   -58.355356
	   53 D(5,3,2,7)      =     59.350646    -0.000005    -0.196981    59.153665
	   54 D(6,2,3,8)      =    179.624046     0.000003     0.172618   179.796664
	   55 D(6,2,3,9)      =     63.152005     0.000007     0.364332    63.516337
	   56 D(6,2,4,10)     =    179.419619    -0.000009    -0.368494   179.051125
	   57 D(6,2,4,11)     =    -62.624434     0.000012     0.553446   -62.070988
	   58 D(7,2,3,8)      =    -62.452061    -0.000007    -0.242254   -62.694315
	   59 D(7,2,3,9)      =   -178.924102    -0.000003    -0.050541  -178.974643
	   60 D(7,2,4,10)     =     63.643962    -0.000010    -0.323296    63.320666
	   61 D(7,2,4,11)     =   -178.400092     0.000011     0.598644  -177.801447
	   62 D(8,3,5,12)     =     61.939153     0.000004     0.081533    62.020685
	   63 D(8,3,5,13)     =    -58.138493     0.000003    -0.084089   -58.222582
	   64 D(8,3,5,14)     =   -178.188474     0.000000    -0.260563  -178.449037
	   65 D(9,3,5,12)     =    178.415196    -0.000002    -0.165898   178.249297
	   66 D(9,3,5,13)     =     58.337550    -0.000003    -0.331520    58.006030
	   67 D(9,3,5,14)     =    -61.712431    -0.000006    -0.507994   -62.220425
	   68 D(10,4,1,15)    =     30.552357    -0.000018    -0.421263    30.131093
	   69 D(11,4,1,15)    =    -89.650523     0.000018     0.301588   -89.348935
	 ---------------------------------------------------------------------------
	Successfully symmetrized geometry.

  ==> Convergence Check <==

  Measures of convergence in internal coordinates in au.
  Criteria marked as inactive (o), active & met (*), and active & unmet ( ).
  ---------------------------------------------------------------------------------------------
   Step     Total Energy     Delta E     MAX Force     RMS Force      MAX Disp      RMS Disp   
  ---------------------------------------------------------------------------------------------
    Convergence Criteria             o    2.50e-03 *    1.70e-03 *    1.00e-02 *    6.70e-03 *
  ---------------------------------------------------------------------------------------------
      2    -233.58147994   -1.48e-03 o    2.77e-03      7.26e-04 *    1.40e-02      4.97e-03 *  ~
  ---------------------------------------------------------------------------------------------

	Writing optimization data to binary file.
	Structure for next step:
	Cartesian Geometry (in Angstrom)
	    O    -2.3061964870   0.3917970591  -0.5323735000
	    C     0.0689026011   0.2161156435  -0.2265941495
	    C     1.2319284856  -0.4248654676   0.5349234322
	    C    -1.2870385837  -0.2656609279   0.2570934454
	    C     2.5954873667   0.0686563300   0.0451769014
	    H     0.1099712511   1.3039562550  -0.1252776882
	    H     0.1511090473  -0.0065638423  -1.2935468847
	    H     1.1800580746  -1.5139944805   0.4305126279
	    H     1.1299826425  -0.2111757006   1.6041772010
	    H    -1.3486852290  -1.3550999921   0.1452246554
	    H    -1.4219311481  -0.0237832457   1.3172493659
	    H     2.7340956137  -0.1610481999  -1.0136121426
	    H     3.4108739919  -0.3980195818   0.6007351749
	    H     2.6819530638   1.1507956219   0.1648610673
	    H    -3.0931979261  -0.1595862824  -0.6207850801
			--------------------------
			 OPTKING Finished Execution 
			--------------------------

    Structure for next step:
    Molecular point group: c1
    Full point group: C1

    Geometry (in Angstrom), charge = 0, multiplicity = 1:

    O           -2.306216441724     0.391629222040    -0.532791060178
    C            0.068882655735     0.215947805718    -0.227011708510
    C            1.231908544794    -0.425033307922     0.534505876268
    C           -1.287058534368    -0.265828767526     0.256675888305
    C            2.595467431319     0.068488491694     0.044759343480
    H            0.109951305916     1.303788421522    -0.125695246724
    H            0.151089102263    -0.006731680978    -1.293964447870
    H            1.180038133559    -1.514162325109     0.430095071545
    H            1.129962701329    -0.211343540040     1.603759649235
    H           -1.348705179919    -1.355267836063     0.144807097924
    H           -1.421951099356    -0.023951084452     1.316831813043
    H            2.734075678848    -0.161216039188    -1.014029704664
    H            3.410854059661    -0.398187421992     0.600317619216
    H            2.681933128722     1.150627787819     0.164443509897
    H           -3.093217883860    -0.159754121682    -0.621202640630

gradient() will perform analytic gradient computation.

*** tstart() called on daniele-Precision-5750
*** at Thu May 27 11:03:18 2021

   => Loading Basis Set <=

    Name: 6-311G
    Role: ORBITAL
    Keyword: BASIS
    atoms 1    entry O          line   126 file /home/daniele/anaconda3/envs/poltype/share/psi4/basis/6-311g.gbs 
    atoms 2-5  entry C          line    92 file /home/daniele/anaconda3/envs/poltype/share/psi4/basis/6-311g.gbs 
    atoms 6-15 entry H          line    21 file /home/daniele/anaconda3/envs/poltype/share/psi4/basis/6-311g.gbs 


         ---------------------------------------------------------
                                   SCF
               by Justin Turney, Rob Parrish, Andy Simmonett
                          and Daniel G. A. Smith
                              RKS Reference
                        8 Threads,    667 MiB Core
         ---------------------------------------------------------

  ==> Geometry <==

    Molecular point group: c1
    Full point group: C1

    Geometry (in Angstrom), charge = 0, multiplicity = 1:

       Center              X                  Y                   Z               Mass       
    ------------   -----------------  -----------------  -----------------  -----------------
         O           -2.306216441724     0.391629222040    -0.532791060178    15.994914619570
         C            0.068882655735     0.215947805718    -0.227011708510    12.000000000000
         C            1.231908544794    -0.425033307922     0.534505876268    12.000000000000
         C           -1.287058534368    -0.265828767526     0.256675888305    12.000000000000
         C            2.595467431319     0.068488491694     0.044759343480    12.000000000000
         H            0.109951305916     1.303788421522    -0.125695246724     1.007825032230
         H            0.151089102263    -0.006731680978    -1.293964447870     1.007825032230
         H            1.180038133559    -1.514162325109     0.430095071545     1.007825032230
         H            1.129962701329    -0.211343540040     1.603759649235     1.007825032230
         H           -1.348705179919    -1.355267836063     0.144807097924     1.007825032230
         H           -1.421951099356    -0.023951084452     1.316831813043     1.007825032230
         H            2.734075678848    -0.161216039188    -1.014029704664     1.007825032230
         H            3.410854059661    -0.398187421992     0.600317619216     1.007825032230
         H            2.681933128722     1.150627787819     0.164443509897     1.007825032230
         H           -3.093217883860    -0.159754121682    -0.621202640630     1.007825032230

  Running in c1 symmetry.

  Rotational constants: A =      0.61891  B =      0.06558  C =      0.06212 [cm^-1]
  Rotational constants: A =  18554.47452  B =   1966.16056  C =   1862.34610 [MHz]
  Nuclear repulsion =  184.417761276858982

  Charge       = 0
  Multiplicity = 1
  Electrons    = 42
  Nalpha       = 21
  Nbeta        = 21

  ==> Algorithm <==

  SCF Algorithm Type is DF.
  DIIS enabled.
  MOM disabled.
  Fractional occupation disabled.
  Guess Type is READ.
  Energy threshold   = 1.00e-08
  Density threshold  = 1.00e-08
  Integral threshold = 0.00e+00

  ==> Primary Basis <==

  Basis Set: 6-311G
    Blend: 6-311G
    Number of shells: 65
    Number of basis function: 95
    Number of Cartesian functions: 95
    Spherical Harmonics?: true
    Max angular momentum: 1

  ==> DFT Potential <==

   => Composite Functional: WB97X-D <= 

    wB97X-D Hyb-GGA Exchange-Correlation Functional

    J.-D. Chai and M. Head-Gordon, Phys. Chem. Chem. Phys. 10, 6615 (2008)

    Deriv               =              1
    GGA                 =           TRUE
    Meta                =          FALSE

    Exchange Hybrid     =           TRUE
    MP2 Hybrid          =          FALSE

   => Exchange-Correlation Functionals <=

    1.0000   wB97D range-separated functional

   => Exact (HF) Exchange <=

    0.7780            HF,LR [omega = 0.2000]
    0.2220               HF 

   => Molecular Quadrature <=

    Radial Scheme          =       TREUTLER
    Pruning Scheme         =           FLAT
    Nuclear Scheme         =       TREUTLER

    BS radius alpha        =              1
    Pruning alpha          =              1
    Radial Points          =             75
    Spherical Points       =            302
    Total Points           =         336077
    Total Blocks           =           2584
    Max Points             =            256
    Max Functions          =             89

   => WB97X-D: Empirical Dispersion <=

    Chai and Head-Gordon Dispersion Correction
    Chai, J.-D.; Head-Gordon, M. (2010), J. Chem. Phys., 132: 6615-6620

        s6 =       1.000000

   => Loading Basis Set <=

    Name: (6-311G AUX)
    Role: JKFIT
    Keyword: DF_BASIS_SCF
    atoms 1    entry O          line   229 file /home/daniele/anaconda3/envs/poltype/share/psi4/basis/cc-pvtz-jkfit.gbs 
    atoms 2-5  entry C          line   125 file /home/daniele/anaconda3/envs/poltype/share/psi4/basis/cc-pvtz-jkfit.gbs 
    atoms 6-15 entry H          line    51 file /home/daniele/anaconda3/envs/poltype/share/psi4/basis/cc-pvtz-jkfit.gbs 

   => Loading Basis Set <=

    Name: 6-311G
    Role: ORBITAL
    Keyword: BASIS
    atoms 1    entry O          line   126 file /home/daniele/anaconda3/envs/poltype/share/psi4/basis/6-311g.gbs 
    atoms 2-5  entry C          line    92 file /home/daniele/anaconda3/envs/poltype/share/psi4/basis/6-311g.gbs 
    atoms 6-15 entry H          line    21 file /home/daniele/anaconda3/envs/poltype/share/psi4/basis/6-311g.gbs 

  Reading orbitals from file 180, no projection.

  ==> Pre-Iterations <==

   -------------------------------------------------------
    Irrep   Nso     Nmo     Nalpha   Nbeta   Ndocc  Nsocc
   -------------------------------------------------------
     A         95      95       0       0       0       0
   -------------------------------------------------------
    Total      95      95      21      21      21       0
   -------------------------------------------------------

  ==> Integral Setup <==

  ==> DiskDFJK: Density-Fitted J/K Matrices <==

    J tasked:                  Yes
    K tasked:                  Yes
    wK tasked:                 Yes
    Omega:               2.000E-01
    OpenMP threads:              8
    Integrals threads:           8
    Memory [MiB]:               34
    Algorithm:                Disk
    Integral Cache:           NONE
    Schwarz Cutoff:          1E-12
    Fitting Condition:       1E-10

   => Auxiliary Basis Set <=

  Basis Set: (6-311G AUX)
    Blend: CC-PVTZ-JKFIT
    Number of shells: 225
    Number of basis function: 695
    Number of Cartesian functions: 830
    Spherical Harmonics?: true
    Max angular momentum: 4

  Cached 100.0% of DFT collocation blocks in 0.664 [GiB].

  Minimum eigenvalue in the overlap matrix is 2.3307717433E-03.
  Using Symmetric Orthogonalization.

  SCF Guess: Orbitals guess was supplied from a previous computation.

  ==> Iterations <==

                           Total Energy        Delta E     RMS |[F,P]|

   @DF-RKS iter   0:  -233.58309460728347   -2.33583e+02   1.16360e-04 
   @DF-RKS iter   1:  -233.58157476906499    1.51984e-03   2.73048e-05 DIIS
   @DF-RKS iter   2:  -233.58157662718199   -1.85812e-06   2.57604e-05 DIIS
   @DF-RKS iter   3:  -233.58157890649881   -2.27932e-06   3.60325e-06 DIIS
   @DF-RKS iter   4:  -233.58157896369536   -5.71966e-08   2.00575e-06 DIIS
   @DF-RKS iter   5:  -233.58157898152498   -1.78296e-08   2.12108e-07 DIIS
   @DF-RKS iter   6:  -233.58157898193926   -4.14275e-10   4.75655e-08 DIIS
   @DF-RKS iter   7:  -233.58157898195569   -1.64277e-11   2.26996e-08 DIIS
   @DF-RKS iter   8:  -233.58157898195904   -3.35376e-12   2.24161e-09 DIIS
  Energy and wave function converged.


  ==> Post-Iterations <==

    Orbital Energies [Eh]
    ---------------------

    Doubly Occupied:                                                      

       1A    -19.233891     2A    -10.329885     3A    -10.281010  
       4A    -10.273740     5A    -10.269451     6A     -1.118712  
       7A     -0.899780     8A     -0.823362     9A     -0.726742  
      10A     -0.678759    11A     -0.598031    12A     -0.571775  
      13A     -0.524245    14A     -0.518577    15A     -0.483594  
      16A     -0.451471    17A     -0.434721    18A     -0.419206  
      19A     -0.409396    20A     -0.399831    21A     -0.350202  

    Virtual:                                                              

      22A      0.117678    23A      0.125218    24A      0.149888  
      25A      0.154941    26A      0.170608    27A      0.206829  
      28A      0.210896    29A      0.218966    30A      0.223807  
      31A      0.243042    32A      0.249936    33A      0.303122  
      34A      0.311227    35A      0.329768    36A      0.385392  
      37A      0.388973    38A      0.417214    39A      0.448257  
      40A      0.455403    41A      0.471497    42A      0.508240  
      43A      0.530854    44A      0.607153    45A      0.618230  
      46A      0.651649    47A      0.653600    48A      0.675241  
      49A      0.676481    50A      0.686368    51A      0.693143  
      52A      0.704310    53A      0.708464    54A      0.713992  
      55A      0.721965    56A      0.727081    57A      0.755880  
      58A      0.852139    59A      0.964930    60A      1.012829  
      61A      1.057019    62A      1.093342    63A      1.109964  
      64A      1.170796    65A      1.588430    66A      2.263316  
      67A      2.345387    68A      2.351038    69A      2.352980  
      70A      2.360162    71A      2.364759    72A      2.386927  
      73A      2.392931    74A      2.411669    75A      2.434837  
      76A      2.861069    77A      2.911084    78A      2.919444  
      79A      2.934435    80A      2.956063    81A      2.966541  
      82A      2.989870    83A      3.069098    84A      3.093181  
      85A      3.168054    86A      3.180607    87A      3.314827  
      88A      4.958783    89A      5.016100    90A      5.179245  
      91A     23.431505    92A     23.572048    93A     23.649170  
      94A     23.727572    95A     49.965707  

    Final Occupation by Irrep:
              A 
    DOCC [    21 ]

  @DF-RKS Final Energy:  -233.58157898195904

   => Energetics <=

    Nuclear Repulsion Energy =            184.4177612768589825
[...]
    Fitting Condition:       1E-10

   => Auxiliary Basis Set <=

  Basis Set: (6-311G AUX)
    Blend: CC-PVTZ-JKFIT
    Number of shells: 225
    Number of basis function: 695
    Number of Cartesian functions: 830
    Spherical Harmonics?: true
    Max angular momentum: 4

  ==> DFT Potential <==

   => Composite Functional: WB97X-D <= 

    wB97X-D Hyb-GGA Exchange-Correlation Functional

    J.-D. Chai and M. Head-Gordon, Phys. Chem. Chem. Phys. 10, 6615 (2008)

    Deriv               =              1
    GGA                 =           TRUE
    Meta                =          FALSE

    Exchange Hybrid     =           TRUE
    MP2 Hybrid          =          FALSE

   => Exchange-Correlation Functionals <=

    1.0000   wB97D range-separated functional

   => Exact (HF) Exchange <=

    0.7780            HF,LR [omega = 0.2000]
    0.2220               HF 

   => Molecular Quadrature <=

    Radial Scheme          =       TREUTLER
    Pruning Scheme         =           FLAT
    Nuclear Scheme         =       TREUTLER

    BS radius alpha        =              1
    Pruning alpha          =              1
    Radial Points          =             75
    Spherical Points       =            302
    Total Points           =         336077
    Total Blocks           =           2584
    Max Points             =            256
    Max Functions          =             89


  -Total Gradient:
     Atom            X                  Y                   Z
    ------   -----------------  -----------------  -----------------
       1       -0.000121387947    -0.000716219312     0.002115174581
       2        0.000897249665    -0.000362570362    -0.000418431447
       3       -0.000504574828    -0.000211348044    -0.000454174452
       4       -0.000733648037     0.001718567854     0.000174575704
       5        0.000073127344     0.000156621010    -0.000213065842
       6       -0.000023814678    -0.000067530575     0.000006874648
       7       -0.000044056006     0.000001325053     0.000104796120
       8        0.000015044810     0.000086007058    -0.000041761952
       9        0.000034118408     0.000012012159    -0.000064820750
      10       -0.000126996208    -0.000104509941    -0.000016116858
      11       -0.000195992783     0.000077162347     0.000083371993
      12       -0.000073581328     0.000021935215     0.000194024270
      13       -0.000000172015    -0.000056189626     0.000047599119
      14       -0.000078878681    -0.000207976055    -0.000008097011
      15        0.000801097426    -0.000367860348    -0.001523818910


*** tstop() called on daniele-Precision-5750 at Thu May 27 11:03:23 2021
Module time:
	user time   =      14.11 seconds =       0.24 minutes
	system time =       0.10 seconds =       0.00 minutes
	total time  =          1 seconds =       0.02 minutes
Total time:
	user time   =     122.82 seconds =       2.05 minutes
	system time =       1.88 seconds =       0.03 minutes
	total time  =         16 seconds =       0.27 minutes

			-----------------------------------------
			 OPTKING 2.0: for geometry optimizations 
			  - R.A. King,  Bethel University        
			-----------------------------------------
	At level 1: Red. Int., RFO, no backsteps, dynamic trust

	Previous internal coordinate definitions found.
	---Fragment 1 Geometry and Gradient---
	 O          -4.3581174609        0.7400719724       -1.0068291858
	 C           0.1301693541        0.4080822102       -0.4289899564
	 C           2.3279697613       -0.8031965462        1.0100697186
	 C          -2.4321881374       -0.5023435669        0.4850471319
	 C           4.9047226127        0.1294244920        0.0845829007
	 H           0.2077778553        2.4638030422       -0.2375295916
	 H           0.2855170238       -0.0127210334       -2.4452384226
	 H           2.2299488900       -2.8613521039        0.8127618931
	 H           2.1353200375       -0.3993814091        3.0306665081
	 H          -2.5486834140       -2.5610850368        0.2736457561
	 H          -2.6870981416       -0.0452609900        2.4884514799
	 H           5.1666542393       -0.3046541611       -1.9162384249
	 H           6.4455800267       -0.7524651742        1.1344358886
	 H           5.0681191001        2.1743713913        0.3107531968
	 H          -5.8453346469       -0.3018915374       -1.1739028592
	            -0.0001213879       -0.0007162193        0.0021151746
	             0.0008972497       -0.0003625704       -0.0004184314
	            -0.0005045748       -0.0002113480       -0.0004541745
	            -0.0007336480        0.0017185679        0.0001745757
	             0.0000731273        0.0001566210       -0.0002130658
	            -0.0000238147       -0.0000675306        0.0000068746
	            -0.0000440560        0.0000013251        0.0001047961
	             0.0000150448        0.0000860071       -0.0000417620
	             0.0000341184        0.0000120122       -0.0000648208
	            -0.0001269962       -0.0001045099       -0.0000161169
	            -0.0001959928        0.0000771623        0.0000833720
	            -0.0000735813        0.0000219352        0.0001940243
	            -0.0000001720       -0.0000561896        0.0000475991
	            -0.0000788787       -0.0002079761       -0.0000080970
	             0.0008010974       -0.0003678603       -0.0015238189

	---Fragment 1 Intrafragment Coordinates---
	 - Coordinate -           - BOHR/RAD -       - ANG/DEG -
	 R(1,4)           =         2.734684	       1.447132
	 R(1,15)          =         1.823572	       0.964993
	 R(2,3)           =         2.892821	       1.530815
	 R(2,4)           =         2.868800	       1.518104
	 R(2,6)           =         2.066076	       1.093320
	 R(2,7)           =         2.065543	       1.093038
	 R(3,5)           =         2.892397	       1.530591
	 R(3,8)           =         2.069914	       1.095351
	 R(3,9)           =         2.069539	       1.095153
	 R(4,10)          =         2.072843	       1.096901
	 R(4,11)          =         2.070636	       1.095733
	 R(5,12)          =         2.064054	       1.092250
	 R(5,13)          =         2.062562	       1.091461
	 R(5,14)          =         2.063894	       1.092166
	 B(1,4,2)         =         1.887080	     108.121701
	 B(1,4,10)        =         1.934791	     110.855340
	 B(1,4,11)        =         1.918604	     109.927933
	 B(2,3,5)         =         1.963458	     112.497843
	 B(2,3,8)         =         1.910220	     109.447560
	 B(2,3,9)         =         1.910566	     109.467350
	 B(2,4,10)        =         1.910172	     109.444798
	 B(2,4,11)        =         1.926415	     110.375457
	 B(3,2,4)         =         1.968399	     112.780931
	 B(3,2,6)         =         1.919823	     109.997739
	 B(3,2,7)         =         1.921058	     110.068529
	 B(3,5,12)        =         1.934152	     110.818733
	 B(3,5,13)        =         1.944216	     111.395372
	 B(3,5,14)        =         1.933651	     110.790020
	 B(4,1,15)        =         1.944162	     111.392287
	 B(4,2,6)         =         1.896303	     108.650166
	 B(4,2,7)         =         1.889706	     108.272191
	 B(5,3,8)         =         1.909531	     109.408075
	 B(5,3,9)         =         1.909664	     109.415697
	 B(6,2,7)         =         1.865375	     106.878087
	 B(8,3,9)         =         1.857377	     106.419871
	 B(10,4,11)       =         1.887041	     108.119470
	 B(12,5,13)       =         1.884610	     107.980193
	 B(12,5,14)       =         1.880266	     107.731317
	 B(13,5,14)       =         1.884645	     107.982223
	*D(1,4,2,3)       =        -3.134179	    -179.575208
	 D(1,4,2,6)       =         1.015809	      58.201566
	 D(1,4,2,7)       =        -1.004069	     -57.528894
	*D(2,3,5,12)      =        -1.044574	     -59.849704
	 D(2,3,5,13)      =         3.139970	     179.907029
	 D(2,3,5,14)      =         1.041623	      59.680573
	*D(2,4,1,15)      =         2.619717	     150.098729
	 D(3,2,4,10)      =        -1.024956	     -58.725648
	 D(3,2,4,11)      =         1.049855	      60.152239
	*D(4,2,3,5)       =        -3.138411	    -179.817689
	 D(4,2,3,8)       =         1.018126	      58.334330
	 D(4,2,3,9)       =        -1.011348	     -57.945997
	 D(5,3,2,6)       =        -1.018493	     -58.355356
	 D(5,3,2,7)       =         1.032426	      59.153665
	 D(6,2,3,8)       =         3.138044	     179.796664
	 D(6,2,3,9)       =         1.108569	      63.516337
	 D(6,2,4,10)      =         3.125032	     179.051125
	 D(6,2,4,11)      =        -1.083343	     -62.070988
	 D(7,2,3,8)       =        -1.094222	     -62.694315
	 D(7,2,3,9)       =        -3.123697	    -178.974643
	 D(7,2,4,10)      =         1.105154	      63.320666
	 D(7,2,4,11)      =        -3.103221	    -177.801447
	 D(8,3,5,12)      =         1.082465	      62.020685
	 D(8,3,5,13)      =        -1.016176	     -58.222582
	 D(8,3,5,14)      =        -3.114523	    -178.449037
	 D(9,3,5,12)      =         3.111037	     178.249297
	 D(9,3,5,13)      =         1.012396	      58.006030
	 D(9,3,5,14)      =        -1.085951	     -62.220425
	 D(10,4,1,15)     =         0.525887	      30.131093
	 D(11,4,1,15)     =        -1.559433	     -89.348935

	Current energy   :      -233.5815789820

	Energy change for the previous step:
		Projected    :        -0.0001745869
		Actual       :        -0.0000990460

	Performing BFGS update.
	Previous computed or guess Hessian on step 1.
	Steps to be used in Hessian update: 2 1
	Taking RFO optimization step.
	Going to follow RFO solution 1.
	Using RFO vector 1.
	Norm of target step-size    0.00594
	Projected energy change by RFO approximation:        -0.0000076865

	Back-transformation to cartesian coordinates...
	Successfully converged to displaced geometry.

	Back-transformation to cartesian coordinates to adjust frozen coordinates...
	Successfully converged to displaced geometry.

	--- Internal Coordinate Step in ANG or DEG, aJ/ANG or AJ/DEG ---
	 ---------------------------------------------------------------------------
	   Coordinate                Previous        Force       Change         New 
	   ----------                --------       ------       ------       ------
	    1 R(1,4)          =      1.447132     0.010862     0.001752     1.448884
	    2 R(1,15)         =      0.964993     0.002456     0.000148     0.965141
	    3 R(2,3)          =      1.530815     0.004890     0.001119     1.531934
	    4 R(2,4)          =      1.518104    -0.003328    -0.000855     1.517249
	    5 R(2,6)          =      1.093320     0.000564     0.000058     1.093378
	    6 R(2,7)          =      1.093038     0.000872     0.000120     1.093158
	    7 R(3,5)          =      1.530591     0.000570     0.000114     1.530704
	    8 R(3,8)          =      1.095351     0.000737     0.000112     1.095463
	    9 R(3,9)          =      1.095153     0.000519     0.000071     1.095224
	   10 R(4,10)         =      1.096901    -0.000969    -0.000204     1.096697
	   11 R(4,11)         =      1.095733    -0.001021    -0.000224     1.095509
	   12 R(5,12)         =      1.092250     0.001653     0.000284     1.092534
	   13 R(5,13)         =      1.091461    -0.000371    -0.000103     1.091358
	   14 R(5,14)         =      1.092166     0.001663     0.000282     1.092448
	   15 B(1,4,2)        =    108.121701     0.000003     0.023620   108.145322
	   16 B(1,4,10)       =    110.855340     0.000004    -0.004385   110.850955
	   17 B(1,4,11)       =    109.927933     0.000009     0.047881   109.975814
	   18 B(2,3,5)        =    112.497843     0.000004     0.021695   112.519538
	   19 B(2,3,8)        =    109.447560    -0.000002    -0.002853   109.444707
	   20 B(2,3,9)        =    109.467350    -0.000002    -0.014409   109.452942
	   21 B(2,4,10)       =    109.444798    -0.000008    -0.041455   109.403343
	   22 B(2,4,11)       =    110.375457    -0.000011    -0.034746   110.340711
	   23 B(3,2,4)        =    112.780931     0.000003     0.002485   112.783415
	   24 B(3,2,6)        =    109.997739    -0.000003    -0.017991   109.979747
	   25 B(3,2,7)        =    110.068529    -0.000001    -0.007812   110.060717
	   26 B(3,5,12)       =    110.818733     0.000003     0.010580   110.829313
	   27 B(3,5,13)       =    111.395372     0.000002     0.030187   111.425559
	   28 B(3,5,14)       =    110.790020     0.000005     0.022450   110.812470
	   29 B(4,1,15)       =    111.392287    -0.000029    -0.147458   111.244830
	   30 B(4,2,6)        =    108.650166     0.000000     0.017202   108.667368
	   31 B(4,2,7)        =    108.272191     0.000001     0.028795   108.300986
	   32 B(5,3,8)        =    109.408075    -0.000000     0.012253   109.420328
	   33 B(5,3,9)        =    109.415697     0.000001     0.015268   109.430965
	   34 B(6,2,7)        =    106.878087    -0.000000    -0.023219   106.854868
	   35 B(8,3,9)        =    106.419871    -0.000001    -0.035154   106.384717
	   36 B(10,4,11)      =    108.119470     0.000003     0.007983   108.127453
	   37 B(12,5,13)      =    107.980193    -0.000003    -0.024075   107.956118
	   38 B(12,5,14)      =    107.731317    -0.000004    -0.018633   107.712684
	   39 B(13,5,14)      =    107.982223    -0.000004    -0.024032   107.958190
	   40 *D(1,4,2,3)     =   -179.575208     0.000000    -0.000000  -179.575208
	   41 D(1,4,2,6)      =     58.201566     0.000000     0.009029    58.210594
	   42 D(1,4,2,7)      =    -57.528894     0.000000     0.011959   -57.516934
	   43 *D(2,3,5,12)    =    -59.849704     0.000000    -0.000000   -59.849704
	   44 D(2,3,5,13)     =    179.907029     0.000000     0.003124   179.910153
	   45 D(2,3,5,14)     =     59.680573     0.000000    -0.001802    59.678771
	   46 *D(2,4,1,15)    =    150.098729    -0.000000    -0.000000   150.098729
	   47 D(3,2,4,10)     =    -58.725648     0.000000    -0.015546   -58.741195
	   48 D(3,2,4,11)     =     60.152239    -0.000001    -0.052464    60.099775
	   49 *D(4,2,3,5)     =   -179.817689    -0.000000    -0.000000  -179.817689
	   50 D(4,2,3,8)      =     58.334330    -0.000000    -0.028208    58.306122
	   51 D(4,2,3,9)      =    -57.945997     0.000001     0.023890   -57.922107
	   52 D(5,3,2,6)      =    -58.355356     0.000000     0.010887   -58.344469
	   53 D(5,3,2,7)      =     59.153665    -0.000001    -0.032989    59.120676
	   54 D(6,2,3,8)      =    179.796664    -0.000000    -0.017321   179.779343
	   55 D(6,2,3,9)      =     63.516337     0.000001     0.034777    63.551113
	   56 D(6,2,4,10)     =    179.051125     0.000001    -0.006518   179.044607
	   57 D(6,2,4,11)     =    -62.070988    -0.000001    -0.043435   -62.114423
	   58 D(7,2,3,8)      =    -62.694315    -0.000001    -0.061197   -62.755512
	   59 D(7,2,3,9)      =   -178.974643     0.000000    -0.009099  -178.983742
	   60 D(7,2,4,10)     =     63.320666     0.000001    -0.003587    63.317079
	   61 D(7,2,4,11)     =   -177.801447    -0.000001    -0.040505  -177.841952
	   62 D(8,3,5,12)     =     62.020685     0.000000     0.019625    62.040311
	   63 D(8,3,5,13)     =    -58.222582     0.000000     0.022750   -58.199832
	   64 D(8,3,5,14)     =   -178.449037     0.000000     0.017823  -178.431214
	   65 D(9,3,5,12)     =    178.249297    -0.000000    -0.007045   178.242253
	   66 D(9,3,5,13)     =     58.006030    -0.000000    -0.003920    58.002110
	   67 D(9,3,5,14)     =    -62.220425     0.000000    -0.008847   -62.229272
	   68 D(10,4,1,15)    =     30.131093     0.000001     0.038585    30.169678
	   69 D(11,4,1,15)    =    -89.348935    -0.000001     0.000646   -89.348289
	 ---------------------------------------------------------------------------
	Successfully symmetrized geometry.

  ==> Convergence Check <==

  Measures of convergence in internal coordinates in au.
  Criteria marked as inactive (o), active & met (*), and active & unmet ( ).
  ---------------------------------------------------------------------------------------------
   Step     Total Energy     Delta E     MAX Force     RMS Force      MAX Disp      RMS Disp   
  ---------------------------------------------------------------------------------------------
    Convergence Criteria             o    2.50e-03 *    1.70e-03 *    1.00e-02 *    6.70e-03 *
  ---------------------------------------------------------------------------------------------
      3    -233.58157898   -9.90e-05 o    1.32e-03 *    1.99e-04 *    3.31e-03 *    7.15e-04 *  ~
  ---------------------------------------------------------------------------------------------


  **** Optimization is complete! (in 3 steps) ****

  ==> Optimization Summary <==

  Measures of convergence in internal coordinates in au.
  --------------------------------------------------------------------------------------------------------------- ~
   Step         Total Energy             Delta E       MAX Force       RMS Force        MAX Disp        RMS Disp  ~
  --------------------------------------------------------------------------------------------------------------- ~
      1    -233.580001957491   -233.580001957491      0.01494929      0.00366421      0.06475632      0.01563409  ~
      2    -233.581479935967     -0.001477978476      0.00277052      0.00072638      0.01397011      0.00497391  ~
      3    -233.581578981959     -0.000099045992      0.00131841      0.00019924      0.00331061      0.00071471  ~
  --------------------------------------------------------------------------------------------------------------- ~

	Writing optimization data to binary file.
	Final energy is   -233.5815789819590
	Final (previous) structure:
	Cartesian Geometry (in Angstrom)
	    O    -2.3062164327   0.3916292205  -0.5327910581
	    C     0.0688826555   0.2159478049  -0.2270117076
	    C     1.2319085400  -0.4250333063   0.5345058742
	    C    -1.2870585293  -0.2658287665   0.2566758873
	    C     2.5954674211   0.0684884914   0.0447593433
	    H     0.1099513055   1.3037884164  -0.1256952462
	    H     0.1510891017  -0.0067316810  -1.2939644428
	    H     1.1800381289  -1.5141623192   0.4300950699
	    H     1.1299626969  -0.2113435392   1.6037596429
	    H    -1.3487051746  -1.3552678307   0.1448070974
	    H    -1.4219510938  -0.0239510844   1.3168318079
	    H     2.7340756681  -0.1612160386  -1.0140297007
	    H     3.4108540463  -0.3981874204   0.6003176169
	    H     2.6819331182   1.1506277833   0.1644435093
	    H    -3.0932178717  -0.1597541211  -0.6212026382
	Saving final (previous) structure.
			--------------------------
			 OPTKING Finished Execution 
			--------------------------

    Final optimized geometry and variables:
    Molecular point group: c1
    Full point group: C1

    Geometry (in Angstrom), charge = 0, multiplicity = 1:

    O           -2.306216441724     0.391629222040    -0.532791060178
    C            0.068882655735     0.215947805718    -0.227011708510
    C            1.231908544794    -0.425033307922     0.534505876268
    C           -1.287058534368    -0.265828767526     0.256675888305
    C            2.595467431319     0.068488491694     0.044759343480
    H            0.109951305916     1.303788421522    -0.125695246724
    H            0.151089102263    -0.006731680978    -1.293964447870
    H            1.180038133559    -1.514162325109     0.430095071545
    H            1.129962701329    -0.211343540040     1.603759649235
    H           -1.348705179919    -1.355267836063     0.144807097924
    H           -1.421951099356    -0.023951084452     1.316831813043
    H            2.734075678848    -0.161216039188    -1.014029704664
    H            3.410854059661    -0.398187421992     0.600317619216
    H            2.681933128722     1.150627787819     0.164443509897
    H           -3.093217883860    -0.159754121682    -0.621202640630

	Removing binary optimization data file.
	Cleaning optimization helper files.

    Psi4 stopped on: Thursday, 27 May 2021 11:03AM
    Psi4 wall time for execution: 0:00:16.61

*** Psi4 exiting successfully. Buy a developer a beer!
