
    -----------------------------------------------------------------------
          Psi4: An Open-Source Ab Initio Electronic Structure Package
                               Psi4 1.3.2 release

                         Git: Rev {HEAD} ecbda83 


    R. M. Parrish, L. A. Burns, D. G. A. Smith, A. C. Simmonett,
    A. E. DePrince III, E. G. Hohenstein, U. Bozkaya, A. Yu. Sokolov,
    R. Di Remigio, R. M. Richard, J. F. Gonthier, A. M. James,
    H. R. McAlexander, A. Kumar, M. Saitow, X. Wang, B. P. Pritchard,
    P. Verma, H. F. Schaefer III, K. Patkowski, R. A. King, E. F. Valeev,
    F. A. Evangelista, J. M. Turney, T. D. Crawford, and C. D. Sherrill,
    J. Chem. Theory Comput. 13(7) pp 3185--3197 (2017).
    (doi: 10.1021/acs.jctc.7b00174)


                         Additional Contributions by
    P. Kraus, H. Kruse, M. H. Lechner, M. C. Schieber, R. A. Shaw,
    A. Alenaizan, R. Galvelis, Z. L. Glick, S. Lehtola, and J. P. Misiewicz

    -----------------------------------------------------------------------


    Psi4 started on: Thursday, 27 May 2021 11:31AM

    Process ID: 228117
    Host:       daniele-Precision-5750
    PSIDATADIR: /home/daniele/anaconda3/envs/poltype/share/psi4
    Memory:     500.0 MiB
    Threads:    1
    
  ==> Input File <==

--------------------------------------------------------------------------
molecule { 
0 1
 O   -2.306216    0.391629   -0.532791
 C    0.068883    0.215948   -0.227012
 C    1.231909   -0.425033    0.534506
 C   -1.287059   -0.265829    0.256676
 C    2.595467    0.068488    0.044759
 H    0.109951    1.303788   -0.125695
 H    0.151089   -0.006732   -1.293964
 H    1.180038   -1.514162    0.430095
 H    1.129963   -0.211344    1.603760
 H   -1.348705   -1.355268    0.144807
 H   -1.421951   -0.023951    1.316832
 H    2.734076   -0.161216   -1.014030
 H    3.410854   -0.398187    0.600318
 H    2.681933    1.150628    0.164444
 H   -3.093218   -0.159754   -0.621203
}
memory 700MB
set_num_threads(8)
psi4_io.set_default_path("/home/daniele/PSI4_sctatch/Psi4-1butanol_3D")
set freeze_core True
E, wfn = energy('wb97x-d/6-311+G*',return_wfn=True)
oeprop(wfn,"WIBERG_LOWDIN_INDICES")
clean()
--------------------------------------------------------------------------

  Memory set to 667.572 MiB by Python driver.
  Threads set to 8 by Python driver.

*** tstart() called on daniele-Precision-5750
*** at Thu May 27 11:31:27 2021

   => Loading Basis Set <=

    Name: 6-311+G*
    Role: ORBITAL
    Keyword: BASIS
    atoms 1    entry O          line   172 file /home/daniele/anaconda3/envs/poltype/share/psi4/basis/6-311pgs.gbs 
    atoms 2-5  entry C          line   130 file /home/daniele/anaconda3/envs/poltype/share/psi4/basis/6-311pgs.gbs 
    atoms 6-15 entry H          line    47 file /home/daniele/anaconda3/envs/poltype/share/psi4/basis/6-311pgs.gbs 


         ---------------------------------------------------------
                                   SCF
               by Justin Turney, Rob Parrish, Andy Simmonett
                          and Daniel G. A. Smith
                              RKS Reference
                        8 Threads,    667 MiB Core
         ---------------------------------------------------------

  ==> Geometry <==

    Molecular point group: c1
    Full point group: C1

    Geometry (in Angstrom), charge = 0, multiplicity = 1:

       Center              X                  Y                   Z               Mass       
    ------------   -----------------  -----------------  -----------------  -----------------
         O           -2.306216080310     0.391629086079    -0.532790965670    15.994914619570
         C            0.068882919690     0.215948086079    -0.227011965670    12.000000000000
         C            1.231908919690    -0.425032913921     0.534506034330    12.000000000000
         C           -1.287059080310    -0.265828913921     0.256676034330    12.000000000000
         C            2.595466919690     0.068488086079     0.044759034330    12.000000000000
         H            0.109950919690     1.303788086079    -0.125694965670     1.007825032230
         H            0.151088919690    -0.006731913921    -1.293963965670     1.007825032230
         H            1.180037919690    -1.514161913921     0.430095034330     1.007825032230
         H            1.129962919690    -0.211343913921     1.603760034330     1.007825032230
         H           -1.348705080310    -1.355267913921     0.144807034330     1.007825032230
         H           -1.421951080310    -0.023950913921     1.316832034330     1.007825032230
         H            2.734075919690    -0.161215913921    -1.014029965670     1.007825032230
         H            3.410853919690    -0.398186913921     0.600318034330     1.007825032230
         H            2.681932919690     1.150628086079     0.164444034330     1.007825032230
         H           -3.093218080310    -0.159753913921    -0.621202965670     1.007825032230

  Running in c1 symmetry.

  Rotational constants: A =      0.61891  B =      0.06558  C =      0.06212 [cm^-1]
  Rotational constants: A =  18554.47330  B =   1966.16081  C =   1862.34632 [MHz]
  Nuclear repulsion =  184.417767581594546

  Charge       = 0
  Multiplicity = 1
  Electrons    = 42
  Nalpha       = 21
  Nbeta        = 21

  ==> Algorithm <==

  SCF Algorithm Type is DF.
  DIIS enabled.
  MOM disabled.
  Fractional occupation disabled.
  Guess Type is SAD.
  Energy threshold   = 1.00e-06
  Density threshold  = 1.00e-06
  Integral threshold = 0.00e+00

  ==> Primary Basis <==

  Basis Set: 6-311+G*
    Blend: 6-311+G*
    Number of shells: 80
    Number of basis function: 140
    Number of Cartesian functions: 145
    Spherical Harmonics?: true
    Max angular momentum: 2

  ==> DFT Potential <==

   => Composite Functional: WB97X-D <= 

    wB97X-D Hyb-GGA Exchange-Correlation Functional

    J.-D. Chai and M. Head-Gordon, Phys. Chem. Chem. Phys. 10, 6615 (2008)

    Deriv               =              1
    GGA                 =           TRUE
    Meta                =          FALSE

    Exchange Hybrid     =           TRUE
    MP2 Hybrid          =          FALSE

   => Exchange-Correlation Functionals <=

    1.0000   wB97D range-separated functional

   => Exact (HF) Exchange <=

    0.7780            HF,LR [omega = 0.2000]
    0.2220               HF 

   => Molecular Quadrature <=

    Radial Scheme          =       TREUTLER
    Pruning Scheme         =           FLAT
    Nuclear Scheme         =       TREUTLER

    BS radius alpha        =              1
    Pruning alpha          =              1
    Radial Points          =             75
    Spherical Points       =            302
    Total Points           =         339750
    Total Blocks           =           2603
    Max Points             =            256
    Max Functions          =            132

   => WB97X-D: Empirical Dispersion <=

    Chai and Head-Gordon Dispersion Correction
    Chai, J.-D.; Head-Gordon, M. (2010), J. Chem. Phys., 132: 6615-6620

        s6 =       1.000000

   => Loading Basis Set <=

    Name: (6-311+G* AUX)
    Role: JKFIT
    Keyword: DF_BASIS_SCF
    atoms 1    entry O          line   324 file /home/daniele/anaconda3/envs/poltype/share/psi4/basis/heavy-aug-cc-pvtz-jkfit.gbs 
    atoms 2-5  entry C          line   200 file /home/daniele/anaconda3/envs/poltype/share/psi4/basis/heavy-aug-cc-pvtz-jkfit.gbs 
    atoms 6-15 entry H          line   116 file /home/daniele/anaconda3/envs/poltype/share/psi4/basis/heavy-aug-cc-pvtz-jkfit.gbs 

  ==> Pre-Iterations <==

   -------------------------------------------------------
    Irrep   Nso     Nmo     Nalpha   Nbeta   Ndocc  Nsocc
   -------------------------------------------------------
     A        140     140       0       0       0       0
   -------------------------------------------------------
    Total     140     140      21      21      21       0
   -------------------------------------------------------

  ==> Integral Setup <==

  ==> DiskDFJK: Density-Fitted J/K Matrices <==

    J tasked:                  Yes
    K tasked:                  Yes
    wK tasked:                 Yes
    Omega:               2.000E-01
    OpenMP threads:              8
    Integrals threads:           8
    Memory [MiB]:               76
    Algorithm:                Disk
    Integral Cache:           NONE
    Schwarz Cutoff:          1E-12
    Fitting Condition:       1E-10

   => Auxiliary Basis Set <=

  Basis Set: (6-311+G* AUX)
    Blend: HEAVY-AUG-CC-PVTZ-JKFIT
    Number of shells: 250
    Number of basis function: 820
    Number of Cartesian functions: 1005
    Spherical Harmonics?: true
    Max angular momentum: 4

  Cached 50.0% of DFT collocation blocks in 0.512 [GiB].

  Minimum eigenvalue in the overlap matrix is 2.4283430435E-05.
  Using Symmetric Orthogonalization.

  SCF Guess: Superposition of Atomic Densities via on-the-fly atomic UHF.

  ==> Iterations <==

                           Total Energy        Delta E     RMS |[F,P]|

   @DF-RKS iter SAD:  -232.91548918482047   -2.32915e+02   0.00000e+00 
   @DF-RKS iter   1:  -233.25356873016932   -3.38080e-01   6.39558e-03 DIIS
   @DF-RKS iter   2:  -233.36971066667451   -1.16142e-01   5.73815e-03 DIIS
   @DF-RKS iter   3:  -233.64240382579692   -2.72693e-01   6.90755e-04 DIIS
   @DF-RKS iter   4:  -233.64541006547185   -3.00624e-03   2.86674e-04 DIIS
   @DF-RKS iter   5:  -233.64607720766506   -6.67142e-04   3.81936e-05 DIIS
   @DF-RKS iter   6:  -233.64609465177972   -1.74441e-05   1.39696e-05 DIIS
   @DF-RKS iter   7:  -233.64609654985881   -1.89808e-06   3.20919e-06 DIIS
   @DF-RKS iter   8:  -233.64609667427368   -1.24415e-07   5.23413e-07 DIIS
  Energy and wave function converged.


  ==> Post-Iterations <==

    Orbital Energies [Eh]
    ---------------------

    Doubly Occupied:                                                      

       1A    -19.244250     2A    -10.328195     3A    -10.279969  
       4A    -10.273051     5A    -10.269075     6A     -1.116061  
       7A     -0.897703     8A     -0.821187     9A     -0.724756  
      10A     -0.677060    11A     -0.601420    12A     -0.571199  
      13A     -0.523705    14A     -0.518734    15A     -0.484786  
      16A     -0.453271    17A     -0.438917    18A     -0.420412  
      19A     -0.413151    20A     -0.406682    21A     -0.358850  

    Virtual:                                                              

      22A      0.064911    23A      0.074333    24A      0.085927  
      25A      0.092421    26A      0.102354    27A      0.113885  
      28A      0.119684    29A      0.132007    30A      0.138096  
      31A      0.143043    32A      0.155087    33A      0.161322  
      34A      0.181906    35A      0.202367    36A      0.208609  
      37A      0.227860    38A      0.236723    39A      0.247381  
      40A      0.254662    41A      0.261798    42A      0.269769  
      43A      0.277958    44A      0.284561    45A      0.294100  
      46A      0.301151    47A      0.311159    48A      0.317155  
      49A      0.339960    50A      0.344497    51A      0.355473  
      52A      0.360973    53A      0.371615    54A      0.387707  
      55A      0.437656    56A      0.482833    57A      0.488185  
      58A      0.500963    59A      0.535274    60A      0.554697  
      61A      0.576581    62A      0.604330    63A      0.620675  
      64A      0.670148    65A      0.680996    66A      0.712367  
      67A      0.719666    68A      0.734843    69A      0.738471  
      70A      0.750517    71A      0.753723    72A      0.760963  
      73A      0.766358    74A      0.781749    75A      0.819395  
      76A      0.825827    77A      0.854001    78A      0.954949  
      79A      1.070674    80A      1.100206    81A      1.108323  
      82A      1.154935    83A      1.173117    84A      1.182393  
      85A      1.244948    86A      1.313516    87A      1.438018  
      88A      1.475451    89A      1.589415    90A      1.610018  
      91A      1.633224    92A      1.638902    93A      1.674211  
      94A      1.693457    95A      1.709307    96A      1.737073  
      97A      1.778975    98A      1.793400    99A      1.896125  
     100A      1.901165   101A      1.905685   102A      1.999672  
     103A      2.038405   104A      2.223888   105A      2.279177  
     106A      2.337340   107A      2.543119   108A      2.586133  
     109A      2.599256   110A      2.600776   111A      2.604334  
     112A      2.650598   113A      2.659098   114A      2.701156  
     115A      2.713717   116A      2.910971   117A      2.962019  
     118A      3.030707   119A      3.047074   120A      3.089274  
     121A      3.102018   122A      3.200660   123A      3.236547  
     124A      3.254441   125A      3.311383   126A      3.324526  
     127A      3.362243   128A      3.482942   129A      3.698574  
     130A      3.880585   131A      4.057211   132A      4.195495  
     133A      5.128724   134A      5.252504   135A      5.532456  
     136A     23.556917   137A     23.720348   138A     23.810803  
     139A     23.863891   140A     50.003414  

    Final Occupation by Irrep:
              A 
    DOCC [    21 ]

  @DF-RKS Final Energy:  -233.64609667427368

   => Energetics <=

    Nuclear Repulsion Energy =            184.4177675815945463
    One-Electron Energy =                -680.7656568563553492
    Two-Electron Energy =                 285.9501429187272947
    DFT Exchange-Correlation Energy =     -23.2414044136928126
    Empirical Dispersion Energy =          -0.0069459045473795
    VV10 Nonlocal Energy =                  0.0000000000000000
    Total Energy =                       -233.6460966742737071

Computation Completed


Properties will be evaluated at   0.000000,   0.000000,   0.000000 [a0]

Properties computed using the SCF density matrix

  Nuclear Dipole Moment: [e a0]
     X:     5.1769      Y:    -1.2883      Z:     1.1274

  Electronic Dipole Moment: [e a0]
     X:    -5.1852      Y:     0.6153      Z:    -0.8503

  Dipole Moment: [e a0]
     X:    -0.0083      Y:    -0.6730      Z:     0.2771     Total:     0.7279

  Dipole Moment: [D]
     X:    -0.0210      Y:    -1.7106      Z:     0.7044     Total:     1.8500


*** tstop() called on daniele-Precision-5750 at Thu May 27 11:31:34 2021
Module time:
	user time   =      52.61 seconds =       0.88 minutes
	system time =       1.62 seconds =       0.03 minutes
	total time  =          7 seconds =       0.12 minutes
Total time:
	user time   =      52.61 seconds =       0.88 minutes
	system time =       1.62 seconds =       0.03 minutes
	total time  =          7 seconds =       0.12 minutes


Properties will be evaluated at   0.000000,   0.000000,   0.000000 [a0]
OEProp: No title given, name of density matrix used for the following properties is 'SCF density'


  Wiberg Bond Indices using Orthogonal Lowdin Orbitals:

  Irrep: 1 Size: 15 x 15

                 1                   2                   3                   4                   5

    1     0.00000000000000     0.12854546695359     0.02154849037597     1.31616912202094     0.00306077437389
    2     0.12854546695359     0.00000000000000     1.14864238928950     1.15427850752296     0.11467514597311
    3     0.02154849037597     1.14864238928950     0.00000000000000     0.12011578149442     1.20382734211014
    4     1.31616912202094     1.15427850752296     0.12011578149442     0.00000000000000     0.02144213552192
    5     0.00306077437389     0.11467514597311     1.20382734211014     0.02144213552192     0.00000000000000
    6     0.01161318029787     0.85481441096620     0.03790879526246     0.03940131868895     0.01342880764237
    7     0.01265072610608     0.85515482351689     0.03817641307165     0.03949085259427     0.01329119732243
    8     0.00122609917104     0.04019264505869     0.86586612967339     0.01426357313402     0.03926007842736
    9     0.00089632654240     0.04005772678304     0.86576985357618     0.01421243148627     0.03921754524685
   10     0.04581945752918     0.04145666219004     0.01408507644696     0.86694805131135     0.00157480921609
   11     0.05202217277486     0.04104066063451     0.01335099276864     0.86665791297861     0.00147489272863
   12     0.00013144596159     0.01444547498734     0.04150622077221     0.00167687450570     0.91000107158492
   13     0.00050197526743     0.01184725899532     0.04773122328277     0.00158266506806     0.91515945854265
   14     0.00013714347289     0.01447784683144     0.04142003946508     0.00165825072695     0.91002213893288
   15     0.86337047673515     0.00983335719371     0.00165594352049     0.03712148807468     0.00045429760262

                 6                   7                   8                   9                  10

    1     0.01161318029787     0.01265072610608     0.00122609917104     0.00089632654240     0.04581945752918
    2     0.85481441096620     0.85515482351689     0.04019264505869     0.04005772678304     0.04145666219004
    3     0.03790879526246     0.03817641307165     0.86586612967339     0.86576985357618     0.01408507644696
    4     0.03940131868895     0.03949085259427     0.01426357313402     0.01421243148627     0.86694805131135
    5     0.01342880764237     0.01329119732243     0.03926007842736     0.03921754524685     0.00157480921609
    6     0.00000000000000     0.00670623076222     0.00902246258396     0.00405773675525     0.00890512461294
    7     0.00670623076222     0.00000000000000     0.00418560591224     0.00910172074219     0.00487654352088
    8     0.00902246258396     0.00418560591224     0.00000000000000     0.00710733720905     0.00142684089866
    9     0.00405773675525     0.00910172074219     0.00710733720905     0.00000000000000     0.00044182977594
   10     0.00890512461294     0.00487654352088     0.00142684089866     0.00044182977594     0.00000000000000
   11     0.00507498641446     0.00861723852090     0.00039845619059     0.00131950083280     0.00845137897149
   12     0.00045252344180     0.00108704555800     0.00383438604680     0.00995188478767     0.00002305079873
   13     0.00035246947391     0.00034086412530     0.00310832564915     0.00315849165841     0.00009128724351
   14     0.00112426309837     0.00044696824123     0.00995210644922     0.00379411960505     0.00023018821469
   15     0.00044527587782     0.00016241607448     0.00006324993835     0.00009278141189     0.00612367125030

                11                  12                  13                  14                  15

    1     0.05202217277486     0.00013144596159     0.00050197526743     0.00013714347289     0.86337047673515
    2     0.04104066063451     0.01444547498734     0.01184725899532     0.01447784683144     0.00983335719371
    3     0.01335099276864     0.04150622077221     0.04773122328277     0.04142003946508     0.00165594352049
    4     0.86665791297861     0.00167687450570     0.00158266506806     0.00165825072695     0.03712148807468
    5     0.00147489272863     0.91000107158492     0.91515945854265     0.91002213893288     0.00045429760262
    6     0.00507498641446     0.00045252344180     0.00035246947391     0.00112426309837     0.00044527587782
    7     0.00861723852090     0.00108704555800     0.00034086412530     0.00044696824123     0.00016241607448
    8     0.00039845619059     0.00383438604680     0.00310832564915     0.00995210644922     0.00006324993835
    9     0.00131950083280     0.00995188478767     0.00315849165841     0.00379411960505     0.00009278141189
   10     0.00845137897149     0.00002305079873     0.00009128724351     0.00023018821469     0.00612367125030
   11     0.00000000000000     0.00022795210225     0.00011453279800     0.00002005682003     0.00125350491881
   12     0.00022795210225     0.00000000000000     0.00953254379675     0.00812218543339     0.00005088342412
   13     0.00011453279800     0.00953254379675     0.00000000000000     0.00954981959859     0.00004830283321
   14     0.00002005682003     0.00812218543339     0.00954981959859     0.00000000000000     0.00004397992082
   15     0.00125350491881     0.00005088342412     0.00004830283321     0.00004397992082     0.00000000000000



  Atomic Valences: 

 #  #
 Irrep: 1
      1:  2.4576929
      2:  4.4694624
      3:  4.4616047
      4:  4.4950190
      5:  4.1868897
      6:  0.9933076
      7:  0.9942886
      8:  0.9999073
      9:  0.9991793
     10:  1.0004540
     11:  1.0000242
     12:  1.0010435
     13:  1.0031192
     14:  1.0009991
     15:  0.9207196


    Psi4 stopped on: Thursday, 27 May 2021 11:31AM
    Psi4 wall time for execution: 0:00:07.54

*** Psi4 exiting successfully. Buy a developer a beer!
