
    -----------------------------------------------------------------------
          Psi4: An Open-Source Ab Initio Electronic Structure Package
                               Psi4 1.3.2 release

                         Git: Rev {HEAD} ecbda83 


    R. M. Parrish, L. A. Burns, D. G. A. Smith, A. C. Simmonett,
    A. E. DePrince III, E. G. Hohenstein, U. Bozkaya, A. Yu. Sokolov,
    R. Di Remigio, R. M. Richard, J. F. Gonthier, A. M. James,
    H. R. McAlexander, A. Kumar, M. Saitow, X. Wang, B. P. Pritchard,
    P. Verma, H. F. Schaefer III, K. Patkowski, R. A. King, E. F. Valeev,
    F. A. Evangelista, J. M. Turney, T. D. Crawford, and C. D. Sherrill,
    J. Chem. Theory Comput. 13(7) pp 3185--3197 (2017).
    (doi: 10.1021/acs.jctc.7b00174)


                         Additional Contributions by
    P. Kraus, H. Kruse, M. H. Lechner, M. C. Schieber, R. A. Shaw,
    A. Alenaizan, R. Galvelis, Z. L. Glick, S. Lehtola, and J. P. Misiewicz

    -----------------------------------------------------------------------


    Psi4 started on: Thursday, 27 May 2021 11:10AM

    Process ID: 226437
    Host:       daniele-Precision-5750
    PSIDATADIR: /home/daniele/anaconda3/envs/poltype/share/psi4
    Memory:     500.0 MiB
    Threads:    1
    
  ==> Input File <==

--------------------------------------------------------------------------
molecule { 
0 1
 O   -2.212722    0.386854   -0.423782
 C    0.017964   -0.480482   -0.637333
 C    1.393395   -0.828495   -0.006147
 C   -1.018295    0.147101    0.324080
 C    2.158367    0.370480    0.593405
 H    0.165446    0.207892   -1.480062
 H   -0.422645   -1.390829   -1.065249
 H    2.024121   -1.304356   -0.768774
 H    1.251592   -1.587856    0.774232
 H   -1.211545   -0.529923    1.165638
 H   -0.633718    1.083815    0.745477
 H    2.363265    1.129085   -0.169606
 H    3.121599    0.045652    1.001429
 H    1.599395    0.841469    1.408306
 H   -2.871145    0.788504    0.173807
}
set optking { 
  frozen_dihedral = ("
    4 2 3 5
    2 4 1 15
    3 2 4 1
    12 5 3 2
  ")
}
set {
  geom_maxiter 400
  g_convergence GAU_LOOSE
  dynamic_level 1
}
memory 700MB
set_num_threads(8)
psi4_io.set_default_path("/home/daniele/PSI4_sctatch/Psi4-1butanol_3D")
for _ in range(1):
  try:
    set opt_coordinates both
    optimize('wb97x-d/6-311G')
    break
  except OptimizationConvergenceError:
    break
  else:
    try:
      set opt_coordinates cartesian
      optimize('wb97x-d/6-311G')
      break
    except OptimizationConvergenceError:
      pass
clean()
--------------------------------------------------------------------------

  Memory set to 667.572 MiB by Python driver.
  Threads set to 8 by Python driver.
gradient() will perform analytic gradient computation.

*** tstart() called on daniele-Precision-5750
*** at Thu May 27 11:10:42 2021

   => Loading Basis Set <=

    Name: 6-311G
    Role: ORBITAL
    Keyword: BASIS
    atoms 1    entry O          line   126 file /home/daniele/anaconda3/envs/poltype/share/psi4/basis/6-311g.gbs 
    atoms 2-5  entry C          line    92 file /home/daniele/anaconda3/envs/poltype/share/psi4/basis/6-311g.gbs 
    atoms 6-15 entry H          line    21 file /home/daniele/anaconda3/envs/poltype/share/psi4/basis/6-311g.gbs 


         ---------------------------------------------------------
                                   SCF
               by Justin Turney, Rob Parrish, Andy Simmonett
                          and Daniel G. A. Smith
                              RKS Reference
                        8 Threads,    667 MiB Core
         ---------------------------------------------------------

  ==> Geometry <==

    Molecular point group: c1
    Full point group: C1

    Geometry (in Angstrom), charge = 0, multiplicity = 1:

       Center              X                  Y                   Z               Mass       
    ------------   -----------------  -----------------  -----------------  -----------------
         O           -2.221542819434     0.441275993529    -0.400951469176    15.994914619570
         C            0.009143180566    -0.426060006471    -0.614502469176    12.000000000000
         C            1.384574180566    -0.774073006471     0.016683530824    12.000000000000
         C           -1.027115819434     0.201522993529     0.346910530824    12.000000000000
         C            2.149546180566     0.424901993529     0.616235530824    12.000000000000
         H            0.156625180566     0.262313993529    -1.457231469176     1.007825032230
         H           -0.431465819434    -1.336407006471    -1.042418469176     1.007825032230
         H            2.015300180566    -1.249934006471    -0.745943469176     1.007825032230
         H            1.242771180566    -1.533434006471     0.797062530824     1.007825032230
         H           -1.220365819434    -0.475501006471     1.188468530824     1.007825032230
         H           -0.642538819434     1.138236993529     0.768307530824     1.007825032230
         H            2.354444180566     1.183506993529    -0.146775469176     1.007825032230
         H            3.112778180566     0.100073993529     1.024259530824     1.007825032230
         H            1.590574180566     0.895890993529     1.431136530824     1.007825032230
         H           -2.879965819434     0.842925993529     0.196637530824     1.007825032230

  Running in c1 symmetry.

  Rotational constants: A =      0.40621  B =      0.07611  C =      0.06979 [cm^-1]
  Rotational constants: A =  12177.80590  B =   2281.80995  C =   2092.23322 [MHz]
  Nuclear repulsion =  185.589780486668133

  Charge       = 0
  Multiplicity = 1
  Electrons    = 42
  Nalpha       = 21
  Nbeta        = 21

  ==> Algorithm <==

  SCF Algorithm Type is DF.
  DIIS enabled.
  MOM disabled.
  Fractional occupation disabled.
  Guess Type is SAD.
  Energy threshold   = 1.00e-08
  Density threshold  = 1.00e-08
  Integral threshold = 0.00e+00

  ==> Primary Basis <==

  Basis Set: 6-311G
    Blend: 6-311G
    Number of shells: 65
    Number of basis function: 95
    Number of Cartesian functions: 95
    Spherical Harmonics?: true
    Max angular momentum: 1

  ==> DFT Potential <==

   => Composite Functional: WB97X-D <= 

    wB97X-D Hyb-GGA Exchange-Correlation Functional

    J.-D. Chai and M. Head-Gordon, Phys. Chem. Chem. Phys. 10, 6615 (2008)

    Deriv               =              1
    GGA                 =           TRUE
    Meta                =          FALSE

    Exchange Hybrid     =           TRUE
    MP2 Hybrid          =          FALSE

   => Exchange-Correlation Functionals <=

    1.0000   wB97D range-separated functional

   => Exact (HF) Exchange <=

    0.7780            HF,LR [omega = 0.2000]
    0.2220               HF 

   => Molecular Quadrature <=

    Radial Scheme          =       TREUTLER
    Pruning Scheme         =           FLAT
    Nuclear Scheme         =       TREUTLER

    BS radius alpha        =              1
    Pruning alpha          =              1
    Radial Points          =             75
    Spherical Points       =            302
    Total Points           =         336138
    Total Blocks           =           2534
    Max Points             =            256
    Max Functions          =             92

   => WB97X-D: Empirical Dispersion <=

    Chai and Head-Gordon Dispersion Correction
    Chai, J.-D.; Head-Gordon, M. (2010), J. Chem. Phys., 132: 6615-6620

        s6 =       1.000000

   => Loading Basis Set <=

    Name: (6-311G AUX)
    Role: JKFIT
    Keyword: DF_BASIS_SCF
    atoms 1    entry O          line   229 file /home/daniele/anaconda3/envs/poltype/share/psi4/basis/cc-pvtz-jkfit.gbs 
    atoms 2-5  entry C          line   125 file /home/daniele/anaconda3/envs/poltype/share/psi4/basis/cc-pvtz-jkfit.gbs 
    atoms 6-15 entry H          line    51 file /home/daniele/anaconda3/envs/poltype/share/psi4/basis/cc-pvtz-jkfit.gbs 

  ==> Pre-Iterations <==

   -------------------------------------------------------
    Irrep   Nso     Nmo     Nalpha   Nbeta   Ndocc  Nsocc
   -------------------------------------------------------
     A         95      95       0       0       0       0
   -------------------------------------------------------
    Total      95      95      21      21      21       0
   -------------------------------------------------------

  ==> Integral Setup <==

  ==> DiskDFJK: Density-Fitted J/K Matrices <==

    J tasked:                  Yes
    K tasked:                  Yes
    wK tasked:                 Yes
    Omega:               2.000E-01
    OpenMP threads:              8
    Integrals threads:           8
    Memory [MiB]:               34
    Algorithm:                Disk
    Integral Cache:           NONE
    Schwarz Cutoff:          1E-12
    Fitting Condition:       1E-10

   => Auxiliary Basis Set <=

  Basis Set: (6-311G AUX)
    Blend: CC-PVTZ-JKFIT
    Number of shells: 225
    Number of basis function: 695
    Number of Cartesian functions: 830
    Spherical Harmonics?: true
    Max angular momentum: 4

  Cached 100.0% of DFT collocation blocks in 0.675 [GiB].

  Minimum eigenvalue in the overlap matrix is 3.2295235661E-03.
  Using Symmetric Orthogonalization.

  SCF Guess: Superposition of Atomic Densities via on-the-fly atomic UHF.

  ==> Iterations <==

                           Total Energy        Delta E     RMS |[F,P]|

   @DF-RKS iter SAD:  -232.84063223744010   -2.32841e+02   0.00000e+00 
   @DF-RKS iter   1:  -233.28181279288697   -4.41181e-01   8.22434e-03 DIIS
   @DF-RKS iter   2:  -233.37804000485414   -9.62272e-02   7.30268e-03 DIIS
   @DF-RKS iter   3:  -233.57768846449500   -1.99648e-01   8.01861e-04 DIIS
   @DF-RKS iter   4:  -233.57958626016392   -1.89780e-03   3.42326e-04 DIIS
   @DF-RKS iter   5:  -233.58004801865036   -4.61758e-04   2.96991e-05 DIIS
   @DF-RKS iter   6:  -233.58005391394454   -5.89529e-06   1.13007e-05 DIIS
   @DF-RKS iter   7:  -233.58005449929064   -5.85346e-07   2.55652e-06 DIIS
   @DF-RKS iter   8:  -233.58005454216828   -4.28776e-08   3.65299e-07 DIIS
   @DF-RKS iter   9:  -233.58005454354168   -1.37339e-09   7.32308e-08 DIIS
   @DF-RKS iter  10:  -233.58005454359943   -5.77529e-11   1.97172e-08 DIIS
   @DF-RKS iter  11:  -233.58005454360207   -2.64322e-12   8.54150e-09 DIIS
  Energy and wave function converged.


  ==> Post-Iterations <==

    Orbital Energies [Eh]
    ---------------------

    Doubly Occupied:                                                      

       1A    -19.238561     2A    -10.330444     3A    -10.284057  
       4A    -10.278536     5A    -10.272635     6A     -1.125914  
       7A     -0.891664     8A     -0.815570     9A     -0.738078  
      10A     -0.667520    11A     -0.600352    12A     -0.562368  
      13A     -0.536186    14A     -0.506342    15A     -0.482888  
      16A     -0.464067    17A     -0.432733    18A     -0.417202  
      19A     -0.410114    20A     -0.395172    21A     -0.351412  

    Virtual:                                                              

      22A      0.117724    23A      0.120634    24A      0.152702  
      25A      0.158319    26A      0.178514    27A      0.201961  
      28A      0.205199    29A      0.210508    30A      0.221080  
      31A      0.236147    32A      0.272900    33A      0.296466  
      34A      0.300041    35A      0.327093    36A      0.388179  
      37A      0.395274    38A      0.416904    39A      0.435134  
      40A      0.454514    41A      0.471732    42A      0.501088  
      43A      0.521163    44A      0.605920    45A      0.610245  
      46A      0.616425    47A      0.652126    48A      0.662637  
      49A      0.669979    50A      0.684026    51A      0.688871  
      52A      0.691538    53A      0.700214    54A      0.707976  
      55A      0.726645    56A      0.734269    57A      0.776870  
      58A      0.850293    59A      0.941951    60A      0.993347  
      61A      1.009459    62A      1.112164    63A      1.130252  
      64A      1.228792    65A      1.596651    66A      2.269336  
      67A      2.332848    68A      2.344131    69A      2.347631  
      70A      2.361470    71A      2.364211    72A      2.372205  
      73A      2.410821    74A      2.422744    75A      2.434974  
      76A      2.876762    77A      2.890441    78A      2.923975  
      79A      2.944307    80A      2.957876    81A      2.965658  
      82A      3.010321    83A      3.022382    84A      3.113212  
      85A      3.196214    86A      3.206023    87A      3.287803  
      88A      4.953795    89A      5.019231    90A      5.172094  
      91A     23.429897    92A     23.554530    93A     23.668160  
      94A     23.689929    95A     49.966620  

    Final Occupation by Irrep:
              A 
    DOCC [    21 ]

  @DF-RKS Final Energy:  -233.58005454360207

   => Energetics <=

    Nuclear Repulsion Energy =            185.5897804866681327
    One-Electron Energy =                -683.0346233725051661
    Two-Electron Energy =                 287.0896219664487035
    DFT Exchange-Correlation Energy =     -23.2175595929020488
    Empirical Dispersion Energy =          -0.0072740313116764
    VV10 Nonlocal Energy =                  0.0000000000000000
    Total Energy =                       -233.5800545436020457

Computation Completed


Properties will be evaluated at   0.000000,   0.000000,   0.000000 [a0]

Properties computed using the SCF density matrix

  Nuclear Dipole Moment: [e a0]
     X:     4.9562      Y:    -0.1594      Z:     1.8857

  Electronic Dipole Moment: [e a0]
     X:    -4.8387      Y:     0.3075      Z:    -1.1560

  Dipole Moment: [e a0]
     X:     0.1175      Y:     0.1481      Z:     0.7296     Total:     0.7537

  Dipole Moment: [D]
     X:     0.2987      Y:     0.3763      Z:     1.8546     Total:     1.9158


*** tstop() called on daniele-Precision-5750 at Thu May 27 11:10:47 2021
Module time:
	user time   =      30.07 seconds =       0.50 minutes
	system time =       0.78 seconds =       0.01 minutes
	total time  =          5 seconds =       0.08 minutes
Total time:
	user time   =      30.07 seconds =       0.50 minutes
	system time =       0.78 seconds =       0.01 minutes
	total time  =          5 seconds =       0.08 minutes

*** tstart() called on daniele-Precision-5750
*** at Thu May 27 11:10:47 2021


         ------------------------------------------------------------
                                   SCF GRAD                          
                          Rob Parrish, Justin Turney,                
                       Andy Simmonett, and Alex Sokolov              
         ------------------------------------------------------------

  ==> Geometry <==

    Molecular point group: c1
    Full point group: C1

    Geometry (in Angstrom), charge = 0, multiplicity = 1:

       Center              X                  Y                   Z               Mass       
    ------------   -----------------  -----------------  -----------------  -----------------
         O           -2.221542819434     0.441275993529    -0.400951469176    15.994914619570
         C            0.009143180566    -0.426060006471    -0.614502469176    12.000000000000
         C            1.384574180566    -0.774073006471     0.016683530824    12.000000000000
         C           -1.027115819434     0.201522993529     0.346910530824    12.000000000000
         C            2.149546180566     0.424901993529     0.616235530824    12.000000000000
         H            0.156625180566     0.262313993529    -1.457231469176     1.007825032230
         H           -0.431465819434    -1.336407006471    -1.042418469176     1.007825032230
         H            2.015300180566    -1.249934006471    -0.745943469176     1.007825032230
         H            1.242771180566    -1.533434006471     0.797062530824     1.007825032230
         H           -1.220365819434    -0.475501006471     1.188468530824     1.007825032230
         H           -0.642538819434     1.138236993529     0.768307530824     1.007825032230
         H            2.354444180566     1.183506993529    -0.146775469176     1.007825032230
         H            3.112778180566     0.100073993529     1.024259530824     1.007825032230
         H            1.590574180566     0.895890993529     1.431136530824     1.007825032230
         H           -2.879965819434     0.842925993529     0.196637530824     1.007825032230

  Nuclear repulsion =  185.589780486668133

  ==> Basis Set <==

  Basis Set: 6-311G
    Blend: 6-311G
    Number of shells: 65
    Number of basis function: 95
    Number of Cartesian functions: 95
    Spherical Harmonics?: true
    Max angular momentum: 1

  ==> DFJKGrad: Density-Fitted SCF Gradients <==

    Gradient:                    1
    J tasked:                  Yes
    K tasked:                  Yes
    wK tasked:                 Yes
    Omega:               2.000E-01
    OpenMP threads:              8
    Integrals threads:           8
    Memory [MiB]:              500
    Schwarz Cutoff:          0E+00
    Fitting Condition:       1E-10

   => Auxiliary Basis Set <=

  Basis Set: (6-311G AUX)
    Blend: CC-PVTZ-JKFIT
    Number of shells: 225
    Number of basis function: 695
    Number of Cartesian functions: 830
    Spherical Harmonics?: true
    Max angular momentum: 4

  ==> DFT Potential <==

   => Composite Functional: WB97X-D <= 

    wB97X-D Hyb-GGA Exchange-Correlation Functional

    J.-D. Chai and M. Head-Gordon, Phys. Chem. Chem. Phys. 10, 6615 (2008)

    Deriv               =              1
    GGA                 =           TRUE
    Meta                =          FALSE

    Exchange Hybrid     =           TRUE
    MP2 Hybrid          =          FALSE

   => Exchange-Correlation Functionals <=

    1.0000   wB97D range-separated functional

   => Exact (HF) Exchange <=

    0.7780            HF,LR [omega = 0.2000]
    0.2220               HF 

   => Molecular Quadrature <=

    Radial Scheme          =       TREUTLER
    Pruning Scheme         =           FLAT
    Nuclear Scheme         =       TREUTLER

    BS radius alpha        =              1
    Pruning alpha          =              1
    Radial Points          =             75
    Spherical Points       =            302
    Total Points           =         336138
    Total Blocks           =           2534
    Max Points             =            256
    Max Functions          =             92


  -Total Gradient:
     Atom            X                  Y                   Z
    ------   -----------------  -----------------  -----------------
       1        0.013514733571    -0.005374522526    -0.003269461315
       2        0.000592825082    -0.002315573953    -0.002734037101
       3        0.004418130843    -0.002314270669    -0.002619211030
       4       -0.022698811705     0.007564893858     0.000447488668
       5        0.001161103581     0.003008507404     0.001684934641
       6        0.000788636164     0.000005221558    -0.003275828593
       7       -0.000403534711    -0.002695504821    -0.002715209863
       8        0.003195458965    -0.001957284089    -0.000655839667
       9        0.000660505325    -0.001554974954     0.000617579945
      10       -0.000919033226     0.002208936592     0.000861405994
      11       -0.001266260708    -0.000154222670     0.001844014001
      12        0.001740195172     0.000791063922    -0.001283531874
      13        0.002051528887    -0.000488584823     0.000839000592
      14       -0.000991641428     0.000400565065     0.001759497028
      15       -0.001869167524     0.002915570084     0.008476638816


*** tstop() called on daniele-Precision-5750 at Thu May 27 11:10:48 2021
Module time:
	user time   =      13.39 seconds =       0.22 minutes
	system time =       0.09 seconds =       0.00 minutes
	total time  =          1 seconds =       0.02 minutes
Total time:
	user time   =      43.47 seconds =       0.72 minutes
	system time =       0.87 seconds =       0.01 minutes
	total time  =          6 seconds =       0.10 minutes

			-----------------------------------------
			 OPTKING 2.0: for geometry optimizations 
			  - R.A. King,  Bethel University        
			-----------------------------------------
	At level 1: Red. Int., RFO, no backsteps, dynamic trust

	Internal coordinates to be generated automatically.
	Detected frag 1 with atoms:  1 2 3 4 5 6 7 8 9 10 11 12 13 14 15
	---Fragment 1 Bond Connectivity---
	 1 : 4 15
	 2 : 3 4 6 7
	 3 : 2 5 8 9
	 4 : 1 2 10 11
	 5 : 3 12 13 14
	 6 : 2
	 7 : 2
	 8 : 3
	 9 : 3
	 10 : 4
	 11 : 4
	 12 : 5
	 13 : 5
	 14 : 5
	 15 : 1

	Assuming in current code that numbering for constraints corresponds to unified fragment.
	Frozen dihedral atom list: 
	     4     2     3     5
	     2     4     1    15
	     3     2     4     1
	    12     5     3     2
	---Fragment 1 Geometry and Gradient---
	 O          -4.1981075047        0.8338907735       -0.7576884663
	 C           0.0172781072       -0.8051367252       -1.1612413702
	 C           2.6164660016       -1.4627859833        0.0315273041
	 C          -1.9409675979        0.3808232658        0.6555658933
	 C           4.0620535753        0.8029483979        1.1645163820
	 H           0.2959786956        0.4957016066       -2.7537683781
	 H          -0.8153522312       -2.5254432344       -1.9698854149
	 H           3.8083654019       -2.3620329471       -1.4096288618
	 H           2.3484971679       -2.8977703037        1.5062298881
	 H          -2.3061571716       -0.8985666746        2.2458800320
	 H          -1.2142223937        2.1509561836        1.4518908134
	 H           4.4492546789        2.2365040853       -0.2773654387
	 H           5.8822982506        0.1891124401        1.9355699946
	 H           3.0057495835        1.6929886160        2.7044560914
	 H          -5.4423466494        1.5928992718        0.3715910792
	             0.0135147336       -0.0053745225       -0.0032694613
	             0.0005928251       -0.0023155740       -0.0027340371
	             0.0044181308       -0.0023142707       -0.0026192110
	            -0.0226988117        0.0075648939        0.0004474887
	             0.0011611036        0.0030085074        0.0016849346
	             0.0007886362        0.0000052216       -0.0032758286
	            -0.0004035347       -0.0026955048       -0.0027152099
	             0.0031954590       -0.0019572841       -0.0006558397
	             0.0006605053       -0.0015549750        0.0006175799
	            -0.0009190332        0.0022089366        0.0008614060
	            -0.0012662607       -0.0001542227        0.0018440140
	             0.0017401952        0.0007910639       -0.0012835319
	             0.0020515289       -0.0004885848        0.0008390006
	            -0.0009916414        0.0004005651        0.0017594970
	            -0.0018691675        0.0029155701        0.0084766388

	Previous optimization step data not found.  Starting new optimization.

	---Fragment 1 Intrafragment Coordinates---
	 - Coordinate -           - BOHR/RAD -       - ANG/DEG -
	 R(1,4)           =         2.701340	       1.429488
	 R(1,15)          =         1.843773	       0.975682
	 R(2,3)           =         2.934447	       1.552842
	 R(2,4)           =         2.922673	       1.546612
	 R(2,6)           =         2.075090	       1.098090
	 R(2,7)           =         2.075243	       1.098171
	 R(3,5)           =         2.916666	       1.543433
	 R(3,8)           =         2.075139	       1.098116
	 R(3,9)           =         2.075027	       1.098057
	 R(4,10)          =         2.073476	       1.097236
	 R(4,11)          =         2.072598	       1.096772
	 R(5,12)          =         2.069790	       1.095286
	 R(5,13)          =         2.069930	       1.095360
	 R(5,14)          =         2.068662	       1.094689
	 B(1,4,2)         =         1.878306	     107.618982
	 B(1,4,10)        =         1.936476	     110.951875
	 B(1,4,11)        =         1.929170	     110.533296
	 B(2,3,5)         =         2.007333	     115.011698
	 B(2,3,8)         =         1.900305	     108.879476
	 B(2,3,9)         =         1.906544	     109.236941
	 B(2,4,10)        =         1.922400	     110.145422
	 B(2,4,11)        =         1.928860	     110.515550
	 B(3,2,4)         =         2.017214	     115.577863
	 B(3,2,6)         =         1.910785	     109.479903
	 B(3,2,7)         =         1.904967	     109.146547
	 B(3,5,12)        =         1.939219	     111.109092
	 B(3,5,13)        =         1.928558	     110.498222
	 B(3,5,14)        =         1.950148	     111.735231
	 B(4,1,15)        =         1.888597	     108.208618
	 B(4,2,6)         =         1.888808	     108.220740
	 B(4,2,7)         =         1.885754	     108.045728
	 B(5,3,8)         =         1.898354	     108.767657
	 B(5,3,9)         =         1.901964	     108.974506
	 B(6,2,7)         =         1.848872	     105.932556
	 B(8,3,9)         =         1.842176	     105.548936
	 B(10,4,11)       =         1.869260	     107.100703
	 B(12,5,13)       =         1.875890	     107.480591
	 B(12,5,14)       =         1.892424	     108.427892
	 B(13,5,14)       =         1.874779	     107.416911
	*D(1,4,2,3)       =        -3.133776	    -179.552132
	 D(1,4,2,6)       =         1.000092	      57.301050
	 D(1,4,2,7)       =        -0.994471	     -56.978974
	*D(2,3,5,12)      =        -1.044122	     -59.823808
	 D(2,3,5,13)      =        -3.124807	    -179.038237
	 D(2,3,5,14)      =         1.071987	      61.420359
	*D(2,4,1,15)      =        -3.135336	    -179.641508
	 D(3,2,4,10)      =        -1.020645	     -58.478659
	 D(3,2,4,11)      =         1.041365	      59.665799
	*D(4,2,3,5)       =        -1.049394	     -60.125847
	 D(4,2,3,8)       =         3.098769	     177.546378
	 D(4,2,3,9)       =         1.095196	      62.750134
	 D(5,3,2,6)       =         1.088287	      62.354238
	 D(5,3,2,7)       =         3.104720	     177.887350
	 D(6,2,3,8)       =        -1.046736	     -59.973536
	 D(6,2,3,9)       =        -3.050308	    -174.769781
	 D(6,2,4,10)      =         3.113223	     178.374524
	 D(6,2,4,11)      =        -1.107953	     -63.481018
	 D(7,2,3,8)       =         0.969698	      55.559575
	 D(7,2,3,9)       =        -1.033875	     -59.236669
	 D(7,2,4,10)      =         1.118660	      64.094500
	 D(7,2,4,11)      =        -3.102515	    -177.761042
	 D(8,3,5,12)      =         1.091950	      62.564129
	 D(8,3,5,13)      =        -0.988734	     -56.650300
	 D(8,3,5,14)      =        -3.075125	    -176.191704
	 D(9,3,5,12)      =         3.092024	     177.159940
	 D(9,3,5,13)      =         1.011340	      57.945511
	 D(9,3,5,14)      =        -1.075051	     -61.595893
	 D(10,4,1,15)     =         1.043563	      59.791734
	 D(11,4,1,15)     =        -1.027486	     -58.870594

	Current energy   :      -233.5800545436

	Generating empirical Hessian (Schlegel '84) for each fragment.
	Taking RFO optimization step.
	Going to follow RFO solution 1.
	Using RFO vector 1.
	Norm of target step-size    0.13906
	Projected energy change by RFO approximation:        -0.0024432862

	Back-transformation to cartesian coordinates...
	Could not converge backtransformation.
	Using first guess instead.

	Back-transformation to cartesian coordinates to adjust frozen coordinates...
	Successfully converged to displaced geometry.

	--- Internal Coordinate Step in ANG or DEG, aJ/ANG or AJ/DEG ---
	 ---------------------------------------------------------------------------
	   Coordinate                Previous        Force       Change         New 
	   ----------                --------       ------       ------       ------
	    1 R(1,4)          =      1.429488     0.106069     0.016915     1.446402
	    2 R(1,15)         =      0.975682    -0.063046    -0.006747     0.968936
	    3 R(2,3)          =      1.552842    -0.094430    -0.021505     1.531337
	    4 R(2,4)          =      1.546612    -0.139802    -0.031178     1.515434
	    5 R(2,6)          =      1.098090    -0.021553    -0.003464     1.094626
	    6 R(2,7)          =      1.098171    -0.028489    -0.004807     1.093365
	    7 R(3,5)          =      1.543433    -0.049558    -0.010505     1.532928
	    8 R(3,8)          =      1.098116    -0.025862    -0.004768     1.093349
	    9 R(3,9)          =      1.098057    -0.011800    -0.001806     1.096251
	   10 R(4,10)         =      1.097236     0.004419     0.001508     1.098744
	   11 R(4,11)         =      1.096772    -0.001086     0.000571     1.097342
	   12 R(5,12)         =      1.095286    -0.014598    -0.002319     1.092966
	   13 R(5,13)         =      1.095360    -0.018630    -0.003130     1.092229
	   14 R(5,14)         =      1.094689    -0.016356    -0.002782     1.091907
	   15 B(1,4,2)        =    107.618982    -0.000142    -0.735151   106.883831
	   16 B(1,4,10)       =    110.951875     0.000119     0.595295   111.547171
	   17 B(1,4,11)       =    110.533296     0.000097     0.433575   110.966871
	   18 B(2,3,5)        =    115.011698    -0.000194    -0.867088   114.144610
	   19 B(2,3,8)        =    108.879476    -0.000036    -0.707332   108.172144
	   20 B(2,3,9)        =    109.236941     0.000037     0.008716   109.245657
	   21 B(2,4,10)       =    110.145422    -0.000111    -0.813886   109.331536
	   22 B(2,4,11)       =    110.515550    -0.000084    -0.639236   109.876314
	   23 B(3,2,4)        =    115.577863    -0.000439    -1.865791   113.712072
	   24 B(3,2,6)        =    109.479903     0.000171     0.581532   110.061435
	   25 B(3,2,7)        =    109.146547     0.000165     0.753543   109.900090
	   26 B(3,5,12)       =    111.109092    -0.000047    -0.281855   110.827237
	   27 B(3,5,13)       =    110.498222    -0.000017     0.022091   110.520312
	   28 B(3,5,14)       =    111.735231     0.000041     0.162238   111.897469
	   29 B(4,1,15)       =    108.208618     0.000706     3.252348   111.460965
	   30 B(4,2,6)        =    108.220740     0.000068    -0.368345   107.852395
	   31 B(4,2,7)        =    108.045728     0.000070    -0.063333   107.982395
	   32 B(5,3,8)        =    108.767657     0.000124     0.595282   109.362939
	   33 B(5,3,9)        =    108.974506     0.000066     0.280522   109.255027
	   34 B(6,2,7)        =    105.932556    -0.000003     1.158922   107.091478
	   35 B(8,3,9)        =    105.548936     0.000021     0.820504   106.369440
	   36 B(10,4,11)      =    107.100703     0.000122     1.121006   108.221709
	   37 B(12,5,13)      =    107.480591     0.000019     0.163918   107.644509
	   38 B(12,5,14)      =    108.427892    -0.000001    -0.182384   108.245508
	   39 B(13,5,14)      =    107.416911     0.000005     0.125713   107.542624
	   40 *D(1,4,2,3)     =   -179.552132    -0.000000     0.000000  -179.552132
	   41 D(1,4,2,6)      =     57.301050     0.000007     0.798100    58.099150
	   42 D(1,4,2,7)      =    -56.978974    -0.000008    -0.336235   -57.315209
	   43 *D(2,3,5,12)    =    -59.823808     0.000000     0.000000   -59.823808
	   44 D(2,3,5,13)     =   -179.038237     0.000004    -0.037821  -179.076057
	   45 D(2,3,5,14)     =     61.420359    -0.000001    -0.318304    61.102055
	   46 *D(2,4,1,15)    =   -179.641508    -0.000000     0.000000  -179.641508
	   47 D(3,2,4,10)     =    -58.478659    -0.000002    -0.194873   -58.673532
	   48 D(3,2,4,11)     =     59.665799     0.000005     0.293701    59.959500
	   49 *D(4,2,3,5)     =    -60.125847    -0.000000     0.000000   -60.125847
	   50 D(4,2,3,8)      =    177.546378     0.000000     0.352852   177.899230
	   51 D(4,2,3,9)      =     62.750134    -0.000005    -0.241248    62.508886
	   52 D(5,3,2,6)      =     62.354238    -0.000021    -1.358348    60.995890
	   53 D(5,3,2,7)      =    177.887350     0.000021     0.815355   178.702705
	   54 D(6,2,3,8)      =    -59.973536    -0.000021    -1.005497   -60.979033
	   55 D(6,2,3,9)      =   -174.769781    -0.000027    -1.599596  -176.369377
	   56 D(6,2,4,10)     =    178.374524     0.000005     0.603228   178.977751
	   57 D(6,2,4,11)     =    -63.481018     0.000012     1.091801   -62.389218
	   58 D(7,2,3,8)      =     55.559575     0.000021     1.168206    56.727782
	   59 D(7,2,3,9)      =    -59.236669     0.000015     0.574107   -58.662562
	   60 D(7,2,4,10)     =     64.094500    -0.000010    -0.531107    63.563392
	   61 D(7,2,4,11)     =   -177.761042    -0.000003    -0.042534  -177.803577
	   62 D(8,3,5,12)     =     62.564129    -0.000020    -1.069543    61.494585
	   63 D(8,3,5,13)     =    -56.650300    -0.000016    -1.107364   -57.757664
	   64 D(8,3,5,14)     =   -176.191704    -0.000021    -1.387847  -177.579551
	   65 D(9,3,5,12)     =    177.159940     0.000009     0.386629   177.546569
	   66 D(9,3,5,13)     =     57.945511     0.000013     0.348809    58.294320
	   67 D(9,3,5,14)     =    -61.595893     0.000008     0.068326   -61.527568
	   68 D(10,4,1,15)    =     59.791734     0.000036     1.108798    60.900532
	   69 D(11,4,1,15)    =    -58.870594    -0.000031    -0.981930   -59.852524
	 ---------------------------------------------------------------------------
	Successfully symmetrized geometry.

  ==> Convergence Check <==

  Measures of convergence in internal coordinates in au.
  Criteria marked as inactive (o), active & met (*), and active & unmet ( ).
  --------------------------------------------------------------------------------------------- ~
   Step     Total Energy     Delta E     MAX Force     RMS Force      MAX Disp      RMS Disp    ~
  --------------------------------------------------------------------------------------------- ~
    Convergence Criteria             o    2.50e-03 *    1.70e-03 *    1.00e-02 *    6.70e-03 *  ~
  --------------------------------------------------------------------------------------------- ~
      1    -233.58005454   -2.34e+02 o    1.70e-02      3.61e-03      5.89e-02      1.67e-02    ~
  ---------------------------------------------------------------------------------------------

	Writing optimization data to binary file.
	Structure for next step:
	Cartesian Geometry (in Angstrom)
	    O    -2.1767465268   0.4727111557  -0.4094483693
	    C     0.0210673662  -0.4132977481  -0.6249338229
	    C     1.3613702644  -0.7804110107   0.0183471249
	    C    -0.9730945941   0.1956529259   0.3432402692
	    C     2.1053286661   0.4075734559   0.6389011219
	    H     0.1784339752   0.3019590073  -1.4384755055
	    H    -0.4372774328  -1.3035888393  -1.0639648153
	    H     1.9911723899  -1.2431793114  -0.7462480385
	    H     1.1961255581  -1.5447351787   0.7866362397
	    H    -1.1631604988  -0.5116683899   1.1622697973
	    H    -0.5586995253   1.1159709160   0.7738809259
	    H     2.3220945411   1.1676144822  -0.1160328945
	    H     3.0572983705   0.0829965910   1.0647750398
	    H     1.5290996140   0.8756344146   1.4396136593
	    H    -2.8602504813   0.8720084337   0.1493182226
			--------------------------
			 OPTKING Finished Execution 
			--------------------------

    Structure for next step:
    Molecular point group: c1
    Full point group: C1

    Geometry (in Angstrom), charge = 0, multiplicity = 1:

    O           -2.185591052311     0.468840187679    -0.409246940671
    C            0.012222849338    -0.417168719604    -0.624732395112
    C            1.352525752793    -0.784281983666     0.018548555159
    C           -0.981939114919     0.191781956749     0.343441700826
    C            2.096484157350     0.403702487614     0.639102554599
    H            0.169589458893     0.298088038568    -1.438274080940
    H           -0.446121951472    -1.307459814369    -1.063763389243
    H            1.982327880710    -1.247050286166    -0.746046611184
    H            1.187281045856    -1.548606154674     0.786837672983
    H           -1.172005020333    -0.515539361853     1.162471232138
    H           -0.567544044472     1.112099950473     0.774082359203
    H            2.313250033187     1.163743516853    -0.115831464746
    H            3.048453865488     0.079125621379     1.064976474165
    H            1.520255103068     0.871763448129     1.439815095152
    H           -2.869095009563     0.868137467188     0.149519653436

gradient() will perform analytic gradient computation.

*** tstart() called on daniele-Precision-5750
*** at Thu May 27 11:10:48 2021

   => Loading Basis Set <=

    Name: 6-311G
    Role: ORBITAL
    Keyword: BASIS
    atoms 1    entry O          line   126 file /home/daniele/anaconda3/envs/poltype/share/psi4/basis/6-311g.gbs 
    atoms 2-5  entry C          line    92 file /home/daniele/anaconda3/envs/poltype/share/psi4/basis/6-311g.gbs 
    atoms 6-15 entry H          line    21 file /home/daniele/anaconda3/envs/poltype/share/psi4/basis/6-311g.gbs 


         ---------------------------------------------------------
                                   SCF
               by Justin Turney, Rob Parrish, Andy Simmonett
                          and Daniel G. A. Smith
                              RKS Reference
                        8 Threads,    667 MiB Core
         ---------------------------------------------------------

  ==> Geometry <==

    Molecular point group: c1
    Full point group: C1

    Geometry (in Angstrom), charge = 0, multiplicity = 1:

       Center              X                  Y                   Z               Mass       
    ------------   -----------------  -----------------  -----------------  -----------------
         O           -2.185591052311     0.468840187679    -0.409246940671    15.994914619570
         C            0.012222849338    -0.417168719604    -0.624732395112    12.000000000000
         C            1.352525752793    -0.784281983666     0.018548555159    12.000000000000
         C           -0.981939114919     0.191781956749     0.343441700826    12.000000000000
         C            2.096484157350     0.403702487614     0.639102554599    12.000000000000
         H            0.169589458893     0.298088038568    -1.438274080940     1.007825032230
         H           -0.446121951472    -1.307459814369    -1.063763389243     1.007825032230
         H            1.982327880710    -1.247050286166    -0.746046611184     1.007825032230
         H            1.187281045856    -1.548606154674     0.786837672983     1.007825032230
         H           -1.172005020333    -0.515539361853     1.162471232138     1.007825032230
         H           -0.567544044472     1.112099950473     0.774082359203     1.007825032230
         H            2.313250033187     1.163743516853    -0.115831464746     1.007825032230
         H            3.048453865488     0.079125621379     1.064976474165     1.007825032230
         H            1.520255103068     0.871763448129     1.439815095152     1.007825032230
         H           -2.869095009563     0.868137467188     0.149519653436     1.007825032230

  Running in c1 symmetry.

  Rotational constants: A =      0.40741  B =      0.07889  C =      0.07218 [cm^-1]
  Rotational constants: A =  12213.73616  B =   2365.18977  C =   2164.04072 [MHz]
  Nuclear repulsion =  187.421881168510907

  Charge       = 0
  Multiplicity = 1
  Electrons    = 42
  Nalpha       = 21
  Nbeta        = 21

  ==> Algorithm <==

  SCF Algorithm Type is DF.
  DIIS enabled.
  MOM disabled.
  Fractional occupation disabled.
  Guess Type is READ.
  Energy threshold   = 1.00e-08
  Density threshold  = 1.00e-08
  Integral threshold = 0.00e+00

  ==> Primary Basis <==

  Basis Set: 6-311G
    Blend: 6-311G
    Number of shells: 65
    Number of basis function: 95
    Number of Cartesian functions: 95
    Spherical Harmonics?: true
    Max angular momentum: 1

  ==> DFT Potential <==

   => Composite Functional: WB97X-D <= 

    wB97X-D Hyb-GGA Exchange-Correlation Functional

    J.-D. Chai and M. Head-Gordon, Phys. Chem. Chem. Phys. 10, 6615 (2008)

    Deriv               =              1
    GGA                 =           TRUE
    Meta                =          FALSE

    Exchange Hybrid     =           TRUE
    MP2 Hybrid          =          FALSE

   => Exchange-Correlation Functionals <=

    1.0000   wB97D range-separated functional

   => Exact (HF) Exchange <=

    0.7780            HF,LR [omega = 0.2000]
    0.2220               HF 

   => Molecular Quadrature <=

    Radial Scheme          =       TREUTLER
    Pruning Scheme         =           FLAT
    Nuclear Scheme         =       TREUTLER

    BS radius alpha        =              1
    Pruning alpha          =              1
    Radial Points          =             75
    Spherical Points       =            302
    Total Points           =         336121
    Total Blocks           =           2528
    Max Points             =            256
    Max Functions          =             92

   => WB97X-D: Empirical Dispersion <=

    Chai and Head-Gordon Dispersion Correction
    Chai, J.-D.; Head-Gordon, M. (2010), J. Chem. Phys., 132: 6615-6620

        s6 =       1.000000

   => Loading Basis Set <=

    Name: (6-311G AUX)
    Role: JKFIT
    Keyword: DF_BASIS_SCF
    atoms 1    entry O          line   229 file /home/daniele/anaconda3/envs/poltype/share/psi4/basis/cc-pvtz-jkfit.gbs 
    atoms 2-5  entry C          line   125 file /home/daniele/anaconda3/envs/poltype/share/psi4/basis/cc-pvtz-jkfit.gbs 
    atoms 6-15 entry H          line    51 file /home/daniele/anaconda3/envs/poltype/share/psi4/basis/cc-pvtz-jkfit.gbs 

   => Loading Basis Set <=

    Name: 6-311G
    Role: ORBITAL
    Keyword: BASIS
    atoms 1    entry O          line   126 file /home/daniele/anaconda3/envs/poltype/share/psi4/basis/6-311g.gbs 
    atoms 2-5  entry C          line    92 file /home/daniele/anaconda3/envs/poltype/share/psi4/basis/6-311g.gbs 
    atoms 6-15 entry H          line    21 file /home/daniele/anaconda3/envs/poltype/share/psi4/basis/6-311g.gbs 

  Reading orbitals from file 180, no projection.

  ==> Pre-Iterations <==

   -------------------------------------------------------
    Irrep   Nso     Nmo     Nalpha   Nbeta   Ndocc  Nsocc
   -------------------------------------------------------
     A         95      95       0       0       0       0
   -------------------------------------------------------
    Total      95      95      21      21      21       0
   -------------------------------------------------------

  ==> Integral Setup <==

  ==> DiskDFJK: Density-Fitted J/K Matrices <==

    J tasked:                  Yes
    K tasked:                  Yes
    wK tasked:                 Yes
    Omega:               2.000E-01
    OpenMP threads:              8
    Integrals threads:           8
    Memory [MiB]:               34
    Algorithm:                Disk
    Integral Cache:           NONE
    Schwarz Cutoff:          1E-12
    Fitting Condition:       1E-10

   => Auxiliary Basis Set <=

  Basis Set: (6-311G AUX)
    Blend: CC-PVTZ-JKFIT
    Number of shells: 225
    Number of basis function: 695
    Number of Cartesian functions: 830
    Spherical Harmonics?: true
    Max angular momentum: 4

  Cached 100.0% of DFT collocation blocks in 0.679 [GiB].

  Minimum eigenvalue in the overlap matrix is 2.9259129414E-03.
  Using Symmetric Orthogonalization.

  SCF Guess: Orbitals guess was supplied from a previous computation.

  ==> Iterations <==

                           Total Energy        Delta E     RMS |[F,P]|

   @DF-RKS iter   0:  -233.59444070815817   -2.33594e+02   9.58590e-04 
   @DF-RKS iter   1:  -233.58135771107536    1.30830e-02   1.32092e-04 DIIS
   @DF-RKS iter   2:  -233.58144018698775   -8.24759e-05   9.13224e-05 DIIS
   @DF-RKS iter   3:  -233.58146823091010   -2.80439e-05   2.75240e-05 DIIS
   @DF-RKS iter   4:  -233.58147111805252   -2.88714e-06   8.59191e-06 DIIS
   @DF-RKS iter   5:  -233.58147146479894   -3.46746e-07   2.43816e-06 DIIS
   @DF-RKS iter   6:  -233.58147149796650   -3.31676e-08   2.56670e-07 DIIS
   @DF-RKS iter   7:  -233.58147149874401   -7.77504e-10   1.08341e-07 DIIS
   @DF-RKS iter   8:  -233.58147149882012   -7.61133e-11   3.27194e-08 DIIS
   @DF-RKS iter   9:  -233.58147149882757   -7.44649e-12   4.53780e-09 DIIS
  Energy and wave function converged.


  ==> Post-Iterations <==

    Orbital Energies [Eh]
    ---------------------

    Doubly Occupied:                                                      

       1A    -19.235476     2A    -10.328764     3A    -10.280877  
       4A    -10.273194     5A    -10.271161     6A     -1.118385  
       7A     -0.900417     8A     -0.819324     9A     -0.739413  
      10A     -0.666268    11A     -0.600786    12A     -0.566835  
      13A     -0.537519    14A     -0.506321    15A     -0.484758  
      16A     -0.462716    17A     -0.430629    18A     -0.418392  
      19A     -0.410313    20A     -0.394537    21A     -0.351797  

    Virtual:                                                              

      22A      0.120259    23A      0.121564    24A      0.151952  
      25A      0.157422    26A      0.179232    27A      0.203103  
      28A      0.206318    29A      0.212738    30A      0.222372  
      31A      0.238613    32A      0.273169    33A      0.300270  
      34A      0.308590    35A      0.330786    36A      0.386207  
      37A      0.400288    38A      0.419050    39A      0.436781  
      40A      0.456992    41A      0.470668    42A      0.502343  
      43A      0.523625    44A      0.610374    45A      0.619815  
      46A      0.623072    47A      0.655992    48A      0.667278  
      49A      0.674083    50A      0.685618    51A      0.691268  
      52A      0.698054    53A      0.705619    54A      0.711744  
      55A      0.730942    56A      0.738499    57A      0.779500  
      58A      0.852319    59A      0.945742    60A      0.997148  
      61A      1.012984    62A      1.115161    63A      1.138536  
      64A      1.240066    65A      1.594096    66A      2.269792  
      67A      2.315203    68A      2.346149    69A      2.346770  
      70A      2.364278    71A      2.366790    72A      2.384651  
      73A      2.413579    74A      2.429798    75A      2.440028  
      76A      2.860326    77A      2.890568    78A      2.931029  
      79A      2.940808    80A      2.955556    81A      2.976114  
      82A      3.018540    83A      3.019923    84A      3.130668  
      85A      3.204317    86A      3.210909    87A      3.308983  
      88A      4.956404    89A      5.025564    90A      5.190555  
      91A     23.425607    92A     23.564431    93A     23.678066  
      94A     23.711006    95A     49.966013  

    Final Occupation by Irrep:
              A 
    DOCC [    21 ]

  @DF-RKS Final Energy:  -233.58147149882757

   => Energetics <=

    Nuclear Repulsion Energy =            187.4218811685109074
    One-Electron Energy =                -686.6941070549293045
    Two-Electron Energy =                 288.9388772862876067
    DFT Exchange-Correlation Energy =     -23.2407460010933420
    Empirical Dispersion Energy =          -0.0073768976034658
    VV10 Nonlocal Energy =                  0.0000000000000000
    Total Energy =                       -233.5814714988275682

Computation Completed


Properties will be evaluated at   0.000000,   0.000000,   0.000000 [a0]

Properties computed using the SCF density matrix

  Nuclear Dipole Moment: [e a0]
     X:     4.8328      Y:    -0.2093      Z:     1.8859

  Electronic Dipole Moment: [e a0]
     X:    -4.7218      Y:     0.3431      Z:    -1.1682

  Dipole Moment: [e a0]
     X:     0.1110      Y:     0.1338      Z:     0.7177     Total:     0.7385

  Dipole Moment: [D]
     X:     0.2822      Y:     0.3400      Z:     1.8243     Total:     1.8771


*** tstop() called on daniele-Precision-5750 at Thu May 27 11:10:52 2021
Module time:
	user time   =      24.66 seconds =       0.41 minutes
	system time =       0.36 seconds =       0.01 minutes
	total time  =          4 seconds =       0.07 minutes
Total time:
	user time   =      68.74 seconds =       1.15 minutes
	system time =       1.24 seconds =       0.02 minutes
	total time  =         10 seconds =       0.17 minutes

*** tstart() called on daniele-Precision-5750
*** at Thu May 27 11:10:52 2021


         ------------------------------------------------------------
                                   SCF GRAD                          
                          Rob Parrish, Justin Turney,                
                       Andy Simmonett, and Alex Sokolov              
         ------------------------------------------------------------

  ==> Geometry <==

    Molecular point group: c1
    Full point group: C1

    Geometry (in Angstrom), charge = 0, multiplicity = 1:

       Center              X                  Y                   Z               Mass       
    ------------   -----------------  -----------------  -----------------  -----------------
         O           -2.185591052311     0.468840187679    -0.409246940671    15.994914619570
         C            0.012222849338    -0.417168719604    -0.624732395112    12.000000000000
         C            1.352525752793    -0.784281983666     0.018548555159    12.000000000000
         C           -0.981939114919     0.191781956749     0.343441700826    12.000000000000
         C            2.096484157350     0.403702487614     0.639102554599    12.000000000000
         H            0.169589458893     0.298088038568    -1.438274080940     1.007825032230
         H           -0.446121951472    -1.307459814369    -1.063763389243     1.007825032230
         H            1.982327880710    -1.247050286166    -0.746046611184     1.007825032230
         H            1.187281045856    -1.548606154674     0.786837672983     1.007825032230
         H           -1.172005020333    -0.515539361853     1.162471232138     1.007825032230
         H           -0.567544044472     1.112099950473     0.774082359203     1.007825032230
         H            2.313250033187     1.163743516853    -0.115831464746     1.007825032230
         H            3.048453865488     0.079125621379     1.064976474165     1.007825032230
         H            1.520255103068     0.871763448129     1.439815095152     1.007825032230
         H           -2.869095009563     0.868137467188     0.149519653436     1.007825032230

  Nuclear repulsion =  187.421881168510907

  ==> Basis Set <==

  Basis Set: 6-311G
    Blend: 6-311G
    Number of shells: 65
    Number of basis function: 95
    Number of Cartesian functions: 95
    Spherical Harmonics?: true
    Max angular momentum: 1

  ==> DFJKGrad: Density-Fitted SCF Gradients <==

    Gradient:                    1
    J tasked:                  Yes
    K tasked:                  Yes
    wK tasked:                 Yes
    Omega:               2.000E-01
    OpenMP threads:              8
    Integrals threads:           8
    Memory [MiB]:              500
    Schwarz Cutoff:          0E+00
    Fitting Condition:       1E-10

   => Auxiliary Basis Set <=

  Basis Set: (6-311G AUX)
    Blend: CC-PVTZ-JKFIT
    Number of shells: 225
    Number of basis function: 695
    Number of Cartesian functions: 830
    Spherical Harmonics?: true
    Max angular momentum: 4

  ==> DFT Potential <==

   => Composite Functional: WB97X-D <= 

    wB97X-D Hyb-GGA Exchange-Correlation Functional

    J.-D. Chai and M. Head-Gordon, Phys. Chem. Chem. Phys. 10, 6615 (2008)

    Deriv               =              1
    GGA                 =           TRUE
    Meta                =          FALSE

    Exchange Hybrid     =           TRUE
    MP2 Hybrid          =          FALSE

   => Exchange-Correlation Functionals <=

    1.0000   wB97D range-separated functional

   => Exact (HF) Exchange <=

    0.7780            HF,LR [omega = 0.2000]
    0.2220               HF 

   => Molecular Quadrature <=

    Radial Scheme          =       TREUTLER
    Pruning Scheme         =           FLAT
    Nuclear Scheme         =       TREUTLER

    BS radius alpha        =              1
    Pruning alpha          =              1
    Radial Points          =             75
    Spherical Points       =            302
    Total Points           =         336121
    Total Blocks           =           2528
    Max Points             =            256
    Max Functions          =             92


  -Total Gradient:
     Atom            X                  Y                   Z
    ------   -----------------  -----------------  -----------------
       1        0.002365640594    -0.000622156401    -0.001591193741
       2        0.000770553044    -0.001055990538     0.003029417189
       3        0.000385633074     0.000915657840    -0.001591384919
       4       -0.002254838773     0.000178767812    -0.001819657622
       5       -0.002277980806     0.001441922893     0.000698551615
       6       -0.000219953622     0.000790738470    -0.000044173999
       7       -0.000430144260    -0.000745398082     0.000237926352
       8       -0.000529866256     0.000102266099    -0.000730418790
       9       -0.000224143078    -0.000103695727     0.000287099953
      10        0.001607024227    -0.001045084650     0.000467203141
      11        0.002905550429     0.000220046775     0.000735121251
      12        0.000970196504    -0.000503724735    -0.000369529227
      13        0.000174947274    -0.000585149563    -0.000006137743
      14       -0.000892080008     0.000024955640     0.000103759189
      15       -0.002409224638     0.001033270066     0.000598542761


*** tstop() called on daniele-Precision-5750 at Thu May 27 11:10:53 2021
Module time:
	user time   =      13.55 seconds =       0.23 minutes
	system time =       0.10 seconds =       0.00 minutes
	total time  =          1 seconds =       0.02 minutes
Total time:
	user time   =      82.30 seconds =       1.37 minutes
	system time =       1.34 seconds =       0.02 minutes
	total time  =         11 seconds =       0.18 minutes

			-----------------------------------------
			 OPTKING 2.0: for geometry optimizations 
			  - R.A. King,  Bethel University        
			-----------------------------------------
	At level 1: Red. Int., RFO, no backsteps, dynamic trust

	Previous internal coordinate definitions found.
	---Fragment 1 Geometry and Gradient---
	 O          -4.1301685111        0.8859795513       -0.7733646355
	 C           0.0230978377       -0.7883346282       -1.1805731285
	 C           2.5559032504       -1.4820781543        0.0350516893
	 C          -1.8555959991        0.3624153741        0.6490107546
	 C           3.9617808838        0.7628871378        1.2077287943
	 H           0.3204776311        0.5633047542       -2.7179441063
	 H          -0.8430483068       -2.4707409692       -2.0102214680
	 H           3.7460567854       -2.3565835055       -1.4098237720
	 H           2.2436360106       -2.9264415085        1.4869077071
	 H          -2.2147685061       -0.9742282008        2.1967522575
	 H          -1.0725028082        2.1015643305        1.4628036574
	 H           4.3714090224        2.1991565271       -0.2188897451
	 H           5.7607429119        0.1495257539        2.0125138662
	 H           2.8728657856        1.6473941631        2.7208562011
	 H          -5.4218037960        1.6405420522        0.2825511954
	             0.0023656406       -0.0006221564       -0.0015911937
	             0.0007705530       -0.0010559905        0.0030294172
	             0.0003856331        0.0009156578       -0.0015913849
	            -0.0022548388        0.0001787678       -0.0018196576
	            -0.0022779808        0.0014419229        0.0006985516
	            -0.0002199536        0.0007907385       -0.0000441740
	            -0.0004301443       -0.0007453981        0.0002379264
	            -0.0005298663        0.0001022661       -0.0007304188
	            -0.0002241431       -0.0001036957        0.0002871000
	             0.0016070242       -0.0010450847        0.0004672031
	             0.0029055504        0.0002200468        0.0007351213
	             0.0009701965       -0.0005037247       -0.0003695292
	             0.0001749473       -0.0005851496       -0.0000061377
	            -0.0008920800        0.0000249556        0.0001037592
	            -0.0024092246        0.0010332701        0.0005985428

	---Fragment 1 Intrafragment Coordinates---
	 - Coordinate -           - BOHR/RAD -       - ANG/DEG -
	 R(1,4)           =         2.733304	       1.446402
	 R(1,15)          =         1.831023	       0.968936
	 R(2,3)           =         2.893808	       1.531337
	 R(2,4)           =         2.863755	       1.515434
	 R(2,6)           =         2.068544	       1.094626
	 R(2,7)           =         2.066160	       1.093365
	 R(3,5)           =         2.896814	       1.532928
	 R(3,8)           =         2.066129	       1.093349
	 R(3,9)           =         2.071613	       1.096251
	 R(4,10)          =         2.076325	       1.098744
	 R(4,11)          =         2.073676	       1.097342
	 R(5,12)          =         2.065407	       1.092966
	 R(5,13)          =         2.064014	       1.092229
	 R(5,14)          =         2.063406	       1.091907
	 B(1,4,2)         =         1.865475	     106.883831
	 B(1,4,10)        =         1.946865	     111.547171
	 B(1,4,11)        =         1.936737	     110.966871
	 B(2,3,5)         =         1.992199	     114.144610
	 B(2,3,8)         =         1.887960	     108.172144
	 B(2,3,9)         =         1.906696	     109.245657
	 B(2,4,10)        =         1.908195	     109.331536
	 B(2,4,11)        =         1.917703	     109.876314
	 B(3,2,4)         =         1.984650	     113.712072
	 B(3,2,6)         =         1.920934	     110.061435
	 B(3,2,7)         =         1.918118	     109.900090
	 B(3,5,12)        =         1.934300	     110.827237
	 B(3,5,13)        =         1.928943	     110.520312
	 B(3,5,14)        =         1.952979	     111.897469
	 B(4,1,15)        =         1.945361	     111.460965
	 B(4,2,6)         =         1.882379	     107.852395
	 B(4,2,7)         =         1.884648	     107.982395
	 B(5,3,8)         =         1.908743	     109.362939
	 B(5,3,9)         =         1.906860	     109.255027
	 B(6,2,7)         =         1.869099	     107.091478
	 B(8,3,9)         =         1.856497	     106.369440
	 B(10,4,11)       =         1.888825	     108.221709
	 B(12,5,13)       =         1.878751	     107.644509
	 B(12,5,14)       =         1.889241	     108.245508
	 B(13,5,14)       =         1.876973	     107.542624
	*D(1,4,2,3)       =        -3.133776	    -179.552132
	 D(1,4,2,6)       =         1.014021	      58.099150
	 D(1,4,2,7)       =        -1.000339	     -57.315209
	*D(2,3,5,12)      =        -1.044122	     -59.823808
	 D(2,3,5,13)      =        -3.125467	    -179.076057
	 D(2,3,5,14)      =         1.066432	      61.102055
	*D(2,4,1,15)      =        -3.135336	    -179.641508
	 D(3,2,4,10)      =        -1.024046	     -58.673532
	 D(3,2,4,11)      =         1.046491	      59.959500
	*D(4,2,3,5)       =        -1.049394	     -60.125847
	 D(4,2,3,8)       =         3.104927	     177.899230
	 D(4,2,3,9)       =         1.090986	      62.508886
	 D(5,3,2,6)       =         1.064579	      60.995890
	 D(5,3,2,7)       =         3.118951	     178.702705
	 D(6,2,3,8)       =        -1.064285	     -60.979033
	 D(6,2,3,9)       =        -3.078226	    -176.369377
	 D(6,2,4,10)      =         3.123751	     178.977751
	 D(6,2,4,11)      =        -1.088897	     -62.389218
	 D(7,2,3,8)       =         0.990087	      56.727782
	 D(7,2,3,9)       =        -1.023855	     -58.662562
	 D(7,2,4,10)      =         1.109390	      63.563392
	 D(7,2,4,11)      =        -3.103258	    -177.803577
	 D(8,3,5,12)      =         1.073283	      61.494585
	 D(8,3,5,13)      =        -1.008061	     -57.757664
	 D(8,3,5,14)      =        -3.099348	    -177.579551
	 D(9,3,5,12)      =         3.098772	     177.546569
	 D(9,3,5,13)      =         1.017428	      58.294320
	 D(9,3,5,14)      =        -1.073859	     -61.527568
	 D(10,4,1,15)     =         1.062915	      60.900532
	 D(11,4,1,15)     =        -1.044624	     -59.852524

	Current energy   :      -233.5814714988

	Energy change for the previous step:
		Projected    :        -0.0024432862
		Actual       :        -0.0014169552

	Performing BFGS update.
	Previous computed or guess Hessian on step 1.
	Steps to be used in Hessian update: 1
	Taking RFO optimization step.
	Going to follow RFO solution 1.
	Using RFO vector 1.
	Norm of target step-size    0.04893
	Projected energy change by RFO approximation:        -0.0004456713

	Back-transformation to cartesian coordinates...
	Successfully converged to displaced geometry.

	Back-transformation to cartesian coordinates to adjust frozen coordinates...
	Successfully converged to displaced geometry.

	--- Internal Coordinate Step in ANG or DEG, aJ/ANG or AJ/DEG ---
	 ---------------------------------------------------------------------------
	   Coordinate                Previous        Force       Change         New 
	   ----------                --------       ------       ------       ------
	    1 R(1,4)          =      1.446402    -0.005108     0.000105     1.446507
	    2 R(1,15)         =      0.968936    -0.020330    -0.002578     0.966357
	    3 R(2,3)          =      1.531337     0.025240     0.003771     1.535109
	    4 R(2,4)          =      1.515434     0.021345     0.002405     1.517839
	    5 R(2,6)          =      1.094626    -0.004221    -0.000938     1.093688
	    6 R(2,7)          =      1.093365    -0.005728    -0.001237     1.092128
	    7 R(3,5)          =      1.532928     0.004209     0.000156     1.533085
	    8 R(3,8)          =      1.093349    -0.001367    -0.000470     1.092878
	    9 R(3,9)          =      1.096251    -0.002533    -0.000559     1.095691
	   10 R(4,10)         =      1.098744    -0.006158    -0.001007     1.097736
	   11 R(4,11)         =      1.097342    -0.012921    -0.002131     1.095211
	   12 R(5,12)         =      1.092966    -0.000861    -0.000318     1.092648
	   13 R(5,13)         =      1.092229    -0.002673    -0.000632     1.091598
	   14 R(5,14)         =      1.091907    -0.004545    -0.000892     1.091015
	   15 B(1,4,2)        =    106.883831     0.000082     0.135253   107.019084
	   16 B(1,4,10)       =    111.547171    -0.000116    -0.616281   110.930889
	   17 B(1,4,11)       =    110.966871    -0.000149    -0.985180   109.981691
	   18 B(2,3,5)        =    114.144610     0.000170     0.529483   114.674093
	   19 B(2,3,8)        =    108.172144    -0.000012     0.185516   108.357660
	   20 B(2,3,9)        =    109.245657    -0.000047    -0.138507   109.107151
	   21 B(2,4,10)       =    109.331536     0.000087     0.609457   109.940993
	   22 B(2,4,11)       =    109.876314     0.000125     0.742523   110.618837
	   23 B(3,2,4)        =    113.712072     0.000145     0.420529   114.132601
	   24 B(3,2,6)        =    110.061435    -0.000056    -0.230910   109.830525
	   25 B(3,2,7)        =    109.900090    -0.000046    -0.021262   109.878828
	   26 B(3,5,12)       =    110.827237    -0.000006    -0.034154   110.793083
	   27 B(3,5,13)       =    110.520312     0.000042     0.110591   110.630903
	   28 B(3,5,14)       =    111.897469     0.000056     0.284669   112.182138
	   29 B(4,1,15)       =    111.460965    -0.000147    -0.407812   111.053153
	   30 B(4,2,6)        =    107.852395    -0.000022     0.037223   107.889618
	   31 B(4,2,7)        =    107.982395    -0.000030     0.017016   107.999411
	   32 B(5,3,8)        =    109.362939    -0.000078    -0.234148   109.128791
	   33 B(5,3,9)        =    109.255027    -0.000054    -0.169898   109.085129
	   34 B(6,2,7)        =    107.091478     0.000003    -0.259601   106.831878
	   35 B(8,3,9)        =    106.369440     0.000012    -0.224196   106.145244
	   36 B(10,4,11)      =    108.221709    -0.000021     0.136594   108.358303
	   37 B(12,5,13)      =    107.644509    -0.000019    -0.180406   107.464103
	   38 B(12,5,14)      =    108.245508    -0.000026    -0.005767   108.239741
	   39 B(13,5,14)      =    107.542624    -0.000052    -0.199765   107.342859
	   40 *D(1,4,2,3)     =   -179.552132    -0.000000     0.000000  -179.552132
	   41 D(1,4,2,6)      =     58.099150    -0.000002    -0.010491    58.088659
	   42 D(1,4,2,7)      =    -57.315209     0.000003     0.265149   -57.050059
	   43 *D(2,3,5,12)    =    -59.823808     0.000000     0.000000   -59.823808
	   44 D(2,3,5,13)     =   -179.076057     0.000000     0.175706  -178.900351
	   45 D(2,3,5,14)     =     61.102055     0.000000     0.164191    61.266246
	   46 *D(2,4,1,15)    =   -179.641508    -0.000000     0.000000  -179.641508
	   47 D(3,2,4,10)     =    -58.673532    -0.000010    -0.315734   -58.989266
	   48 D(3,2,4,11)     =     59.959500     0.000014     0.686854    60.646353
	   49 *D(4,2,3,5)     =    -60.125847    -0.000000     0.000000   -60.125847
	   50 D(4,2,3,8)      =    177.899230    -0.000001    -0.192823   177.706407
	   51 D(4,2,3,9)      =     62.508886     0.000003     0.045578    62.554464
	   52 D(5,3,2,6)      =     60.995890     0.000007     0.169117    61.165007
	   53 D(5,3,2,7)      =    178.702705    -0.000006    -0.297929   178.404776
	   54 D(6,2,3,8)      =    -60.979033     0.000006    -0.023706   -61.002739
	   55 D(6,2,3,9)      =   -176.369377     0.000010     0.214695  -176.154682
	   56 D(6,2,4,10)     =    178.977751    -0.000012    -0.326226   178.651526
	   57 D(6,2,4,11)     =    -62.389218     0.000012     0.676362   -61.712855
	   58 D(7,2,3,8)      =     56.727782    -0.000007    -0.490752    56.237030
	   59 D(7,2,3,9)      =    -58.662562    -0.000003    -0.252350   -58.914912
	   60 D(7,2,4,10)     =     63.563392    -0.000006    -0.050585    63.512807
	   61 D(7,2,4,11)     =   -177.803577     0.000017     0.952003  -176.851574
	   62 D(8,3,5,12)     =     61.494585     0.000010     0.429918    61.924504
	   63 D(8,3,5,13)     =    -57.757664     0.000010     0.605625   -57.152039
	   64 D(8,3,5,14)     =   -177.579551     0.000010     0.594109  -176.985442
	   65 D(9,3,5,12)     =    177.546569    -0.000004    -0.062571   177.483998
	   66 D(9,3,5,13)     =     58.294320    -0.000004     0.113136    58.407456
	   67 D(9,3,5,14)     =    -61.527568    -0.000004     0.101620   -61.425947
	   68 D(10,4,1,15)    =     60.900532    -0.000021    -0.472340    60.428192
	   69 D(11,4,1,15)    =    -59.852524     0.000027     0.420669   -59.431855
	 ---------------------------------------------------------------------------
	Successfully symmetrized geometry.

  ==> Convergence Check <==

  Measures of convergence in internal coordinates in au.
  Criteria marked as inactive (o), active & met (*), and active & unmet ( ).
  ---------------------------------------------------------------------------------------------
   Step     Total Energy     Delta E     MAX Force     RMS Force      MAX Disp      RMS Disp   
  ---------------------------------------------------------------------------------------------
    Convergence Criteria             o    2.50e-03 *    1.70e-03 *    1.00e-02 *    6.70e-03 *
  ---------------------------------------------------------------------------------------------
      2    -233.58147150   -1.42e-03 o    3.06e-03      9.67e-04 *    1.72e-02      5.89e-03 *  ~
  ---------------------------------------------------------------------------------------------

	Writing optimization data to binary file.
	Structure for next step:
	Cartesian Geometry (in Angstrom)
	    O    -2.1969915237   0.4666147937  -0.4021731449
	    C     0.0054702669  -0.4186304159  -0.6188830806
	    C     1.3544089906  -0.7832590320   0.0167020861
	    C    -0.9901795638   0.1959418767   0.3479766747
	    C     2.1133748860   0.3991795358   0.6300192545
	    H     0.1604355915   0.2901695574  -1.4372607686
	    H    -0.4526883019  -1.3092394994  -1.0543703332
	    H     1.9793148384  -1.2523797808  -0.7473668154
	    H     1.1933199281  -1.5444962344   0.7881345252
	    H    -1.1891906881  -0.5000773066   1.1731899468
	    H    -0.5947570885   1.1263591588   0.7692277609
	    H     2.3283186156   1.1569252292  -0.1272792482
	    H     3.0681419064   0.0700936362   1.0443955084
	    H     1.5541489084   0.8730367778   1.4381283830
	    H    -2.8730328340   0.8669380591   0.1604596592
			--------------------------
			 OPTKING Finished Execution 
			--------------------------

    Structure for next step:
    Molecular point group: c1
    Full point group: C1

    Geometry (in Angstrom), charge = 0, multiplicity = 1:

    O           -2.195245971579     0.467184036054    -0.403523427437
    C            0.007215827668    -0.418061177054    -0.620233363947
    C            1.356154556608    -0.782689794618     0.015351805233
    C           -0.988434007010     0.196511117985     0.346626395110
    C            2.115120455058     0.399748777876     0.628668976004
    H            0.162181152904     0.290738799027    -1.438611055206
    H           -0.450942742910    -1.308670264066    -1.055720618281
    H            1.981060406947    -1.251810545264    -0.748717099302
    H            1.195065493551    -1.543926999983     0.786784247371
    H           -1.187445132031    -0.499508068038     1.171839670479
    H           -0.593011530080     1.126928403737     0.767877482944
    H            2.330064185514     1.157494474207    -0.128629529651
    H            3.069887479178     0.070662876956     1.043045231539
    H            1.555894475237     0.873606021735     1.436778107726
    H           -2.871287284553     0.867507302958     0.159109378907

gradient() will perform analytic gradient computation.

*** tstart() called on daniele-Precision-5750
*** at Thu May 27 11:10:53 2021

   => Loading Basis Set <=

    Name: 6-311G
    Role: ORBITAL
    Keyword: BASIS
    atoms 1    entry O          line   126 file /home/daniele/anaconda3/envs/poltype/share/psi4/basis/6-311g.gbs 
    atoms 2-5  entry C          line    92 file /home/daniele/anaconda3/envs/poltype/share/psi4/basis/6-311g.gbs 
    atoms 6-15 entry H          line    21 file /home/daniele/anaconda3/envs/poltype/share/psi4/basis/6-311g.gbs 


         ---------------------------------------------------------
                                   SCF
               by Justin Turney, Rob Parrish, Andy Simmonett
                          and Daniel G. A. Smith
                              RKS Reference
                        8 Threads,    667 MiB Core
         ---------------------------------------------------------

  ==> Geometry <==

    Molecular point group: c1
    Full point group: C1

    Geometry (in Angstrom), charge = 0, multiplicity = 1:

       Center              X                  Y                   Z               Mass       
    ------------   -----------------  -----------------  -----------------  -----------------
         O           -2.195245971579     0.467184036054    -0.403523427437    15.994914619570
         C            0.007215827668    -0.418061177054    -0.620233363947    12.000000000000
         C            1.356154556608    -0.782689794618     0.015351805233    12.000000000000
         C           -0.988434007010     0.196511117985     0.346626395110    12.000000000000
         C            2.115120455058     0.399748777876     0.628668976004    12.000000000000
         H            0.162181152904     0.290738799027    -1.438611055206     1.007825032230
         H           -0.450942742910    -1.308670264066    -1.055720618281     1.007825032230
         H            1.981060406947    -1.251810545264    -0.748717099302     1.007825032230
         H            1.195065493551    -1.543926999983     0.786784247371     1.007825032230
         H           -1.187445132031    -0.499508068038     1.171839670479     1.007825032230
         H           -0.593011530080     1.126928403737     0.767877482944     1.007825032230
         H            2.330064185514     1.157494474207    -0.128629529651     1.007825032230
         H            3.069887479178     0.070662876956     1.043045231539     1.007825032230
         H            1.555894475237     0.873606021735     1.436778107726     1.007825032230
         H           -2.871287284553     0.867507302958     0.159109378907     1.007825032230

  Running in c1 symmetry.

  Rotational constants: A =      0.40929  B =      0.07814  C =      0.07158 [cm^-1]
  Rotational constants: A =  12270.06417  B =   2342.65176  C =   2145.93546 [MHz]
  Nuclear repulsion =  187.084174755243396

  Charge       = 0
  Multiplicity = 1
  Electrons    = 42
  Nalpha       = 21
  Nbeta        = 21

  ==> Algorithm <==

  SCF Algorithm Type is DF.
  DIIS enabled.
  MOM disabled.
  Fractional occupation disabled.
  Guess Type is READ.
  Energy threshold   = 1.00e-08
  Density threshold  = 1.00e-08
  Integral threshold = 0.00e+00

  ==> Primary Basis <==

  Basis Set: 6-311G
    Blend: 6-311G
    Number of shells: 65
    Number of basis function: 95
    Number of Cartesian functions: 95
    Spherical Harmonics?: true
    Max angular momentum: 1

  ==> DFT Potential <==

   => Composite Functional: WB97X-D <= 

    wB97X-D Hyb-GGA Exchange-Correlation Functional

    J.-D. Chai and M. Head-Gordon, Phys. Chem. Chem. Phys. 10, 6615 (2008)

    Deriv               =              1
    GGA                 =           TRUE
    Meta                =          FALSE

    Exchange Hybrid     =           TRUE
    MP2 Hybrid          =          FALSE

   => Exchange-Correlation Functionals <=

    1.0000   wB97D range-separated functional

   => Exact (HF) Exchange <=

    0.7780            HF,LR [omega = 0.2000]
    0.2220               HF 

   => Molecular Quadrature <=

    Radial Scheme          =       TREUTLER
    Pruning Scheme         =           FLAT
    Nuclear Scheme         =       TREUTLER

    BS radius alpha        =              1
    Pruning alpha          =              1
    Radial Points          =             75
    Spherical Points       =            302
    Total Points           =         336126
    Total Blocks           =           2536
    Max Points             =            256
    Max Functions          =             92

   => WB97X-D: Empirical Dispersion <=

    Chai and Head-Gordon Dispersion Correction
    Chai, J.-D.; Head-Gordon, M. (2010), J. Chem. Phys., 132: 6615-6620

        s6 =       1.000000

   => Loading Basis Set <=

    Name: (6-311G AUX)
    Role: JKFIT
    Keyword: DF_BASIS_SCF
    atoms 1    entry O          line   229 file /home/daniele/anaconda3/envs/poltype/share/psi4/basis/cc-pvtz-jkfit.gbs 
    atoms 2-5  entry C          line   125 file /home/daniele/anaconda3/envs/poltype/share/psi4/basis/cc-pvtz-jkfit.gbs 
    atoms 6-15 entry H          line    51 file /home/daniele/anaconda3/envs/poltype/share/psi4/basis/cc-pvtz-jkfit.gbs 

   => Loading Basis Set <=

    Name: 6-311G
    Role: ORBITAL
    Keyword: BASIS
    atoms 1    entry O          line   126 file /home/daniele/anaconda3/envs/poltype/share/psi4/basis/6-311g.gbs 
    atoms 2-5  entry C          line    92 file /home/daniele/anaconda3/envs/poltype/share/psi4/basis/6-311g.gbs 
    atoms 6-15 entry H          line    21 file /home/daniele/anaconda3/envs/poltype/share/psi4/basis/6-311g.gbs 

  Reading orbitals from file 180, no projection.

  ==> Pre-Iterations <==

   -------------------------------------------------------
    Irrep   Nso     Nmo     Nalpha   Nbeta   Ndocc  Nsocc
   -------------------------------------------------------
     A         95      95       0       0       0       0
   -------------------------------------------------------
    Total      95      95      21      21      21       0
   -------------------------------------------------------

  ==> Integral Setup <==

  ==> DiskDFJK: Density-Fitted J/K Matrices <==

    J tasked:                  Yes
    K tasked:                  Yes
    wK tasked:                 Yes
    Omega:               2.000E-01
    OpenMP threads:              8
    Integrals threads:           8
    Memory [MiB]:               34
    Algorithm:                Disk
    Integral Cache:           NONE
    Schwarz Cutoff:          1E-12
    Fitting Condition:       1E-10

   => Auxiliary Basis Set <=

  Basis Set: (6-311G AUX)
    Blend: CC-PVTZ-JKFIT
    Number of shells: 225
    Number of basis function: 695
    Number of Cartesian functions: 830
    Spherical Harmonics?: true
    Max angular momentum: 4

  Cached 100.0% of DFT collocation blocks in 0.678 [GiB].

  Minimum eigenvalue in the overlap matrix is 2.9663161765E-03.
  Using Symmetric Orthogonalization.

  SCF Guess: Orbitals guess was supplied from a previous computation.

  ==> Iterations <==

                           Total Energy        Delta E     RMS |[F,P]|

   @DF-RKS iter   0:  -233.58421480547574   -2.33584e+02   2.14079e-04 
   @DF-RKS iter   1:  -233.58159992205518    2.61488e-03   4.34298e-05 DIIS
   @DF-RKS iter   2:  -233.58160713390032   -7.21185e-06   3.83492e-05 DIIS
   @DF-RKS iter   3:  -233.58161241746541   -5.28357e-06   6.88109e-06 DIIS
   @DF-RKS iter   4:  -233.58161264521726   -2.27752e-07   3.65576e-06 DIIS
   @DF-RKS iter   5:  -233.58161270236985   -5.71526e-08   3.12341e-07 DIIS
   @DF-RKS iter   6:  -233.58161270325147   -8.81613e-10   7.33439e-08 DIIS
   @DF-RKS iter   7:  -233.58161270329370   -4.22347e-11   3.33320e-08 DIIS
   @DF-RKS iter   8:  -233.58161270330072   -7.02016e-12   5.14941e-09 DIIS
  Energy and wave function converged.


  ==> Post-Iterations <==

    Orbital Energies [Eh]
    ---------------------

    Doubly Occupied:                                                      

       1A    -19.234538     2A    -10.328790     3A    -10.281143  
       4A    -10.273874     5A    -10.271000     6A     -1.118938  
       7A     -0.899169     8A     -0.819596     9A     -0.739532  
      10A     -0.667095    11A     -0.599809    12A     -0.566666  
      13A     -0.537606    14A     -0.506735    15A     -0.484816  
      16A     -0.463002    17A     -0.430303    18A     -0.418771  
      19A     -0.410060    20A     -0.395131    21A     -0.351297  

    Virtual:                                                              

      22A      0.120149    23A      0.121638    24A      0.152349  
      25A      0.157896    26A      0.179187    27A      0.203281  
      28A      0.206062    29A      0.212151    30A      0.221722  
      31A      0.238239    32A      0.272795    33A      0.299185  
      34A      0.307475    35A      0.331076    36A      0.387147  
      37A      0.398788    38A      0.418441    39A      0.436820  
      40A      0.456830    41A      0.473011    42A      0.501597  
      43A      0.524741    44A      0.611138    45A      0.620077  
      46A      0.621371    47A      0.656549    48A      0.667267  
      49A      0.673245    50A      0.685713    51A      0.691035  
      52A      0.697152    53A      0.704485    54A      0.711203  
      55A      0.730938    56A      0.737667    57A      0.779154  
      58A      0.851690    59A      0.944956    60A      0.996400  
      61A      1.012233    62A      1.114423    63A      1.135615  
      64A      1.237730    65A      1.595922    66A      2.270319  
      67A      2.324669    68A      2.345555    69A      2.347251  
      70A      2.363936    71A      2.366794    72A      2.379143  
      73A      2.413239    74A      2.427358    75A      2.437777  
      76A      2.862156    77A      2.892386    78A      2.932150  
      79A      2.940389    80A      2.954541    81A      2.976151  
      82A      3.016668    83A      3.020561    84A      3.125691  
      85A      3.204602    86A      3.208237    87A      3.307074  
      88A      4.956299    89A      5.025712    90A      5.191606  
      91A     23.426185    92A     23.562576    93A     23.677465  
      94A     23.707758    95A     49.967570  

    Final Occupation by Irrep:
              A 
    DOCC [    21 ]

  @DF-RKS Final Energy:  -233.58161270330072

   => Energetics <=

[...]
    Fitting Condition:       1E-10

   => Auxiliary Basis Set <=

  Basis Set: (6-311G AUX)
    Blend: CC-PVTZ-JKFIT
    Number of shells: 225
    Number of basis function: 695
    Number of Cartesian functions: 830
    Spherical Harmonics?: true
    Max angular momentum: 4

  ==> DFT Potential <==

   => Composite Functional: WB97X-D <= 

    wB97X-D Hyb-GGA Exchange-Correlation Functional

    J.-D. Chai and M. Head-Gordon, Phys. Chem. Chem. Phys. 10, 6615 (2008)

    Deriv               =              1
    GGA                 =           TRUE
    Meta                =          FALSE

    Exchange Hybrid     =           TRUE
    MP2 Hybrid          =          FALSE

   => Exchange-Correlation Functionals <=

    1.0000   wB97D range-separated functional

   => Exact (HF) Exchange <=

    0.7780            HF,LR [omega = 0.2000]
    0.2220               HF 

   => Molecular Quadrature <=

    Radial Scheme          =       TREUTLER
    Pruning Scheme         =           FLAT
    Nuclear Scheme         =       TREUTLER

    BS radius alpha        =              1
    Pruning alpha          =              1
    Radial Points          =             75
    Spherical Points       =            302
    Total Points           =         336126
    Total Blocks           =           2536
    Max Points             =            256
    Max Functions          =             92


  -Total Gradient:
     Atom            X                  Y                   Z
    ------   -----------------  -----------------  -----------------
       1        0.001327784342     0.000846029803     0.001033616986
       2       -0.000847641179    -0.002325868452     0.001367652517
       3        0.001699264451     0.001238958677    -0.002541223661
       4       -0.001094309825     0.000071843536    -0.001087363827
       5       -0.001621741558     0.000721623223     0.001586362838
       6       -0.000048501293    -0.000014772786     0.000185042873
       7       -0.000076346033     0.000114199917     0.000012965748
       8       -0.000148172933     0.000080707596     0.000058207264
       9        0.000003643113     0.000202149331    -0.000064454334
      10        0.000052016649    -0.000145099314     0.000179248687
      11       -0.000132183456     0.000158297353    -0.000073290332
      12        0.001037116917    -0.000799478931    -0.000212846472
      13       -0.000128468237     0.000067054397    -0.000033424179
      14        0.000175701940    -0.000139287212    -0.000079118458
      15       -0.000207673048    -0.000023442493    -0.000346355621


*** tstop() called on daniele-Precision-5750 at Thu May 27 11:10:58 2021
Module time:
	user time   =      13.43 seconds =       0.22 minutes
	system time =       0.11 seconds =       0.00 minutes
	total time  =          1 seconds =       0.02 minutes
Total time:
	user time   =     119.44 seconds =       1.99 minutes
	system time =       1.81 seconds =       0.03 minutes
	total time  =         16 seconds =       0.27 minutes

			-----------------------------------------
			 OPTKING 2.0: for geometry optimizations 
			  - R.A. King,  Bethel University        
			-----------------------------------------
	At level 1: Red. Int., RFO, no backsteps, dynamic trust

	Previous internal coordinate definitions found.
	---Fragment 1 Geometry and Gradient---
	 O          -4.1484136643        0.8828498783       -0.7625487631
	 C           0.0136359381       -0.7900211283       -1.1720711917
	 C           2.5627606958       -1.4790693530        0.0290107074
	 C          -1.8678695663        0.3713521936        0.6550289546
	 C           3.9969983824        0.7554157092        1.1880121882
	 H           0.3064779617        0.5494167042       -2.7185808954
	 H          -0.8521582824       -2.4730283876       -1.9950228336
	 H           3.7436616071       -2.3655790915       -1.4148702631
	 H           2.2583464848       -2.9175991877        1.4868067474
	 H          -2.2439460885       -0.9439334460        2.2144560402
	 H          -1.1206293811        2.1295860461        1.4510781407
	 H           4.4031831654        2.1873475480       -0.2430745827
	 H           5.8012465716        0.1335334847        1.9710698241
	 H           2.9402144383        1.6508761226        2.7151171267
	 H          -5.4259465953        1.6393512144        0.3006731501
	             0.0013277843        0.0008460298        0.0010336170
	            -0.0008476412       -0.0023258685        0.0013676525
	             0.0016992645        0.0012389587       -0.0025412237
	            -0.0010943098        0.0000718435       -0.0010873638
	            -0.0016217416        0.0007216232        0.0015863628
	            -0.0000485013       -0.0000147728        0.0001850429
	            -0.0000763460        0.0001141999        0.0000129657
	            -0.0001481729        0.0000807076        0.0000582073
	             0.0000036431        0.0002021493       -0.0000644543
	             0.0000520166       -0.0001450993        0.0001792487
	            -0.0001321835        0.0001582974       -0.0000732903
	             0.0010371169       -0.0007994789       -0.0002128465
	            -0.0001284682        0.0000670544       -0.0000334242
	             0.0001757019       -0.0001392872       -0.0000791185
	            -0.0002076730       -0.0000234425       -0.0003463556

	---Fragment 1 Intrafragment Coordinates---
	 - Coordinate -           - BOHR/RAD -       - ANG/DEG -
	 R(1,4)           =         2.733503	       1.446507
	 R(1,15)          =         1.826150	       0.966357
	 R(2,3)           =         2.900935	       1.535109
	 R(2,4)           =         2.868300	       1.517839
	 R(2,6)           =         2.066771	       1.093688
	 R(2,7)           =         2.063822	       1.092128
	 R(3,5)           =         2.897110	       1.533085
	 R(3,8)           =         2.065241	       1.092878
	 R(3,9)           =         2.070557	       1.095691
	 R(4,10)          =         2.074421	       1.097736
	 R(4,11)          =         2.069649	       1.095211
	 R(5,12)          =         2.064806	       1.092648
	 R(5,13)          =         2.062820	       1.091598
	 R(5,14)          =         2.061720	       1.091015
	 B(1,4,2)         =         1.867835	     107.019084
	 B(1,4,10)        =         1.936109	     110.930889
	 B(1,4,11)        =         1.919543	     109.981691
	 B(2,3,5)         =         2.001440	     114.674093
	 B(2,3,8)         =         1.891198	     108.357660
	 B(2,3,9)         =         1.904279	     109.107151
	 B(2,4,10)        =         1.918832	     109.940993
	 B(2,4,11)        =         1.930663	     110.618837
	 B(3,2,4)         =         1.991990	     114.132601
	 B(3,2,6)         =         1.916904	     109.830525
	 B(3,2,7)         =         1.917747	     109.878828
	 B(3,5,12)        =         1.933704	     110.793083
	 B(3,5,13)        =         1.930874	     110.630903
	 B(3,5,14)        =         1.957948	     112.182138
	 B(4,1,15)        =         1.938243	     111.053153
	 B(4,2,6)         =         1.883029	     107.889618
	 B(4,2,7)         =         1.884945	     107.999411
	 B(5,3,8)         =         1.904657	     109.128791
	 B(5,3,9)         =         1.903895	     109.085129
	 B(6,2,7)         =         1.864568	     106.831878
	 B(8,3,9)         =         1.852584	     106.145244
	 B(10,4,11)       =         1.891209	     108.358303
	 B(12,5,13)       =         1.875602	     107.464103
	 B(12,5,14)       =         1.889140	     108.239741
	 B(13,5,14)       =         1.873486	     107.342859
	*D(1,4,2,3)       =        -3.133776	    -179.552132
	 D(1,4,2,6)       =         1.013838	      58.088659
	 D(1,4,2,7)       =        -0.995711	     -57.050059
	*D(2,3,5,12)      =        -1.044122	     -59.823808
	 D(2,3,5,13)      =        -3.122400	    -178.900351
	 D(2,3,5,14)      =         1.069298	      61.266246
	*D(2,4,1,15)      =        -3.135336	    -179.641508
	 D(3,2,4,10)      =        -1.029557	     -58.989266
	 D(3,2,4,11)      =         1.058479	      60.646353
	*D(4,2,3,5)       =        -1.049394	     -60.125847
	 D(4,2,3,8)       =         3.101562	     177.706407
	 D(4,2,3,9)       =         1.091781	      62.554464
	 D(5,3,2,6)       =         1.067531	      61.165007
	 D(5,3,2,7)       =         3.113751	     178.404776
	 D(6,2,3,8)       =        -1.064699	     -61.002739
	 D(6,2,3,9)       =        -3.074479	    -176.154682
	 D(6,2,4,10)      =         3.118057	     178.651526
	 D(6,2,4,11)      =        -1.077093	     -61.712855
	 D(7,2,3,8)       =         0.981521	      56.237030
	 D(7,2,3,9)       =        -1.028259	     -58.914912
	 D(7,2,4,10)      =         1.108508	      63.512807
	 D(7,2,4,11)      =        -3.086642	    -176.851574
	 D(8,3,5,12)      =         1.080786	      61.924504
	 D(8,3,5,13)      =        -0.997491	     -57.152039
	 D(8,3,5,14)      =        -3.088979	    -176.985442
	 D(9,3,5,12)      =         3.097680	     177.483998
	 D(9,3,5,13)      =         1.019402	      58.407456
	 D(9,3,5,14)      =        -1.072085	     -61.425947
	 D(10,4,1,15)     =         1.054671	      60.428192
	 D(11,4,1,15)     =        -1.037282	     -59.431855

	Current energy   :      -233.5816127033

	Energy change for the previous step:
		Projected    :        -0.0004456713
		Actual       :        -0.0001412045

	Performing BFGS update.
	Previous computed or guess Hessian on step 1.
	Steps to be used in Hessian update: 2 1
	Taking RFO optimization step.
	Going to follow RFO solution 1.
	Using RFO vector 1.
	Norm of target step-size    0.01108
	Projected energy change by RFO approximation:        -0.0000148628

	Back-transformation to cartesian coordinates...
	Successfully converged to displaced geometry.

	Back-transformation to cartesian coordinates to adjust frozen coordinates...
	Successfully converged to displaced geometry.

	--- Internal Coordinate Step in ANG or DEG, aJ/ANG or AJ/DEG ---
	 ---------------------------------------------------------------------------
	   Coordinate                Previous        Force       Change         New 
	   ----------                --------       ------       ------       ------
	    1 R(1,4)          =      1.446507     0.009424     0.001552     1.448059
	    2 R(1,15)         =      0.966357     0.000553    -0.000119     0.966238
	    3 R(2,3)          =      1.535109    -0.000295    -0.000001     1.535107
	    4 R(2,4)          =      1.517839    -0.001739    -0.000463     1.517376
	    5 R(2,6)          =      1.093688     0.001335     0.000172     1.093860
	    6 R(2,7)          =      1.092128     0.000508    -0.000006     1.092122
	    7 R(3,5)          =      1.533085    -0.001052    -0.000291     1.532794
	    8 R(3,8)          =      1.092878     0.001311     0.000181     1.093059
	    9 R(3,9)          =      1.095691     0.001525     0.000238     1.095930
	   10 R(4,10)         =      1.097736    -0.001847    -0.000378     1.097358
	   11 R(4,11)         =      1.095211    -0.000446    -0.000191     1.095020
	   12 R(5,12)         =      1.092648     0.001624     0.000264     1.092912
	   13 R(5,13)         =      1.091598     0.001217     0.000166     1.091764
	   14 R(5,14)         =      1.091015     0.001740     0.000247     1.091263
	   15 B(1,4,2)        =    107.019084    -0.000016    -0.050256   106.968828
	   16 B(1,4,10)       =    110.930889    -0.000000    -0.098927   110.831962
	   17 B(1,4,11)       =    109.981691     0.000015     0.081584   110.063275
	   18 B(2,3,5)        =    114.674093    -0.000043    -0.123460   114.550632
	   19 B(2,3,8)        =    108.357660     0.000018     0.057750   108.415411
	   20 B(2,3,9)        =    109.107151     0.000010     0.033424   109.140575
	   21 B(2,4,10)       =    109.940993     0.000008     0.031966   109.972959
	   22 B(2,4,11)       =    110.618837    -0.000003     0.032366   110.651203
	   23 B(3,2,4)        =    114.132601    -0.000029    -0.091524   114.041077
	   24 B(3,2,6)        =    109.830525     0.000004     0.023853   109.854378
	   25 B(3,2,7)        =    109.878828     0.000005    -0.044227   109.834601
	   26 B(3,5,12)       =    110.793083     0.000015     0.063735   110.856818
	   27 B(3,5,13)       =    110.630903    -0.000004     0.001829   110.632732
	   28 B(3,5,14)       =    112.182138    -0.000006    -0.024645   112.157494
	   29 B(4,1,15)       =    111.053153    -0.000055    -0.250427   110.802726
	   30 B(4,2,6)        =    107.889618     0.000013     0.085599   107.975217
	   31 B(4,2,7)        =    107.999411     0.000014     0.038642   108.038053
	   32 B(5,3,8)        =    109.128791     0.000009    -0.010921   109.117870
	   33 B(5,3,9)        =    109.085129     0.000017     0.067635   109.152764
	   34 B(6,2,7)        =    106.831878    -0.000005    -0.005414   106.826464
	   35 B(8,3,9)        =    106.145244    -0.000009    -0.017664   106.127580
	   36 B(10,4,11)      =    108.358303    -0.000003     0.003182   108.361485
	   37 B(12,5,13)      =    107.464103    -0.000003     0.003898   107.468001
	   38 B(12,5,14)      =    108.239741    -0.000007    -0.060380   108.179361
	   39 B(13,5,14)      =    107.342859     0.000005     0.013887   107.356746
	   40 *D(1,4,2,3)     =   -179.552132     0.000000    -0.000000  -179.552132
	   41 D(1,4,2,6)      =     58.088659     0.000001    -0.032448    58.056211
	   42 D(1,4,2,7)      =    -57.050059    -0.000001    -0.089623   -57.139683
	   43 *D(2,3,5,12)    =    -59.823808    -0.000000    -0.000000   -59.823808
	   44 D(2,3,5,13)     =   -178.900351    -0.000001    -0.047000  -178.947351
	   45 D(2,3,5,14)     =     61.266246    -0.000001    -0.049429    61.216817
	   46 *D(2,4,1,15)    =   -179.641508    -0.000000    -0.000000  -179.641508
	   47 D(3,2,4,10)     =    -58.989266    -0.000001    -0.131385   -59.120651
	   48 D(3,2,4,11)     =     60.646353    -0.000001    -0.086509    60.559844
	   49 *D(4,2,3,5)     =    -60.125847     0.000000    -0.000000   -60.125847
	   50 D(4,2,3,8)      =    177.706407     0.000001     0.054819   177.761226
	   51 D(4,2,3,9)      =     62.554464    -0.000000     0.026865    62.581330
	   52 D(5,3,2,6)      =     61.165007    -0.000000     0.065179    61.230186
	   53 D(5,3,2,7)      =    178.404776    -0.000000     0.046542   178.451318
	   54 D(6,2,3,8)      =    -61.002739     0.000001     0.119998   -60.882741
	   55 D(6,2,3,9)      =   -176.154682    -0.000000     0.092044  -176.062637
	   56 D(6,2,4,10)     =    178.651526    -0.000000    -0.163833   178.487692
	   57 D(6,2,4,11)     =    -61.712855    -0.000000    -0.118957   -61.831812
	   58 D(7,2,3,8)      =     56.237030     0.000001     0.101361    56.338391
	   59 D(7,2,3,9)      =    -58.914912    -0.000000     0.073407   -58.841505
	   60 D(7,2,4,10)     =     63.512807    -0.000002    -0.221008    63.291799
	   61 D(7,2,4,11)     =   -176.851574    -0.000002    -0.176132  -177.027706
	   62 D(8,3,5,12)     =     61.924504     0.000000    -0.018526    61.905978
	   63 D(8,3,5,13)     =    -57.152039    -0.000001    -0.065526   -57.217565
	   64 D(8,3,5,14)     =   -176.985442    -0.000001    -0.067955  -177.053397
	   65 D(9,3,5,12)     =    177.483998     0.000001    -0.008392   177.475606
	   66 D(9,3,5,13)     =     58.407456     0.000000    -0.055393    58.352063
	   67 D(9,3,5,14)     =    -61.425947     0.000000    -0.057821   -61.483768
	   68 D(10,4,1,15)    =     60.428192     0.000000     0.048744    60.476936
	   69 D(11,4,1,15)    =    -59.431855    -0.000001     0.055057   -59.376798
	 ---------------------------------------------------------------------------
	Successfully symmetrized geometry.

  ==> Convergence Check <==

  Measures of convergence in internal coordinates in au.
  Criteria marked as inactive (o), active & met (*), and active & unmet ( ).
  ---------------------------------------------------------------------------------------------
   Step     Total Energy     Delta E     MAX Force     RMS Force      MAX Disp      RMS Disp   
  ---------------------------------------------------------------------------------------------
    Convergence Criteria             o    2.50e-03 *    1.70e-03 *    1.00e-02 *    6.70e-03 *
  ---------------------------------------------------------------------------------------------
      3    -233.58161270   -1.41e-04 o    1.14e-03 *    2.11e-04 *    4.37e-03 *    1.33e-03 *  ~
  ---------------------------------------------------------------------------------------------


  **** Optimization is complete! (in 3 steps) ****

  ==> Optimization Summary <==

  Measures of convergence in internal coordinates in au.
  --------------------------------------------------------------------------------------------------------------- ~
   Step         Total Energy             Delta E       MAX Force       RMS Force        MAX Disp        RMS Disp  ~
  --------------------------------------------------------------------------------------------------------------- ~
      1    -233.580054543602   -233.580054543602      0.01696895      0.00361327      0.05891764      0.01667082  ~
      2    -233.581471498828     -0.001416955225      0.00306353      0.00096661      0.01719464      0.00588713  ~
      3    -233.581612703301     -0.000141204473      0.00114388      0.00021051      0.00437078      0.00133412  ~
  --------------------------------------------------------------------------------------------------------------- ~

	Writing optimization data to binary file.
	Final energy is   -233.5816127033007
	Final (previous) structure:
	Cartesian Geometry (in Angstrom)
	    O    -2.1952459630   0.4671840342  -0.4035234259
	    C     0.0072158276  -0.4180611754  -0.6202333615
	    C     1.3561545513  -0.7826897915   0.0153518052
	    C    -0.9884340031   0.1965111172   0.3466263937
	    C     2.1151204467   0.3997487763   0.6286689735
	    H     0.1621811523   0.2907387979  -1.4386110496
	    H    -0.4509427411  -1.3086702589  -1.0557206141
	    H     1.9810603992  -1.2518105403  -0.7487170964
	    H     1.1950654889  -1.5439269939   0.7867842443
	    H    -1.1874451274  -0.4995080661   1.1718396659
	    H    -0.5930115277   1.1269283993   0.7678774799
	    H     2.3300641764   1.1574944697  -0.1286295291
	    H     3.0698874671   0.0706628767   1.0430452274
	    H     1.5558944691   0.8736060183   1.4367781021
	    H    -2.8712872733   0.8675072995   0.1591093783
	Saving final (previous) structure.
			--------------------------
			 OPTKING Finished Execution 
			--------------------------

    Final optimized geometry and variables:
    Molecular point group: c1
    Full point group: C1

    Geometry (in Angstrom), charge = 0, multiplicity = 1:

    O           -2.195245971579     0.467184036054    -0.403523427437
    C            0.007215827668    -0.418061177054    -0.620233363947
    C            1.356154556608    -0.782689794618     0.015351805233
    C           -0.988434007010     0.196511117985     0.346626395110
    C            2.115120455058     0.399748777876     0.628668976004
    H            0.162181152904     0.290738799027    -1.438611055206
    H           -0.450942742910    -1.308670264066    -1.055720618281
    H            1.981060406947    -1.251810545264    -0.748717099302
    H            1.195065493551    -1.543926999983     0.786784247371
    H           -1.187445132031    -0.499508068038     1.171839670479
    H           -0.593011530080     1.126928403737     0.767877482944
    H            2.330064185514     1.157494474207    -0.128629529651
    H            3.069887479178     0.070662876956     1.043045231539
    H            1.555894475237     0.873606021735     1.436778107726
    H           -2.871287284553     0.867507302958     0.159109378907

	Removing binary optimization data file.
	Cleaning optimization helper files.

    Psi4 stopped on: Thursday, 27 May 2021 11:10AM
    Psi4 wall time for execution: 0:00:16.00

*** Psi4 exiting successfully. Buy a developer a beer!
