
    -----------------------------------------------------------------------
          Psi4: An Open-Source Ab Initio Electronic Structure Package
                               Psi4 1.3.2 release

                         Git: Rev {HEAD} ecbda83 


    R. M. Parrish, L. A. Burns, D. G. A. Smith, A. C. Simmonett,
    A. E. DePrince III, E. G. Hohenstein, U. Bozkaya, A. Yu. Sokolov,
    R. Di Remigio, R. M. Richard, J. F. Gonthier, A. M. James,
    H. R. McAlexander, A. Kumar, M. Saitow, X. Wang, B. P. Pritchard,
    P. Verma, H. F. Schaefer III, K. Patkowski, R. A. King, E. F. Valeev,
    F. A. Evangelista, J. M. Turney, T. D. Crawford, and C. D. Sherrill,
    J. Chem. Theory Comput. 13(7) pp 3185--3197 (2017).
    (doi: 10.1021/acs.jctc.7b00174)


                         Additional Contributions by
    P. Kraus, H. Kruse, M. H. Lechner, M. C. Schieber, R. A. Shaw,
    A. Alenaizan, R. Galvelis, Z. L. Glick, S. Lehtola, and J. P. Misiewicz

    -----------------------------------------------------------------------


    Psi4 started on: Thursday, 27 May 2021 11:03AM

    Process ID: 225974
    Host:       daniele-Precision-5750
    PSIDATADIR: /home/daniele/anaconda3/envs/poltype/share/psi4
    Memory:     500.0 MiB
    Threads:    1
    
  ==> Input File <==

--------------------------------------------------------------------------
molecule { 
0 1
 O   -2.365463    0.445065   -0.370543
 C    0.021553    0.245963   -0.157599
 C    1.241975   -0.407599    0.539715
 C   -1.347796   -0.234568    0.370925
 C    2.601384    0.085963    0.003824
 H    0.068026    1.336746   -0.041696
 H    0.061098    0.046791   -1.236416
 H    1.189166   -1.498152    0.423836
 H    1.193680   -0.213670    1.619349
 H   -1.434695   -1.323502    0.262800
 H   -1.439047   -0.014622    1.441447
 H    2.705731   -0.125377   -1.065858
 H    3.427254   -0.410235    0.524677
 H    2.715514    1.165547    0.149971
 H   -2.913305   -0.219442   -0.829011
}
set optking { 
  frozen_dihedral = ("
    2 4 1 15
    4 2 3 5
    3 2 4 1
    12 5 3 2
  ")
}
set {
  geom_maxiter 400
  g_convergence GAU_LOOSE
  dynamic_level 1
}
memory 700MB
set_num_threads(8)
psi4_io.set_default_path("/home/daniele/PSI4_sctatch/Psi4-1butanol_3D")
for _ in range(1):
  try:
    set opt_coordinates both
    optimize('wb97x-d/6-311G')
    break
  except OptimizationConvergenceError:
    break
  else:
    try:
      set opt_coordinates cartesian
      optimize('wb97x-d/6-311G')
      break
    except OptimizationConvergenceError:
      pass
clean()
--------------------------------------------------------------------------

  Memory set to 667.572 MiB by Python driver.
  Threads set to 8 by Python driver.
gradient() will perform analytic gradient computation.

*** tstart() called on daniele-Precision-5750
*** at Thu May 27 11:03:54 2021

   => Loading Basis Set <=

    Name: 6-311G
    Role: ORBITAL
    Keyword: BASIS
    atoms 1    entry O          line   126 file /home/daniele/anaconda3/envs/poltype/share/psi4/basis/6-311g.gbs 
    atoms 2-5  entry C          line    92 file /home/daniele/anaconda3/envs/poltype/share/psi4/basis/6-311g.gbs 
    atoms 6-15 entry H          line    21 file /home/daniele/anaconda3/envs/poltype/share/psi4/basis/6-311g.gbs 


         ---------------------------------------------------------
                                   SCF
               by Justin Turney, Rob Parrish, Andy Simmonett
                          and Daniel G. A. Smith
                              RKS Reference
                        8 Threads,    667 MiB Core
         ---------------------------------------------------------

  ==> Geometry <==

    Molecular point group: c1
    Full point group: C1

    Geometry (in Angstrom), charge = 0, multiplicity = 1:

       Center              X                  Y                   Z               Mass       
    ------------   -----------------  -----------------  -----------------  -----------------
         O           -2.338287807533     0.416307742312    -0.430138800929    15.994914619570
         C            0.048728192467     0.217205742312    -0.217194800929    12.000000000000
         C            1.269150192467    -0.436356257688     0.480119199071    12.000000000000
         C           -1.320620807533    -0.263325257688     0.311329199071    12.000000000000
         C            2.628559192467     0.057205742312    -0.055771800929    12.000000000000
         H            0.095201192467     1.307988742312    -0.101291800929     1.007825032230
         H            0.088273192467     0.018033742312    -1.296011800929     1.007825032230
         H            1.216341192467    -1.526909257688     0.364240199071     1.007825032230
         H            1.220855192467    -0.242427257688     1.559753199071     1.007825032230
         H           -1.407519807533    -1.352259257688     0.203204199071     1.007825032230
         H           -1.411871807533    -0.043379257688     1.381851199071     1.007825032230
         H            2.732906192467    -0.154134257688    -1.125453800929     1.007825032230
         H            3.454429192467    -0.438992257688     0.465081199071     1.007825032230
         H            2.742689192467     1.136789742312     0.090375199071     1.007825032230
         H           -2.886129807533    -0.248199257688    -0.888606800929     1.007825032230

  Running in c1 symmetry.

  Rotational constants: A =      0.60546  B =      0.06426  C =      0.06099 [cm^-1]
  Rotational constants: A =  18151.30187  B =   1926.49610  C =   1828.28508 [MHz]
  Nuclear repulsion =  183.147847449876167

  Charge       = 0
  Multiplicity = 1
  Electrons    = 42
  Nalpha       = 21
  Nbeta        = 21

  ==> Algorithm <==

  SCF Algorithm Type is DF.
  DIIS enabled.
  MOM disabled.
  Fractional occupation disabled.
  Guess Type is SAD.
  Energy threshold   = 1.00e-08
  Density threshold  = 1.00e-08
  Integral threshold = 0.00e+00

  ==> Primary Basis <==

  Basis Set: 6-311G
    Blend: 6-311G
    Number of shells: 65
    Number of basis function: 95
    Number of Cartesian functions: 95
    Spherical Harmonics?: true
    Max angular momentum: 1

  ==> DFT Potential <==

   => Composite Functional: WB97X-D <= 

    wB97X-D Hyb-GGA Exchange-Correlation Functional

    J.-D. Chai and M. Head-Gordon, Phys. Chem. Chem. Phys. 10, 6615 (2008)

    Deriv               =              1
    GGA                 =           TRUE
    Meta                =          FALSE

    Exchange Hybrid     =           TRUE
    MP2 Hybrid          =          FALSE

   => Exchange-Correlation Functionals <=

    1.0000   wB97D range-separated functional

   => Exact (HF) Exchange <=

    0.7780            HF,LR [omega = 0.2000]
    0.2220               HF 

   => Molecular Quadrature <=

    Radial Scheme          =       TREUTLER
    Pruning Scheme         =           FLAT
    Nuclear Scheme         =       TREUTLER

    BS radius alpha        =              1
    Pruning alpha          =              1
    Radial Points          =             75
    Spherical Points       =            302
    Total Points           =         336088
    Total Blocks           =           2582
    Max Points             =            256
    Max Functions          =             89

   => WB97X-D: Empirical Dispersion <=

    Chai and Head-Gordon Dispersion Correction
    Chai, J.-D.; Head-Gordon, M. (2010), J. Chem. Phys., 132: 6615-6620

        s6 =       1.000000

   => Loading Basis Set <=

    Name: (6-311G AUX)
    Role: JKFIT
    Keyword: DF_BASIS_SCF
    atoms 1    entry O          line   229 file /home/daniele/anaconda3/envs/poltype/share/psi4/basis/cc-pvtz-jkfit.gbs 
    atoms 2-5  entry C          line   125 file /home/daniele/anaconda3/envs/poltype/share/psi4/basis/cc-pvtz-jkfit.gbs 
    atoms 6-15 entry H          line    51 file /home/daniele/anaconda3/envs/poltype/share/psi4/basis/cc-pvtz-jkfit.gbs 

  ==> Pre-Iterations <==

   -------------------------------------------------------
    Irrep   Nso     Nmo     Nalpha   Nbeta   Ndocc  Nsocc
   -------------------------------------------------------
     A         95      95       0       0       0       0
   -------------------------------------------------------
    Total      95      95      21      21      21       0
   -------------------------------------------------------

  ==> Integral Setup <==

  ==> DiskDFJK: Density-Fitted J/K Matrices <==

    J tasked:                  Yes
    K tasked:                  Yes
    wK tasked:                 Yes
    Omega:               2.000E-01
    OpenMP threads:              8
    Integrals threads:           8
    Memory [MiB]:               34
    Algorithm:                Disk
    Integral Cache:           NONE
    Schwarz Cutoff:          1E-12
    Fitting Condition:       1E-10

   => Auxiliary Basis Set <=

  Basis Set: (6-311G AUX)
    Blend: CC-PVTZ-JKFIT
    Number of shells: 225
    Number of basis function: 695
    Number of Cartesian functions: 830
    Spherical Harmonics?: true
    Max angular momentum: 4

  Cached 100.0% of DFT collocation blocks in 0.660 [GiB].

  Minimum eigenvalue in the overlap matrix is 2.5761411543E-03.
  Using Symmetric Orthogonalization.

  SCF Guess: Superposition of Atomic Densities via on-the-fly atomic UHF.

  ==> Iterations <==

                           Total Energy        Delta E     RMS |[F,P]|

   @DF-RKS iter SAD:  -232.83826237939707   -2.32838e+02   0.00000e+00 
   @DF-RKS iter   1:  -233.28247205883775   -4.44210e-01   8.19927e-03 DIIS
   @DF-RKS iter   2:  -233.38494158882460   -1.02470e-01   7.16624e-03 DIIS
   @DF-RKS iter   3:  -233.57635542803553   -1.91414e-01   8.25098e-04 DIIS
   @DF-RKS iter   4:  -233.57840540674931   -2.04998e-03   3.32636e-04 DIIS
   @DF-RKS iter   5:  -233.57884409043029   -4.38684e-04   3.37426e-05 DIIS
   @DF-RKS iter   6:  -233.57885024217634   -6.15175e-06   1.62706e-05 DIIS
   @DF-RKS iter   7:  -233.57885144319025   -1.20101e-06   1.88662e-06 DIIS
   @DF-RKS iter   8:  -233.57885147568845   -3.24982e-08   3.25261e-07 DIIS
   @DF-RKS iter   9:  -233.57885147679232   -1.10387e-09   1.13563e-07 DIIS
   @DF-RKS iter  10:  -233.57885147688589   -9.35643e-11   4.41040e-08 DIIS
   @DF-RKS iter  11:  -233.57885147690189   -1.60014e-11   6.62118e-09 DIIS
  Energy and wave function converged.


  ==> Post-Iterations <==

    Orbital Energies [Eh]
    ---------------------

    Doubly Occupied:                                                      

       1A    -19.238059     2A    -10.331782     3A    -10.283378  
       4A    -10.276850     5A    -10.271825     6A     -1.125858  
       7A     -0.891592     8A     -0.818967     9A     -0.728019  
      10A     -0.678482    11A     -0.603263    12A     -0.562115  
      13A     -0.524532    14A     -0.516155    15A     -0.480145  
      16A     -0.455769    17A     -0.437042    18A     -0.418202  
      19A     -0.411862    20A     -0.400943    21A     -0.347853  

    Virtual:                                                              

      22A      0.111664    23A      0.124789    24A      0.148342  
      25A      0.157630    26A      0.170285    27A      0.202359  
      28A      0.208112    29A      0.217633    30A      0.222878  
      31A      0.239032    32A      0.255242    33A      0.295189  
      34A      0.308954    35A      0.327423    36A      0.383249  
      37A      0.388629    38A      0.411152    39A      0.449293  
      40A      0.454904    41A      0.466130    42A      0.498752  
      43A      0.527061    44A      0.605285    45A      0.610579  
      46A      0.644284    47A      0.647467    48A      0.671673  
      49A      0.674396    50A      0.680051    51A      0.691472  
      52A      0.699744    53A      0.701553    54A      0.712526  
      55A      0.720530    56A      0.725451    57A      0.750144  
      58A      0.849483    59A      0.969249    60A      1.015356  
      61A      1.068282    62A      1.076571    63A      1.095670  
      64A      1.135499    65A      1.581601    66A      2.271074  
      67A      2.344038    68A      2.346849    69A      2.350967  
      70A      2.360228    71A      2.362423    72A      2.386072  
      73A      2.391053    74A      2.410911    75A      2.434319  
      76A      2.872177    77A      2.904720    78A      2.919884  
      79A      2.937647    80A      2.950240    81A      2.954493  
      82A      2.982822    83A      3.068330    84A      3.086121  
      85A      3.160559    86A      3.181137    87A      3.300718  
      88A      4.963028    89A      5.004381    90A      5.151600  
      91A     23.430735    92A     23.569698    93A     23.638311  
      94A     23.710294    95A     49.961442  

    Final Occupation by Irrep:
              A 
    DOCC [    21 ]

  @DF-RKS Final Energy:  -233.57885147690189

   => Energetics <=

    Nuclear Repulsion Energy =            183.1478474498761670
    One-Electron Energy =                -678.1464803339589480
    Two-Electron Energy =                 284.6452157019743368
    DFT Exchange-Correlation Energy =     -23.2185569287227622
    Empirical Dispersion Energy =          -0.0068773660706946
    VV10 Nonlocal Energy =                  0.0000000000000000
    Total Energy =                       -233.5788514769018889

Computation Completed


Properties will be evaluated at   0.000000,   0.000000,   0.000000 [a0]

Properties computed using the SCF density matrix

  Nuclear Dipole Moment: [e a0]
     X:     5.4684      Y:    -1.4450      Z:     0.6102

  Electronic Dipole Moment: [e a0]
     X:    -5.3735      Y:     0.6433      Z:    -0.6193

  Dipole Moment: [e a0]
     X:     0.0949      Y:    -0.8016      Z:    -0.0090     Total:     0.8073

  Dipole Moment: [D]
     X:     0.2412      Y:    -2.0376      Z:    -0.0230     Total:     2.0519


*** tstop() called on daniele-Precision-5750 at Thu May 27 11:03:58 2021
Module time:
	user time   =      29.62 seconds =       0.49 minutes
	system time =       0.86 seconds =       0.01 minutes
	total time  =          4 seconds =       0.07 minutes
Total time:
	user time   =      29.62 seconds =       0.49 minutes
	system time =       0.86 seconds =       0.01 minutes
	total time  =          4 seconds =       0.07 minutes

*** tstart() called on daniele-Precision-5750
*** at Thu May 27 11:03:58 2021


         ------------------------------------------------------------
                                   SCF GRAD                          
                          Rob Parrish, Justin Turney,                
                       Andy Simmonett, and Alex Sokolov              
         ------------------------------------------------------------

  ==> Geometry <==

    Molecular point group: c1
    Full point group: C1

    Geometry (in Angstrom), charge = 0, multiplicity = 1:

       Center              X                  Y                   Z               Mass       
    ------------   -----------------  -----------------  -----------------  -----------------
         O           -2.338287807533     0.416307742312    -0.430138800929    15.994914619570
         C            0.048728192467     0.217205742312    -0.217194800929    12.000000000000
         C            1.269150192467    -0.436356257688     0.480119199071    12.000000000000
         C           -1.320620807533    -0.263325257688     0.311329199071    12.000000000000
         C            2.628559192467     0.057205742312    -0.055771800929    12.000000000000
         H            0.095201192467     1.307988742312    -0.101291800929     1.007825032230
         H            0.088273192467     0.018033742312    -1.296011800929     1.007825032230
         H            1.216341192467    -1.526909257688     0.364240199071     1.007825032230
         H            1.220855192467    -0.242427257688     1.559753199071     1.007825032230
         H           -1.407519807533    -1.352259257688     0.203204199071     1.007825032230
         H           -1.411871807533    -0.043379257688     1.381851199071     1.007825032230
         H            2.732906192467    -0.154134257688    -1.125453800929     1.007825032230
         H            3.454429192467    -0.438992257688     0.465081199071     1.007825032230
         H            2.742689192467     1.136789742312     0.090375199071     1.007825032230
         H           -2.886129807533    -0.248199257688    -0.888606800929     1.007825032230

  Nuclear repulsion =  183.147847449876167

  ==> Basis Set <==

  Basis Set: 6-311G
    Blend: 6-311G
    Number of shells: 65
    Number of basis function: 95
    Number of Cartesian functions: 95
    Spherical Harmonics?: true
    Max angular momentum: 1

  ==> DFJKGrad: Density-Fitted SCF Gradients <==

    Gradient:                    1
    J tasked:                  Yes
    K tasked:                  Yes
    wK tasked:                 Yes
    Omega:               2.000E-01
    OpenMP threads:              8
    Integrals threads:           8
    Memory [MiB]:              500
    Schwarz Cutoff:          0E+00
    Fitting Condition:       1E-10

   => Auxiliary Basis Set <=

  Basis Set: (6-311G AUX)
    Blend: CC-PVTZ-JKFIT
    Number of shells: 225
    Number of basis function: 695
    Number of Cartesian functions: 830
    Spherical Harmonics?: true
    Max angular momentum: 4

  ==> DFT Potential <==

   => Composite Functional: WB97X-D <= 

    wB97X-D Hyb-GGA Exchange-Correlation Functional

    J.-D. Chai and M. Head-Gordon, Phys. Chem. Chem. Phys. 10, 6615 (2008)

    Deriv               =              1
    GGA                 =           TRUE
    Meta                =          FALSE

    Exchange Hybrid     =           TRUE
    MP2 Hybrid          =          FALSE

   => Exchange-Correlation Functionals <=

    1.0000   wB97D range-separated functional

   => Exact (HF) Exchange <=

    0.7780            HF,LR [omega = 0.2000]
    0.2220               HF 

   => Molecular Quadrature <=

    Radial Scheme          =       TREUTLER
    Pruning Scheme         =           FLAT
    Nuclear Scheme         =       TREUTLER

    BS radius alpha        =              1
    Pruning alpha          =              1
    Radial Points          =             75
    Spherical Points       =            302
    Total Points           =         336088
    Total Blocks           =           2582
    Max Points             =            256
    Max Functions          =             89


  -Total Gradient:
     Atom            X                  Y                   Z
    ------   -----------------  -----------------  -----------------
       1        0.017207452612     0.007550174747     0.007420885210
       2       -0.002800999409     0.004432626016    -0.005074445167
       3        0.003002001404    -0.001968735709     0.001360138256
       4       -0.024449764231     0.002275068287    -0.003210463042
       5        0.003460771515     0.000705204873    -0.001115846706
       6        0.000553200155     0.002910210898    -0.000260068535
       7        0.000450482673     0.000355670363    -0.002494317947
       8        0.000619843857    -0.001560244872     0.000351075172
       9        0.000641078561    -0.000259731159     0.001803619080
      10       -0.001584161336    -0.000968100144     0.000905669583
      11        0.001275662564    -0.002556807627     0.002936067014
      12        0.000833131130    -0.000681477014    -0.001744003346
      13        0.001790596956    -0.001008281300     0.001021451233
      14        0.000928980521     0.001851514468     0.000711981984
      15       -0.001979106683    -0.011162852790    -0.002614256427


*** tstop() called on daniele-Precision-5750 at Thu May 27 11:04:00 2021
Module time:
	user time   =      14.13 seconds =       0.24 minutes
	system time =       0.14 seconds =       0.00 minutes
	total time  =          2 seconds =       0.03 minutes
Total time:
	user time   =      43.76 seconds =       0.73 minutes
	system time =       1.00 seconds =       0.02 minutes
	total time  =          6 seconds =       0.10 minutes

			-----------------------------------------
			 OPTKING 2.0: for geometry optimizations 
			  - R.A. King,  Bethel University        
			-----------------------------------------
	At level 1: Red. Int., RFO, no backsteps, dynamic trust

	Internal coordinates to be generated automatically.
	Detected frag 1 with atoms:  1 2 3 4 5 6 7 8 9 10 11 12 13 14 15
	---Fragment 1 Bond Connectivity---
	 1 : 4 15
	 2 : 3 4 6 7
	 3 : 2 5 8 9
	 4 : 1 2 10 11
	 5 : 3 12 13 14
	 6 : 2
	 7 : 2
	 8 : 3
	 9 : 3
	 10 : 4
	 11 : 4
	 12 : 5
	 13 : 5
	 14 : 5
	 15 : 1

	Assuming in current code that numbering for constraints corresponds to unified fragment.
	Frozen dihedral atom list: 
	     2     4     1    15
	     4     2     3     5
	     3     2     4     1
	    12     5     3     2
	---Fragment 1 Geometry and Gradient---
	 O          -4.4187235587        0.7867076169       -0.8128445297
	 C           0.0920829384        0.4104593658       -0.4104386896
	 C           2.3983462758       -0.8245938202        0.9072937938
	 C          -2.4956116418       -0.4976126189        0.5883269211
	 C           4.9672569783        0.1081031858       -0.1053934293
	 H           0.1799041806        2.4717404982       -0.1914137625
	 H           0.1668121580        0.0340788340       -2.4491073591
	 H           2.2985517289       -2.8854403155        0.6883142201
	 H           2.3070819526       -0.4581211224        2.9475063696
	 H          -2.6598269524       -2.5553996476        0.3840002838
	 H          -2.6680510405       -0.0819749166        2.6113203124
	 H           5.1644442303       -0.2912715336       -2.1267994506
	 H           6.5279250935       -0.8295751382        0.8788760923
	 H           5.1829314210        2.1482212752        0.1707843748
	 H          -5.4539948988       -0.4690286216       -1.6792234870
	             0.0172074526        0.0075501747        0.0074208852
	            -0.0028009994        0.0044326260       -0.0050744452
	             0.0030020014       -0.0019687357        0.0013601383
	            -0.0244497642        0.0022750683       -0.0032104630
	             0.0034607715        0.0007052049       -0.0011158467
	             0.0005532002        0.0029102109       -0.0002600685
	             0.0004504827        0.0003556704       -0.0024943179
	             0.0006198439       -0.0015602449        0.0003510752
	             0.0006410786       -0.0002597312        0.0018036191
	            -0.0015841613       -0.0009681001        0.0009056696
	             0.0012756626       -0.0025568076        0.0029360670
	             0.0008331311       -0.0006814770       -0.0017440033
	             0.0017905970       -0.0010082813        0.0010214512
	             0.0009289805        0.0018515145        0.0007119820
	            -0.0019791067       -0.0111628528       -0.0026142564

	Previous optimization step data not found.  Starting new optimization.

	---Fragment 1 Intrafragment Coordinates---
	 - Coordinate -           - BOHR/RAD -       - ANG/DEG -
	 R(1,4)           =         2.703908	       1.430847
	 R(1,15)          =         1.843712	       0.975650
	 R(2,3)           =         2.929271	       1.550103
	 R(2,4)           =         2.918611	       1.544462
	 R(2,6)           =         2.074744	       1.097907
	 R(2,7)           =         2.074468	       1.097761
	 R(3,5)           =         2.914577	       1.542328
	 R(3,8)           =         2.074849	       1.097963
	 R(3,9)           =         2.074873	       1.097976
	 R(4,10)          =         2.074416	       1.097734
	 R(4,11)          =         2.072436	       1.096686
	 R(5,12)          =         2.069895	       1.095341
	 R(5,13)          =         2.069713	       1.095245
	 R(5,14)          =         2.069993	       1.095393
	 B(1,4,2)         =         1.881237	     107.786938
	 B(1,4,10)        =         1.943177	     111.335844
	 B(1,4,11)        =         1.929862	     110.572927
	 B(2,3,5)         =         1.985276	     113.747939
	 B(2,3,8)         =         1.910740	     109.477365
	 B(2,3,9)         =         1.910530	     109.465287
	 B(2,4,10)        =         1.923160	     110.188958
	 B(2,4,11)        =         1.923477	     110.207114
	 B(3,2,4)         =         1.996462	     114.388862
	 B(3,2,6)         =         1.915665	     109.759536
	 B(3,2,7)         =         1.914767	     109.708068
	 B(3,5,12)        =         1.940714	     111.194695
	 B(3,5,13)        =         1.933074	     110.756973
	 B(3,5,14)        =         1.939996	     111.153574
	 B(4,1,15)        =         1.895859	     108.624692
	 B(4,2,6)         =         1.886532	     108.090347
	 B(4,2,7)         =         1.887872	     108.167089
	 B(5,3,8)         =         1.900300	     108.879193
	 B(5,3,9)         =         1.900644	     108.898877
	 B(6,2,7)         =         1.857173	     106.408154
	 B(8,3,9)         =         1.851564	     106.086813
	 B(10,4,11)       =         1.863466	     106.768717
	 B(12,5,13)       =         1.880914	     107.768450
	 B(12,5,14)       =         1.886545	     108.091072
	 B(13,5,14)       =         1.880204	     107.727777
	*D(1,4,2,3)       =        -3.134321	    -179.583359
	 D(1,4,2,6)       =         1.009287	      57.827880
	 D(1,4,2,7)       =        -0.994902	     -57.003670
	*D(2,3,5,12)      =        -1.044693	     -59.856511
	 D(2,3,5,13)      =        -3.135624	    -179.658035
	 D(2,3,5,14)      =         1.057996	      60.618677
	*D(2,4,1,15)      =         2.094684	     120.016566
	 D(3,2,4,10)      =        -1.010718	     -57.909866
	 D(3,2,4,11)      =         1.041342	      59.664484
	*D(4,2,3,5)       =        -3.138399	    -179.816996
	 D(4,2,3,8)       =         1.014718	      58.139044
	 D(4,2,3,9)       =        -1.008041	     -57.756516
	 D(5,3,2,6)       =        -1.014725	     -58.139436
	 D(5,3,2,7)       =         1.020045	      58.444279
	 D(6,2,3,8)       =         3.138392	     179.816603
	 D(6,2,3,9)       =         1.115633	      63.921044
	 D(6,2,4,10)      =         3.132890	     179.501373
	 D(6,2,4,11)      =        -1.098236	     -62.924277
	 D(7,2,3,8)       =        -1.110024	     -63.599682
	 D(7,2,3,9)       =        -3.132783	    -179.495241
	 D(7,2,4,10)      =         1.128701	      64.669823
	 D(7,2,4,11)      =        -3.102424	    -177.755827
	 D(8,3,5,12)      =         1.091140	      62.517715
	 D(8,3,5,13)      =        -0.999791	     -57.283809
	 D(8,3,5,14)      =        -3.089357	    -177.007097
	 D(9,3,5,12)      =         3.102677	     177.770307
	 D(9,3,5,13)      =         1.011746	      57.968783
	 D(9,3,5,14)      =        -1.077819	     -61.754505
	 D(10,4,1,15)     =        -0.016445	      -0.942246
	 D(11,4,1,15)     =        -2.084985	    -119.460852

	Current energy   :      -233.5788514769

	Generating empirical Hessian (Schlegel '84) for each fragment.
	Taking RFO optimization step.
	Going to follow RFO solution 1.
	Using RFO vector 1.
	Norm of target step-size    0.13957
	Projected energy change by RFO approximation:        -0.0021419345

	Back-transformation to cartesian coordinates...
	Successfully converged to displaced geometry.

	Back-transformation to cartesian coordinates to adjust frozen coordinates...
	Successfully converged to displaced geometry.

	--- Internal Coordinate Step in ANG or DEG, aJ/ANG or AJ/DEG ---
	 ---------------------------------------------------------------------------
	   Coordinate                Previous        Force       Change         New 
	   ----------                --------       ------       ------       ------
	    1 R(1,4)          =      1.430847     0.124038     0.019320     1.450166
	    2 R(1,15)         =      0.975650    -0.082010    -0.010013     0.965638
	    3 R(2,3)          =      1.550103    -0.091991    -0.021093     1.529010
	    4 R(2,4)          =      1.544462    -0.097333    -0.021939     1.522524
	    5 R(2,6)          =      1.097907    -0.023782    -0.004456     1.093452
	    6 R(2,7)          =      1.097761    -0.019841    -0.003715     1.094046
	    7 R(3,5)          =      1.542328    -0.056682    -0.012693     1.529635
	    8 R(3,8)          =      1.097963    -0.012077    -0.002263     1.095700
	    9 R(3,9)          =      1.097976    -0.014069    -0.002636     1.095339
	   10 R(4,10)         =      1.097734    -0.008171    -0.001530     1.096204
	   11 R(4,11)         =      1.096686    -0.018545    -0.003461     1.093226
	   12 R(5,12)         =      1.095341    -0.015778    -0.002931     1.092410
	   13 R(5,13)         =      1.095245    -0.018850    -0.003501     1.091744
	   14 R(5,14)         =      1.095393    -0.016709    -0.003105     1.092288
	   15 B(1,4,2)        =    107.786938     0.000653     2.183181   109.970118
	   16 B(1,4,10)       =    111.335844    -0.000128     0.283499   111.619343
	   17 B(1,4,11)       =    110.572927    -0.000332    -1.941094   108.631833
	   18 B(2,3,5)        =    113.747939    -0.000335    -1.300632   112.447308
	   19 B(2,3,8)        =    109.477365     0.000070    -0.011723   109.465642
	   20 B(2,3,9)        =    109.465287     0.000051    -0.102637   109.362650
	   21 B(2,4,10)       =    110.188958    -0.000270    -0.840938   109.348020
	   22 B(2,4,11)       =    110.207114    -0.000118    -0.479480   109.727633
	   23 B(3,2,4)        =    114.388862    -0.000295    -1.179372   113.209490
	   24 B(3,2,6)        =    109.759536     0.000132     0.472106   110.231641
	   25 B(3,2,7)        =    109.708068     0.000059     0.150501   109.858569
	   26 B(3,5,12)       =    111.194695    -0.000048    -0.296091   110.898604
	   27 B(3,5,13)       =    110.756973     0.000017     0.228181   110.985154
	   28 B(3,5,14)       =    111.153574    -0.000046    -0.301772   110.851802
	   29 B(4,1,15)       =    108.624692     0.000849     3.900371   112.525063
	   30 B(4,2,6)        =    108.090347     0.000062     0.118864   108.209211
	   31 B(4,2,7)        =    108.167089     0.000075    -0.049736   108.117354
	   32 B(5,3,8)        =    108.879193     0.000137     0.553131   109.432325
	   33 B(5,3,9)        =    108.898877     0.000128     0.496601   109.395479
	   34 B(6,2,7)        =    106.408154    -0.000015     0.589885   106.998039
	   35 B(8,3,9)        =    106.086813    -0.000030     0.476938   106.563751
	   36 B(10,4,11)      =    106.768717     0.000174     0.727429   107.496146
	   37 B(12,5,13)      =    107.768450     0.000027     0.277967   108.046417
	   38 B(12,5,14)      =    108.091072     0.000019    -0.200081   107.890991
	   39 B(13,5,14)      =    107.727777     0.000036     0.313454   108.041231
	   40 *D(1,4,2,3)     =   -179.583359    -0.000000     0.000000  -179.583359
	   41 D(1,4,2,6)      =     57.827880    -0.000004     0.098147    57.926026
	   42 D(1,4,2,7)      =    -57.003670    -0.000016    -0.629012   -57.632683
	   43 *D(2,3,5,12)    =    -59.856511     0.000000     0.000000   -59.856511
	   44 D(2,3,5,13)     =   -179.658035    -0.000003    -0.305592  -179.963627
	   45 D(2,3,5,14)     =     60.618677    -0.000009    -0.651799    59.966878
	   46 *D(2,4,1,15)    =    120.016566     0.000000     0.000000   120.016566
	   47 D(3,2,4,10)     =    -57.909866     0.000021     1.219370   -56.690495
	   48 D(3,2,4,11)     =     59.664484     0.000016     1.317760    60.982244
	   49 *D(4,2,3,5)     =   -179.816996     0.000000     0.000000  -179.816996
	   50 D(4,2,3,8)      =     58.139044     0.000001     0.186309    58.325353
	   51 D(4,2,3,9)      =    -57.756516    -0.000007    -0.322303   -58.078819
	   52 D(5,3,2,6)      =    -58.139436    -0.000006    -0.318716   -58.458152
	   53 D(5,3,2,7)      =     58.444279     0.000015     0.767301    59.211580
	   54 D(6,2,3,8)      =    179.816603    -0.000005    -0.132406   179.684197
	   55 D(6,2,3,9)      =     63.921044    -0.000013    -0.641019    63.280025
	   56 D(6,2,4,10)     =    179.501373     0.000017     1.317517   180.818890
	   57 D(6,2,4,11)     =    -62.924277     0.000012     1.415907   -61.508371
	   58 D(7,2,3,8)      =    -63.599682     0.000016     0.953611   -62.646072
	   59 D(7,2,3,9)      =   -179.495241     0.000008     0.444998  -179.050243
	   60 D(7,2,4,10)     =     64.669823     0.000005     0.590358    65.260181
	   61 D(7,2,4,11)     =   -177.755827     0.000000     0.688747  -177.067080
	   62 D(8,3,5,12)     =     62.517715    -0.000009    -0.497649    62.020066
	   63 D(8,3,5,13)     =    -57.283809    -0.000012    -0.803241   -58.087050
	   64 D(8,3,5,14)     =   -177.007097    -0.000018    -1.149448  -178.156545
	   65 D(9,3,5,12)     =    177.770307     0.000016     0.653681   178.423988
	   66 D(9,3,5,13)     =     57.968783     0.000013     0.348089    58.316872
	   67 D(9,3,5,14)     =    -61.754505     0.000007     0.001882   -61.752623
	   68 D(10,4,1,15)    =     -0.942246    -0.000003    -0.587604    -1.529850
	   69 D(11,4,1,15)    =   -119.460852     0.000015    -0.421750  -119.882602
	 ---------------------------------------------------------------------------
	Successfully symmetrized geometry.

  ==> Convergence Check <==

  Measures of convergence in internal coordinates in au.
  Criteria marked as inactive (o), active & met (*), and active & unmet ( ).
  --------------------------------------------------------------------------------------------- ~
   Step     Total Energy     Delta E     MAX Force     RMS Force      MAX Disp      RMS Disp    ~
  --------------------------------------------------------------------------------------------- ~
    Convergence Criteria             o    2.50e-03 *    1.70e-03 *    1.00e-02 *    6.70e-03 *  ~
  --------------------------------------------------------------------------------------------- ~
      1    -233.57885148   -2.34e+02 o    1.51e-02      3.76e-03      6.81e-02      1.68e-02    ~
  ---------------------------------------------------------------------------------------------

	Writing optimization data to binary file.
	Structure for next step:
	Cartesian Geometry (in Angstrom)
	    O    -2.3434148410   0.4008184910  -0.4490574390
	    C     0.0742724968   0.2146736513  -0.2269380427
	    C     1.2526841094  -0.4402995028   0.4943298391
	    C    -1.2797932201  -0.2545670565   0.2872587336
	    C     2.6036424498   0.0466000818  -0.0325701785
	    H     0.1223743547   1.3018117900  -0.1199147643
	    H     0.1259414502  -0.0038927228  -1.2976830839
	    H     1.1891230881  -1.5285731341   0.3839721711
	    H     1.1837208093  -0.2306759209   1.5672091241
	    H    -1.3424204128  -1.3456548909   0.2020058226
	    H    -1.3804490901  -0.0013023613   1.3459690430
	    H     2.7099270532  -0.1757651898  -1.0968147612
	    H     3.4270293912  -0.4359135798   0.4976368288
	    H     2.7049346382   1.1265141817   0.0963456205
	    H    -2.9148694139  -0.2262246962  -0.9102649300
			--------------------------
			 OPTKING Finished Execution 
			--------------------------

    Structure for next step:
    Molecular point group: c1
    Full point group: C1

    Geometry (in Angstrom), charge = 0, multiplicity = 1:

    O           -2.346085788483     0.405187475812    -0.445763678719
    C            0.071601558765     0.219042635395    -0.223644281523
    C            1.250013176033    -0.435930521293     0.497623603042
    C           -1.282464163416    -0.250198074310     0.290552496754
    C            2.600971521759     0.050969065254    -0.029276416565
    H            0.119703416883     1.306180778366    -0.116621002712
    H            0.123270512351     0.000476260440    -1.294389326981
    H            1.186452154431    -1.524204156823     0.387265934665
    H            1.181049875645    -0.226306938580     1.570502892262
    H           -1.345091356419    -1.341285913001     0.205299585452
    H           -1.383120033869     0.003066621934     1.349262810311
    H            2.707256125525    -0.171396207233    -1.093521003461
    H            3.424358466357    -0.431544598270     0.500930592796
    H            2.702263710542     1.130883169402     0.099639382895
    H           -2.917540363682    -0.221855713844    -0.906971171498

gradient() will perform analytic gradient computation.

*** tstart() called on daniele-Precision-5750
*** at Thu May 27 11:04:00 2021

   => Loading Basis Set <=

    Name: 6-311G
    Role: ORBITAL
    Keyword: BASIS
    atoms 1    entry O          line   126 file /home/daniele/anaconda3/envs/poltype/share/psi4/basis/6-311g.gbs 
    atoms 2-5  entry C          line    92 file /home/daniele/anaconda3/envs/poltype/share/psi4/basis/6-311g.gbs 
    atoms 6-15 entry H          line    21 file /home/daniele/anaconda3/envs/poltype/share/psi4/basis/6-311g.gbs 


         ---------------------------------------------------------
                                   SCF
               by Justin Turney, Rob Parrish, Andy Simmonett
                          and Daniel G. A. Smith
                              RKS Reference
                        8 Threads,    667 MiB Core
         ---------------------------------------------------------

  ==> Geometry <==

    Molecular point group: c1
    Full point group: C1

    Geometry (in Angstrom), charge = 0, multiplicity = 1:

       Center              X                  Y                   Z               Mass       
    ------------   -----------------  -----------------  -----------------  -----------------
         O           -2.346085788483     0.405187475812    -0.445763678719    15.994914619570
         C            0.071601558765     0.219042635395    -0.223644281523    12.000000000000
         C            1.250013176033    -0.435930521293     0.497623603042    12.000000000000
         C           -1.282464163416    -0.250198074310     0.290552496754    12.000000000000
         C            2.600971521759     0.050969065254    -0.029276416565    12.000000000000
         H            0.119703416883     1.306180778366    -0.116621002712     1.007825032230
         H            0.123270512351     0.000476260440    -1.294389326981     1.007825032230
         H            1.186452154431    -1.524204156823     0.387265934665     1.007825032230
         H            1.181049875645    -0.226306938580     1.570502892262     1.007825032230
         H           -1.345091356419    -1.341285913001     0.205299585452     1.007825032230
         H           -1.383120033869     0.003066621934     1.349262810311     1.007825032230
         H            2.707256125525    -0.171396207233    -1.093521003461     1.007825032230
         H            3.424358466357    -0.431544598270     0.500930592796     1.007825032230
         H            2.702263710542     1.130883169402     0.099639382895     1.007825032230
         H           -2.917540363682    -0.221855713844    -0.906971171498     1.007825032230

  Running in c1 symmetry.

  Rotational constants: A =      0.61698  B =      0.06507  C =      0.06181 [cm^-1]
  Rotational constants: A =  18496.55344  B =   1950.85483  C =   1853.11869 [MHz]
  Nuclear repulsion =  184.124198401993283

  Charge       = 0
  Multiplicity = 1
  Electrons    = 42
  Nalpha       = 21
  Nbeta        = 21

  ==> Algorithm <==

  SCF Algorithm Type is DF.
  DIIS enabled.
  MOM disabled.
  Fractional occupation disabled.
  Guess Type is READ.
  Energy threshold   = 1.00e-08
  Density threshold  = 1.00e-08
  Integral threshold = 0.00e+00

  ==> Primary Basis <==

  Basis Set: 6-311G
    Blend: 6-311G
    Number of shells: 65
    Number of basis function: 95
    Number of Cartesian functions: 95
    Spherical Harmonics?: true
    Max angular momentum: 1

  ==> DFT Potential <==

   => Composite Functional: WB97X-D <= 

    wB97X-D Hyb-GGA Exchange-Correlation Functional

    J.-D. Chai and M. Head-Gordon, Phys. Chem. Chem. Phys. 10, 6615 (2008)

    Deriv               =              1
    GGA                 =           TRUE
    Meta                =          FALSE

    Exchange Hybrid     =           TRUE
    MP2 Hybrid          =          FALSE

   => Exchange-Correlation Functionals <=

    1.0000   wB97D range-separated functional

   => Exact (HF) Exchange <=

    0.7780            HF,LR [omega = 0.2000]
    0.2220               HF 

   => Molecular Quadrature <=

    Radial Scheme          =       TREUTLER
    Pruning Scheme         =           FLAT
    Nuclear Scheme         =       TREUTLER

    BS radius alpha        =              1
    Pruning alpha          =              1
    Radial Points          =             75
    Spherical Points       =            302
    Total Points           =         336079
    Total Blocks           =           2584
    Max Points             =            255
    Max Functions          =             89

   => WB97X-D: Empirical Dispersion <=

    Chai and Head-Gordon Dispersion Correction
    Chai, J.-D.; Head-Gordon, M. (2010), J. Chem. Phys., 132: 6615-6620

        s6 =       1.000000

   => Loading Basis Set <=

    Name: (6-311G AUX)
    Role: JKFIT
    Keyword: DF_BASIS_SCF
    atoms 1    entry O          line   229 file /home/daniele/anaconda3/envs/poltype/share/psi4/basis/cc-pvtz-jkfit.gbs 
    atoms 2-5  entry C          line   125 file /home/daniele/anaconda3/envs/poltype/share/psi4/basis/cc-pvtz-jkfit.gbs 
    atoms 6-15 entry H          line    51 file /home/daniele/anaconda3/envs/poltype/share/psi4/basis/cc-pvtz-jkfit.gbs 

   => Loading Basis Set <=

    Name: 6-311G
    Role: ORBITAL
    Keyword: BASIS
    atoms 1    entry O          line   126 file /home/daniele/anaconda3/envs/poltype/share/psi4/basis/6-311g.gbs 
    atoms 2-5  entry C          line    92 file /home/daniele/anaconda3/envs/poltype/share/psi4/basis/6-311g.gbs 
    atoms 6-15 entry H          line    21 file /home/daniele/anaconda3/envs/poltype/share/psi4/basis/6-311g.gbs 

  Reading orbitals from file 180, no projection.

  ==> Pre-Iterations <==

   -------------------------------------------------------
    Irrep   Nso     Nmo     Nalpha   Nbeta   Ndocc  Nsocc
   -------------------------------------------------------
     A         95      95       0       0       0       0
   -------------------------------------------------------
    Total      95      95      21      21      21       0
   -------------------------------------------------------

  ==> Integral Setup <==

  ==> DiskDFJK: Density-Fitted J/K Matrices <==

    J tasked:                  Yes
    K tasked:                  Yes
    wK tasked:                 Yes
    Omega:               2.000E-01
    OpenMP threads:              8
    Integrals threads:           8
    Memory [MiB]:               34
    Algorithm:                Disk
    Integral Cache:           NONE
    Schwarz Cutoff:          1E-12
    Fitting Condition:       1E-10

   => Auxiliary Basis Set <=

  Basis Set: (6-311G AUX)
    Blend: CC-PVTZ-JKFIT
    Number of shells: 225
    Number of basis function: 695
    Number of Cartesian functions: 830
    Spherical Harmonics?: true
    Max angular momentum: 4

  Cached 100.0% of DFT collocation blocks in 0.663 [GiB].

  Minimum eigenvalue in the overlap matrix is 2.3323283688E-03.
  Using Symmetric Orthogonalization.

  SCF Guess: Orbitals guess was supplied from a previous computation.

  ==> Iterations <==

                           Total Energy        Delta E     RMS |[F,P]|

   @DF-RKS iter   0:  -233.59261689941934   -2.33593e+02   9.20229e-04 
   @DF-RKS iter   1:  -233.58042139674239    1.21955e-02   1.31031e-04 DIIS
   @DF-RKS iter   2:  -233.58049554568152   -7.41489e-05   1.01016e-04 DIIS
   @DF-RKS iter   3:  -233.58052665460016   -3.11089e-05   2.74828e-05 DIIS
   @DF-RKS iter   4:  -233.58052974656096   -3.09196e-06   6.70405e-06 DIIS
   @DF-RKS iter   5:  -233.58053001276028   -2.66199e-07   2.28926e-06 DIIS
   @DF-RKS iter   6:  -233.58053004251849   -2.97582e-08   2.08889e-07 DIIS
   @DF-RKS iter   7:  -233.58053004307882   -5.60334e-10   8.20555e-08 DIIS
   @DF-RKS iter   8:  -233.58053004312120   -4.23768e-11   2.80180e-08 DIIS
   @DF-RKS iter   9:  -233.58053004312572   -4.51905e-12   4.56230e-09 DIIS
  Energy and wave function converged.


  ==> Post-Iterations <==

    Orbital Energies [Eh]
    ---------------------

    Doubly Occupied:                                                      

       1A    -19.233381     2A    -10.330363     3A    -10.281724  
       4A    -10.274015     5A    -10.270275     6A     -1.116664  
       7A     -0.900420     8A     -0.823634     9A     -0.728849  
      10A     -0.679568    11A     -0.601305    12A     -0.566873  
      13A     -0.526559    14A     -0.518107    15A     -0.481281  
      16A     -0.454428    17A     -0.436216    18A     -0.421184  
      19A     -0.411274    20A     -0.398654    21A     -0.347853  

    Virtual:                                                              

      22A      0.114883    23A      0.125377    24A      0.148584  
      25A      0.155537    26A      0.169437    27A      0.204777  
      28A      0.209017    29A      0.218679    30A      0.223425  
      31A      0.240372    32A      0.254534    33A      0.303417  
      34A      0.312840    35A      0.326245    36A      0.383676  
      37A      0.389156    38A      0.416160    39A      0.447351  
      40A      0.454475    41A      0.470309    42A      0.512552  
      43A      0.527740    44A      0.607036    45A      0.618339  
      46A      0.651289    47A      0.652806    48A      0.674614  
      49A      0.675268    50A      0.684990    51A      0.692001  
      52A      0.700794    53A      0.707827    54A      0.712232  
      55A      0.721577    56A      0.728937    57A      0.749530  
      58A      0.850924    59A      0.970931    60A      1.014572  
      61A      1.067894    62A      1.084511    63A      1.103046  
      64A      1.138624    65A      1.576460    66A      2.272922  
      67A      2.344378    68A      2.348463    69A      2.352248  
      70A      2.361202    71A      2.363130    72A      2.386423  
      73A      2.390678    74A      2.411076    75A      2.434592  
      76A      2.858133    77A      2.905346    78A      2.918956  
      79A      2.933630    80A      2.955176    81A      2.960098  
      82A      2.988678    83A      3.069419    84A      3.089045  
      85A      3.168413    86A      3.179518    87A      3.315442  
      88A      4.962314    89A      5.008697    90A      5.172616  
      91A     23.428895    92A     23.572580    93A     23.646649  
      94A     23.728169    95A     49.962381  

    Final Occupation by Irrep:
              A 
    DOCC [    21 ]

  @DF-RKS Final Energy:  -233.58053004312572

   => Energetics <=

    Nuclear Repulsion Energy =            184.1241984019932829
    One-Electron Energy =                -680.0882686391831840
    Two-Electron Energy =                 285.6305337761298802
    DFT Exchange-Correlation Energy =     -23.2400296866025009
    Empirical Dispersion Energy =          -0.0069638954631956
    VV10 Nonlocal Energy =                  0.0000000000000000
    Total Energy =                       -233.5805300431257194

Computation Completed


Properties will be evaluated at   0.000000,   0.000000,   0.000000 [a0]

Properties computed using the SCF density matrix

  Nuclear Dipole Moment: [e a0]
     X:     5.4247      Y:    -1.3817      Z:     0.6554

  Electronic Dipole Moment: [e a0]
     X:    -5.2992      Y:     0.5958      Z:    -0.6642

  Dipole Moment: [e a0]
     X:     0.1255      Y:    -0.7860      Z:    -0.0088     Total:     0.7960

  Dipole Moment: [D]
     X:     0.3190      Y:    -1.9977      Z:    -0.0224     Total:     2.0231


*** tstop() called on daniele-Precision-5750 at Thu May 27 11:04:03 2021
Module time:
	user time   =      24.62 seconds =       0.41 minutes
	system time =       0.35 seconds =       0.01 minutes
	total time  =          3 seconds =       0.05 minutes
Total time:
	user time   =      68.93 seconds =       1.15 minutes
	system time =       1.37 seconds =       0.02 minutes
	total time  =          9 seconds =       0.15 minutes

*** tstart() called on daniele-Precision-5750
*** at Thu May 27 11:04:03 2021


         ------------------------------------------------------------
                                   SCF GRAD                          
                          Rob Parrish, Justin Turney,                
                       Andy Simmonett, and Alex Sokolov              
         ------------------------------------------------------------

  ==> Geometry <==

    Molecular point group: c1
    Full point group: C1

    Geometry (in Angstrom), charge = 0, multiplicity = 1:

       Center              X                  Y                   Z               Mass       
    ------------   -----------------  -----------------  -----------------  -----------------
         O           -2.346085788483     0.405187475812    -0.445763678719    15.994914619570
         C            0.071601558765     0.219042635395    -0.223644281523    12.000000000000
         C            1.250013176033    -0.435930521293     0.497623603042    12.000000000000
         C           -1.282464163416    -0.250198074310     0.290552496754    12.000000000000
         C            2.600971521759     0.050969065254    -0.029276416565    12.000000000000
         H            0.119703416883     1.306180778366    -0.116621002712     1.007825032230
         H            0.123270512351     0.000476260440    -1.294389326981     1.007825032230
         H            1.186452154431    -1.524204156823     0.387265934665     1.007825032230
         H            1.181049875645    -0.226306938580     1.570502892262     1.007825032230
         H           -1.345091356419    -1.341285913001     0.205299585452     1.007825032230
         H           -1.383120033869     0.003066621934     1.349262810311     1.007825032230
         H            2.707256125525    -0.171396207233    -1.093521003461     1.007825032230
         H            3.424358466357    -0.431544598270     0.500930592796     1.007825032230
         H            2.702263710542     1.130883169402     0.099639382895     1.007825032230
         H           -2.917540363682    -0.221855713844    -0.906971171498     1.007825032230

  Nuclear repulsion =  184.124198401993283

  ==> Basis Set <==

  Basis Set: 6-311G
    Blend: 6-311G
    Number of shells: 65
    Number of basis function: 95
    Number of Cartesian functions: 95
    Spherical Harmonics?: true
    Max angular momentum: 1

  ==> DFJKGrad: Density-Fitted SCF Gradients <==

    Gradient:                    1
    J tasked:                  Yes
    K tasked:                  Yes
    wK tasked:                 Yes
    Omega:               2.000E-01
    OpenMP threads:              8
    Integrals threads:           8
    Memory [MiB]:              500
    Schwarz Cutoff:          0E+00
    Fitting Condition:       1E-10

   => Auxiliary Basis Set <=

  Basis Set: (6-311G AUX)
    Blend: CC-PVTZ-JKFIT
    Number of shells: 225
    Number of basis function: 695
    Number of Cartesian functions: 830
    Spherical Harmonics?: true
    Max angular momentum: 4

  ==> DFT Potential <==

   => Composite Functional: WB97X-D <= 

    wB97X-D Hyb-GGA Exchange-Correlation Functional

    J.-D. Chai and M. Head-Gordon, Phys. Chem. Chem. Phys. 10, 6615 (2008)

    Deriv               =              1
    GGA                 =           TRUE
    Meta                =          FALSE

    Exchange Hybrid     =           TRUE
    MP2 Hybrid          =          FALSE

   => Exchange-Correlation Functionals <=

    1.0000   wB97D range-separated functional

   => Exact (HF) Exchange <=

    0.7780            HF,LR [omega = 0.2000]
    0.2220               HF 

   => Molecular Quadrature <=

    Radial Scheme          =       TREUTLER
    Pruning Scheme         =           FLAT
    Nuclear Scheme         =       TREUTLER

    BS radius alpha        =              1
    Pruning alpha          =              1
    Radial Points          =             75
    Spherical Points       =            302
    Total Points           =         336079
    Total Blocks           =           2584
    Max Points             =            255
    Max Functions          =             89


  -Total Gradient:
     Atom            X                  Y                   Z
    ------   -----------------  -----------------  -----------------
       1        0.000459658816    -0.001067875905    -0.000784281837
       2        0.003317359106    -0.000509061565     0.001903621433
       3        0.000302745515    -0.000380526922    -0.000896497292
       4       -0.002586830115     0.002530556812    -0.000307793769
       5       -0.000619077937     0.000691161080    -0.000850266459
       6       -0.000666565641     0.000077939026     0.000492358562
       7       -0.000534431610    -0.000492872337     0.000249565160
       8       -0.000039657898    -0.000085850668    -0.000286353806
       9       -0.000062771981     0.000366479946    -0.000052767513
      10        0.001266503985    -0.000142095451     0.000736403864
      11        0.001570000895    -0.000814209710     0.000538603569
      12       -0.000076709910    -0.000093884699     0.000046569645
      13       -0.000366388494    -0.000458814022     0.000443606359
      14       -0.000056248611    -0.000029104347     0.000171071933
      15       -0.001984085438     0.000364304147    -0.001410670209


*** tstop() called on daniele-Precision-5750 at Thu May 27 11:04:05 2021
Module time:
	user time   =      13.73 seconds =       0.23 minutes
	system time =       0.13 seconds =       0.00 minutes
	total time  =          2 seconds =       0.03 minutes
Total time:
	user time   =      82.67 seconds =       1.38 minutes
	system time =       1.50 seconds =       0.03 minutes
	total time  =         11 seconds =       0.18 minutes

			-----------------------------------------
			 OPTKING 2.0: for geometry optimizations 
			  - R.A. King,  Bethel University        
			-----------------------------------------
	At level 1: Red. Int., RFO, no backsteps, dynamic trust

	Previous internal coordinate definitions found.
	---Fragment 1 Geometry and Gradient---
	 O          -4.4334596071        0.7656933588       -0.8423712695
	 C           0.1353073362        0.4139305907       -0.4226264416
	 C           2.3621825559       -0.8237892950        0.9403723233
	 C          -2.4235060346       -0.4728058376        0.5490646439
	 C           4.9151238362        0.0963175742       -0.0553244092
	 H           0.2262066742        2.4683239414       -0.2203817556
	 H           0.2329475077        0.0009000018       -2.4460413277
	 H           2.2420696328       -2.8803284157        0.7318265542
	 H           2.2318608055       -0.4276581342        2.9678203456
	 H          -2.5418542774       -2.5346630315        0.3879599902
	 H          -2.6137180626        0.0057950756        2.5497371828
	 H           5.1159726287       -0.3238918906       -2.0664552090
	 H           6.4710996568       -0.8155011017        0.9466216282
	 H           5.1065383317        2.1370594701        0.1882911450
	 H          -5.5133522473       -0.4192465385       -1.7139271178
	             0.0004596588       -0.0010678759       -0.0007842818
	             0.0033173591       -0.0005090616        0.0019036214
	             0.0003027455       -0.0003805269       -0.0008964973
	            -0.0025868301        0.0025305568       -0.0003077938
	            -0.0006190779        0.0006911611       -0.0008502665
	            -0.0006665656        0.0000779390        0.0004923586
	            -0.0005344316       -0.0004928723        0.0002495652
	            -0.0000396579       -0.0000858507       -0.0002863538
	            -0.0000627720        0.0003664799       -0.0000527675
	             0.0012665040       -0.0001420955        0.0007364039
	             0.0015700009       -0.0008142097        0.0005386036
	            -0.0000767099       -0.0000938847        0.0000465696
	            -0.0003663885       -0.0004588140        0.0004436064
	            -0.0000562486       -0.0000291043        0.0001710719
	            -0.0019840854        0.0003643041       -0.0014106702

	---Fragment 1 Intrafragment Coordinates---
	 - Coordinate -           - BOHR/RAD -       - ANG/DEG -
	 R(1,4)           =         2.740417	       1.450166
	 R(1,15)          =         1.824790	       0.965638
	 R(2,3)           =         2.889410	       1.529010
	 R(2,4)           =         2.877153	       1.522524
	 R(2,6)           =         2.066325	       1.093452
	 R(2,7)           =         2.067447	       1.094046
	 R(3,5)           =         2.890591	       1.529635
	 R(3,8)           =         2.070573	       1.095700
	 R(3,9)           =         2.069891	       1.095339
	 R(4,10)          =         2.071525	       1.096204
	 R(4,11)          =         2.065897	       1.093226
	 R(5,12)          =         2.064355	       1.092410
	 R(5,13)          =         2.063097	       1.091744
	 R(5,14)          =         2.064126	       1.092288
	 B(1,4,2)         =         1.919341	     109.970118
	 B(1,4,10)        =         1.948125	     111.619343
	 B(1,4,11)        =         1.895983	     108.631833
	 B(2,3,5)         =         1.962576	     112.447308
	 B(2,3,8)         =         1.910536	     109.465642
	 B(2,3,9)         =         1.908738	     109.362650
	 B(2,4,10)        =         1.908483	     109.348020
	 B(2,4,11)        =         1.915108	     109.727633
	 B(3,2,4)         =         1.975878	     113.209490
	 B(3,2,6)         =         1.923905	     110.231641
	 B(3,2,7)         =         1.917394	     109.858569
	 B(3,5,12)        =         1.935546	     110.898604
	 B(3,5,13)        =         1.937056	     110.985154
	 B(3,5,14)        =         1.934729	     110.851802
	 B(4,1,15)        =         1.963933	     112.525063
	 B(4,2,6)         =         1.888607	     108.209211
	 B(4,2,7)         =         1.887004	     108.117354
	 B(5,3,8)         =         1.909954	     109.432325
	 B(5,3,9)         =         1.909311	     109.395479
	 B(6,2,7)         =         1.867468	     106.998039
	 B(8,3,9)         =         1.859888	     106.563751
	 B(10,4,11)       =         1.876162	     107.496146
	 B(12,5,13)       =         1.885766	     108.046417
	 B(12,5,14)       =         1.883053	     107.890991
	 B(13,5,14)       =         1.885675	     108.041231
	*D(1,4,2,3)       =        -3.134321	    -179.583359
	 D(1,4,2,6)       =         1.011000	      57.926026
	 D(1,4,2,7)       =        -1.005880	     -57.632683
	*D(2,3,5,12)      =        -1.044693	     -59.856511
	 D(2,3,5,13)      =        -3.140958	    -179.963627
	 D(2,3,5,14)      =         1.046619	      59.966878
	*D(2,4,1,15)      =         2.094684	     120.016566
	 D(3,2,4,10)      =        -0.989436	     -56.690495
	 D(3,2,4,11)      =         1.064341	      60.982244
	*D(4,2,3,5)       =        -3.138399	    -179.816996
	 D(4,2,3,8)       =         1.017969	      58.325353
	 D(4,2,3,9)       =        -1.013667	     -58.078819
	 D(5,3,2,6)       =        -1.020287	     -58.458152
	 D(5,3,2,7)       =         1.033437	      59.211580
	 D(6,2,3,8)       =         3.136081	     179.684197
	 D(6,2,3,9)       =         1.104445	      63.280025
	 D(6,2,4,10)      =        -3.127300	    -179.181110
	 D(6,2,4,11)      =        -1.073524	     -61.508371
	 D(7,2,3,8)       =        -1.093380	     -62.646072
	 D(7,2,3,9)       =        -3.125016	    -179.050243
	 D(7,2,4,10)      =         1.139005	      65.260181
	 D(7,2,4,11)      =        -3.090404	    -177.067080
	 D(8,3,5,12)      =         1.082454	      62.020066
	 D(8,3,5,13)      =        -1.013810	     -58.087050
	 D(8,3,5,14)      =        -3.109418	    -178.156545
	 D(9,3,5,12)      =         3.114086	     178.423988
	 D(9,3,5,13)      =         1.017821	      58.316872
	 D(9,3,5,14)      =        -1.077787	     -61.752623
	 D(10,4,1,15)     =        -0.026701	      -1.529850
	 D(11,4,1,15)     =        -2.092346	    -119.882602

	Current energy   :      -233.5805300431

	Energy change for the previous step:
		Projected    :        -0.0021419345
		Actual       :        -0.0016785662
	Energy ratio indicates good step: Trust radius increased to 1.000e+00.


	Performing BFGS update.
	Previous computed or guess Hessian on step 1.
	Steps to be used in Hessian update: 1
	Taking RFO optimization step.
	Going to follow RFO solution 1.
	Using RFO vector 1.
	Norm of target step-size    0.04467
	Projected energy change by RFO approximation:        -0.0001872338

	Back-transformation to cartesian coordinates...
	Successfully converged to displaced geometry.

	Back-transformation to cartesian coordinates to adjust frozen coordinates...
	Successfully converged to displaced geometry.

	--- Internal Coordinate Step in ANG or DEG, aJ/ANG or AJ/DEG ---
	 ---------------------------------------------------------------------------
	   Coordinate                Previous        Force       Change         New 
	   ----------                --------       ------       ------       ------
	    1 R(1,4)          =      1.450166    -0.015609    -0.001311     1.448856
	    2 R(1,15)         =      0.965638    -0.013358    -0.002012     0.963625
	    3 R(2,3)          =      1.529010     0.011386     0.001394     1.530404
	    4 R(2,4)          =      1.522524    -0.003596    -0.001852     1.520672
	    5 R(2,6)          =      1.093452    -0.000776    -0.000357     1.093095
	    6 R(2,7)          =      1.094046     0.001373     0.000056     1.094101
	    7 R(3,5)          =      1.529635     0.007067     0.000849     1.530484
	    8 R(3,8)          =      1.095700    -0.000854    -0.000262     1.095438
	    9 R(3,9)          =      1.095339    -0.000241    -0.000173     1.095166
	   10 R(4,10)         =      1.096204    -0.000092    -0.000092     1.096112
	   11 R(4,11)         =      1.093226    -0.001567    -0.000445     1.092781
	   12 R(5,12)         =      1.092410     0.000280    -0.000097     1.092313
	   13 R(5,13)         =      1.091744    -0.001157    -0.000375     1.091369
	   14 R(5,14)         =      1.092288     0.000034    -0.000148     1.092140
	   15 B(1,4,2)        =    109.970118    -0.000017    -0.069323   109.900795
	   16 B(1,4,10)       =    111.619343    -0.000067    -0.539292   111.080051
	   17 B(1,4,11)       =    108.631833    -0.000083    -0.846479   107.785354
	   18 B(2,3,5)        =    112.447308     0.000030     0.081867   112.529175
	   19 B(2,3,8)        =    109.465642    -0.000001    -0.014805   109.450837
	   20 B(2,3,9)        =    109.362650    -0.000005     0.071964   109.434614
	   21 B(2,4,10)       =    109.348020     0.000074     0.492218   109.840238
	   22 B(2,4,11)       =    109.727633     0.000090     0.558559   110.286193
	   23 B(3,2,4)        =    113.209490    -0.000122    -0.411021   112.798469
	   24 B(3,2,6)        =    110.231641     0.000013    -0.083893   110.147749
	   25 B(3,2,7)        =    109.858569     0.000017     0.001314   109.859883
	   26 B(3,5,12)       =    110.898604    -0.000005    -0.069317   110.829287
	   27 B(3,5,13)       =    110.985154     0.000077     0.415929   111.401083
	   28 B(3,5,14)       =    110.851802    -0.000002    -0.066818   110.784984
	   29 B(4,1,15)       =    112.525063    -0.000256    -0.913362   111.611701
	   30 B(4,2,6)        =    108.209211     0.000071     0.368333   108.577544
	   31 B(4,2,7)        =    108.117354     0.000065     0.348654   108.466008
	   32 B(5,3,8)        =    109.432325    -0.000009    -0.020751   109.411573
	   33 B(5,3,9)        =    109.395479    -0.000009     0.043581   109.439060
	   34 B(6,2,7)        =    106.998039    -0.000040    -0.203927   106.794112
	   35 B(8,3,9)        =    106.563751    -0.000009    -0.176192   106.387558
	   36 B(10,4,11)      =    107.496146     0.000006     0.410773   107.906919
	   37 B(12,5,13)      =    108.046417    -0.000035    -0.059315   107.987102
	   38 B(12,5,14)      =    107.890991    -0.000007    -0.173467   107.717524
	   39 B(13,5,14)      =    108.041231    -0.000031    -0.064087   107.977144
	   40 *D(1,4,2,3)     =   -179.583359    -0.000000     0.000000  -179.583359
	   41 D(1,4,2,6)      =     57.926026     0.000003     0.116518    58.042544
	   42 D(1,4,2,7)      =    -57.632683    -0.000003    -0.020947   -57.653629
	   43 *D(2,3,5,12)    =    -59.856511    -0.000000     0.000000   -59.856511
	   44 D(2,3,5,13)     =   -179.963627    -0.000001    -0.155842  -180.119469
	   45 D(2,3,5,14)     =     59.966878    -0.000003    -0.306795    59.660083
	   46 *D(2,4,1,15)    =    120.016566     0.000000     0.000000   120.016566
	   47 D(3,2,4,10)     =    -56.690495    -0.000011    -0.394785   -57.085280
	   48 D(3,2,4,11)     =     60.982244     0.000013     0.739478    61.721722
	   49 *D(4,2,3,5)     =   -179.816996    -0.000000     0.000000  -179.816996
	   50 D(4,2,3,8)      =     58.325353    -0.000002    -0.018205    58.307147
	   51 D(4,2,3,9)      =    -58.078819     0.000001     0.161241   -57.917577
	   52 D(5,3,2,6)      =    -58.458152     0.000004     0.129783   -58.328368
	   53 D(5,3,2,7)      =     59.211580    -0.000003    -0.168913    59.042667
	   54 D(6,2,3,8)      =    179.684197     0.000002     0.111578   179.795775
	   55 D(6,2,3,9)      =     63.280025     0.000005     0.291025    63.571050
	   56 D(6,2,4,10)     =   -179.181110    -0.000008    -0.278267  -179.459378
	   57 D(6,2,4,11)     =    -61.508371     0.000016     0.855996   -60.652375
	   58 D(7,2,3,8)      =    -62.646072    -0.000005    -0.187118   -62.833190
	   59 D(7,2,3,9)      =   -179.050243    -0.000002    -0.007672  -179.057915
	   60 D(7,2,4,10)     =     65.260181    -0.000013    -0.415731    64.844449
	   61 D(7,2,4,11)     =   -177.067080     0.000010     0.718532  -176.348548
	   62 D(8,3,5,12)     =     62.020066     0.000003     0.021544    62.041610
	   63 D(8,3,5,13)     =    -58.087050     0.000002    -0.134298   -58.221348
	   64 D(8,3,5,14)     =   -178.156545    -0.000000    -0.285252  -178.441796
	   65 D(9,3,5,12)     =    178.423988    -0.000002    -0.177396   178.246592
	   66 D(9,3,5,13)     =     58.316872    -0.000003    -0.333238    57.983634
	   67 D(9,3,5,14)     =    -61.752623    -0.000005    -0.484192   -62.236814
	   68 D(10,4,1,15)    =     -1.529850    -0.000008    -0.215104    -1.744954
	   69 D(11,4,1,15)    =   -119.882602     0.000011     0.121890  -119.760712
	 ---------------------------------------------------------------------------
	Successfully symmetrized geometry.

  ==> Convergence Check <==

  Measures of convergence in internal coordinates in au.
  Criteria marked as inactive (o), active & met (*), and active & unmet ( ).
  ---------------------------------------------------------------------------------------------
   Step     Total Energy     Delta E     MAX Force     RMS Force      MAX Disp      RMS Disp   
  ---------------------------------------------------------------------------------------------
    Convergence Criteria             o    2.50e-03 *    1.70e-03 *    1.00e-02 *    6.70e-03 *
  ---------------------------------------------------------------------------------------------
      2    -233.58053004   -1.68e-03 o    3.36e-03      7.12e-04 *    1.59e-02      5.37e-03 *  ~
  ---------------------------------------------------------------------------------------------

	Writing optimization data to binary file.
	Structure for next step:
	Cartesian Geometry (in Angstrom)
	    O    -2.3432492010   0.4099299346  -0.4437326202
	    C     0.0713359846   0.2238595361  -0.2276011391
	    C     1.2461243156  -0.4371953082   0.4969774815
	    C    -1.2794309990  -0.2455784492   0.2896037633
	    C     2.6022868500   0.0429052502  -0.0252374911
	    H     0.1265599961   1.3103542054  -0.1211298570
	    H     0.1263426246   0.0079916679  -1.2987841967
	    H     1.1776361582  -1.5248604419   0.3861699023
	    H     1.1750082081  -0.2308603926   1.5701769509
	    H    -1.3532518721  -1.3356254241   0.2012335592
	    H    -1.3921921196   0.0143644738   1.3450108634
	    H     2.7099210597  -0.1801358681  -1.0891053941
	    H     3.4261215570  -0.4380007088   0.5049634097
	    H     2.7055660578   1.1229095118   0.1000388468
	    H    -2.9061398314  -0.2269740978  -0.8976936652
			--------------------------
			 OPTKING Finished Execution 
			--------------------------

    Structure for next step:
    Molecular point group: c1
    Full point group: C1

    Geometry (in Angstrom), charge = 0, multiplicity = 1:

    O           -2.343851928981     0.408954387535    -0.443919070451
    C            0.070733266080     0.222883988274    -0.227787588549
    C            1.245521601756    -0.438170858585     0.496791034937
    C           -1.280033722753    -0.246553998873     0.289417315886
    C            2.601684141418     0.041929701671    -0.025423939710
    H            0.125957277814     1.309378661847    -0.121316306041
    H            0.125739906299     0.007016119289    -1.298970650329
    H            1.177033444011    -1.525835996588     0.385983455309
    H            1.174405493959    -0.231835942183     1.569990508557
    H           -1.353854596230    -1.336600978026     0.201047111510
    H           -1.392794843800     0.013388925231     1.344824420213
    H            2.709318351569    -0.181111417433    -1.089291846919
    H            3.425518851646    -0.438976259227     0.504776963168
    H            2.704963349635     1.121933967549     0.099852398679
    H           -2.906742561603    -0.227949647341    -0.897880117292

gradient() will perform analytic gradient computation.

*** tstart() called on daniele-Precision-5750
*** at Thu May 27 11:04:05 2021

   => Loading Basis Set <=

    Name: 6-311G
    Role: ORBITAL
    Keyword: BASIS
    atoms 1    entry O          line   126 file /home/daniele/anaconda3/envs/poltype/share/psi4/basis/6-311g.gbs 
    atoms 2-5  entry C          line    92 file /home/daniele/anaconda3/envs/poltype/share/psi4/basis/6-311g.gbs 
    atoms 6-15 entry H          line    21 file /home/daniele/anaconda3/envs/poltype/share/psi4/basis/6-311g.gbs 


         ---------------------------------------------------------
                                   SCF
               by Justin Turney, Rob Parrish, Andy Simmonett
                          and Daniel G. A. Smith
                              RKS Reference
                        8 Threads,    667 MiB Core
         ---------------------------------------------------------

  ==> Geometry <==

    Molecular point group: c1
    Full point group: C1

    Geometry (in Angstrom), charge = 0, multiplicity = 1:

       Center              X                  Y                   Z               Mass       
    ------------   -----------------  -----------------  -----------------  -----------------
         O           -2.343851928981     0.408954387535    -0.443919070451    15.994914619570
         C            0.070733266080     0.222883988274    -0.227787588549    12.000000000000
         C            1.245521601756    -0.438170858585     0.496791034937    12.000000000000
         C           -1.280033722753    -0.246553998873     0.289417315886    12.000000000000
         C            2.601684141418     0.041929701671    -0.025423939710    12.000000000000
         H            0.125957277814     1.309378661847    -0.121316306041     1.007825032230
         H            0.125739906299     0.007016119289    -1.298970650329     1.007825032230
         H            1.177033444011    -1.525835996588     0.385983455309     1.007825032230
         H            1.174405493959    -0.231835942183     1.569990508557     1.007825032230
         H           -1.353854596230    -1.336600978026     0.201047111510     1.007825032230
         H           -1.392794843800     0.013388925231     1.344824420213     1.007825032230
         H            2.709318351569    -0.181111417433    -1.089291846919     1.007825032230
         H            3.425518851646    -0.438976259227     0.504776963168     1.007825032230
         H            2.704963349635     1.121933967549     0.099852398679     1.007825032230
         H           -2.906742561603    -0.227949647341    -0.897880117292     1.007825032230

  Running in c1 symmetry.

  Rotational constants: A =      0.61837  B =      0.06514  C =      0.06189 [cm^-1]
  Rotational constants: A =  18538.39347  B =   1952.95656  C =   1855.43712 [MHz]
  Nuclear repulsion =  184.212789648625233

  Charge       = 0
  Multiplicity = 1
  Electrons    = 42
  Nalpha       = 21
  Nbeta        = 21

  ==> Algorithm <==

  SCF Algorithm Type is DF.
  DIIS enabled.
  MOM disabled.
  Fractional occupation disabled.
  Guess Type is READ.
  Energy threshold   = 1.00e-08
  Density threshold  = 1.00e-08
  Integral threshold = 0.00e+00

  ==> Primary Basis <==

  Basis Set: 6-311G
    Blend: 6-311G
    Number of shells: 65
    Number of basis function: 95
    Number of Cartesian functions: 95
    Spherical Harmonics?: true
    Max angular momentum: 1

  ==> DFT Potential <==

   => Composite Functional: WB97X-D <= 

    wB97X-D Hyb-GGA Exchange-Correlation Functional

    J.-D. Chai and M. Head-Gordon, Phys. Chem. Chem. Phys. 10, 6615 (2008)

    Deriv               =              1
    GGA                 =           TRUE
    Meta                =          FALSE

    Exchange Hybrid     =           TRUE
    MP2 Hybrid          =          FALSE

   => Exchange-Correlation Functionals <=

    1.0000   wB97D range-separated functional

   => Exact (HF) Exchange <=

    0.7780            HF,LR [omega = 0.2000]
    0.2220               HF 

   => Molecular Quadrature <=

    Radial Scheme          =       TREUTLER
    Pruning Scheme         =           FLAT
    Nuclear Scheme         =       TREUTLER

    BS radius alpha        =              1
    Pruning alpha          =              1
    Radial Points          =             75
    Spherical Points       =            302
    Total Points           =         336071
    Total Blocks           =           2576
    Max Points             =            256
    Max Functions          =             89

   => WB97X-D: Empirical Dispersion <=

    Chai and Head-Gordon Dispersion Correction
    Chai, J.-D.; Head-Gordon, M. (2010), J. Chem. Phys., 132: 6615-6620

        s6 =       1.000000

   => Loading Basis Set <=

    Name: (6-311G AUX)
    Role: JKFIT
    Keyword: DF_BASIS_SCF
    atoms 1    entry O          line   229 file /home/daniele/anaconda3/envs/poltype/share/psi4/basis/cc-pvtz-jkfit.gbs 
    atoms 2-5  entry C          line   125 file /home/daniele/anaconda3/envs/poltype/share/psi4/basis/cc-pvtz-jkfit.gbs 
    atoms 6-15 entry H          line    51 file /home/daniele/anaconda3/envs/poltype/share/psi4/basis/cc-pvtz-jkfit.gbs 

   => Loading Basis Set <=

    Name: 6-311G
    Role: ORBITAL
    Keyword: BASIS
    atoms 1    entry O          line   126 file /home/daniele/anaconda3/envs/poltype/share/psi4/basis/6-311g.gbs 
    atoms 2-5  entry C          line    92 file /home/daniele/anaconda3/envs/poltype/share/psi4/basis/6-311g.gbs 
    atoms 6-15 entry H          line    21 file /home/daniele/anaconda3/envs/poltype/share/psi4/basis/6-311g.gbs 

  Reading orbitals from file 180, no projection.

  ==> Pre-Iterations <==

   -------------------------------------------------------
    Irrep   Nso     Nmo     Nalpha   Nbeta   Ndocc  Nsocc
   -------------------------------------------------------
     A         95      95       0       0       0       0
   -------------------------------------------------------
    Total      95      95      21      21      21       0
   -------------------------------------------------------

  ==> Integral Setup <==

  ==> DiskDFJK: Density-Fitted J/K Matrices <==

    J tasked:                  Yes
    K tasked:                  Yes
    wK tasked:                 Yes
    Omega:               2.000E-01
    OpenMP threads:              8
    Integrals threads:           8
    Memory [MiB]:               34
    Algorithm:                Disk
    Integral Cache:           NONE
    Schwarz Cutoff:          1E-12
    Fitting Condition:       1E-10

   => Auxiliary Basis Set <=

  Basis Set: (6-311G AUX)
    Blend: CC-PVTZ-JKFIT
    Number of shells: 225
    Number of basis function: 695
    Number of Cartesian functions: 830
    Spherical Harmonics?: true
    Max angular momentum: 4

  Cached 100.0% of DFT collocation blocks in 0.663 [GiB].

  Minimum eigenvalue in the overlap matrix is 2.3325881155E-03.
  Using Symmetric Orthogonalization.

  SCF Guess: Orbitals guess was supplied from a previous computation.

  ==> Iterations <==

                           Total Energy        Delta E     RMS |[F,P]|

   @DF-RKS iter   0:  -233.58221341048392   -2.33582e+02   1.35513e-04 
   @DF-RKS iter   1:  -233.58061931061846    1.59410e-03   2.55069e-05 DIIS
   @DF-RKS iter   2:  -233.58062136397660   -2.05336e-06   2.38009e-05 DIIS
   @DF-RKS iter   3:  -233.58062315147649   -1.78750e-06   3.66023e-06 DIIS
   @DF-RKS iter   4:  -233.58062322389281   -7.24163e-08   1.68383e-06 DIIS
   @DF-RKS iter   5:  -233.58062323645208   -1.25593e-08   2.36476e-07 DIIS
   @DF-RKS iter   6:  -233.58062323690385   -4.51763e-10   3.70926e-08 DIIS
   @DF-RKS iter   7:  -233.58062323692204   -1.81899e-11   1.83615e-08 DIIS
   @DF-RKS iter   8:  -233.58062323692405   -2.01794e-12   3.38275e-09 DIIS
  Energy and wave function converged.


  ==> Post-Iterations <==

    Orbital Energies [Eh]
    ---------------------

    Doubly Occupied:                                                      

       1A    -19.232890     2A    -10.330059     3A    -10.281746  
       4A    -10.274325     5A    -10.270239     6A     -1.118068  
       7A     -0.900281     8A     -0.823405     9A     -0.728826  
      10A     -0.680116    11A     -0.601381    12A     -0.566282  
      13A     -0.526945    14A     -0.518056    15A     -0.481927  
      16A     -0.454649    17A     -0.436264    18A     -0.421302  
      19A     -0.411412    20A     -0.399481    21A     -0.347687  

    Virtual:                                                              

      22A      0.114623    23A      0.125564    24A      0.148981  
      25A      0.155549    26A      0.169548    27A      0.204464  
      28A      0.208963    29A      0.218677    30A      0.223281  
      31A      0.240475    32A      0.255054    33A      0.303393  
      34A      0.312689    35A      0.326932    36A      0.383254  
      37A      0.389110    38A      0.415020    39A      0.447940  
      40A      0.455264    41A      0.471426    42A      0.511664  
      43A      0.528545    44A      0.608222    45A      0.618227  
      46A      0.651244    47A      0.653036    48A      0.674376  
      49A      0.675236    50A      0.685285    51A      0.692010  
      52A      0.701759    53A      0.707826    54A      0.714756  
      55A      0.721455    56A      0.729548    57A      0.749309  
      58A      0.850100    59A      0.971023    60A      1.015031  
      61A      1.068209    62A      1.084304    63A      1.102184  
      64A      1.137294    65A      1.581275    66A      2.273058  
      67A      2.344120    68A      2.348489    69A      2.352434  
      70A      2.361723    71A      2.362945    72A      2.386703  
      73A      2.391739    74A      2.411264    75A      2.434407  
      76A      2.857259    77A      2.906377    78A      2.918367  
      79A      2.933413    80A      2.954862    81A      2.962197  
      82A      2.989084    83A      3.070077    84A      3.087749  
      85A      3.168665    86A      3.179696    87A      3.316034  
      88A      4.962556    89A      5.009279    90A      5.171942  
      91A     23.429141    92A     23.572492    93A     23.647070  
      94A     23.727720    95A     49.964675  

    Final Occupation by Irrep:
              A 
    DOCC [    21 ]

  @DF-RKS Final Energy:  -233.58062323692405

[...]
    Fitting Condition:       1E-10

   => Auxiliary Basis Set <=

  Basis Set: (6-311G AUX)
    Blend: CC-PVTZ-JKFIT
    Number of shells: 225
    Number of basis function: 695
    Number of Cartesian functions: 830
    Spherical Harmonics?: true
    Max angular momentum: 4

  ==> DFT Potential <==

   => Composite Functional: WB97X-D <= 

    wB97X-D Hyb-GGA Exchange-Correlation Functional

    J.-D. Chai and M. Head-Gordon, Phys. Chem. Chem. Phys. 10, 6615 (2008)

    Deriv               =              1
    GGA                 =           TRUE
    Meta                =          FALSE

    Exchange Hybrid     =           TRUE
    MP2 Hybrid          =          FALSE

   => Exchange-Correlation Functionals <=

    1.0000   wB97D range-separated functional

   => Exact (HF) Exchange <=

    0.7780            HF,LR [omega = 0.2000]
    0.2220               HF 

   => Molecular Quadrature <=

    Radial Scheme          =       TREUTLER
    Pruning Scheme         =           FLAT
    Nuclear Scheme         =       TREUTLER

    BS radius alpha        =              1
    Pruning alpha          =              1
    Radial Points          =             75
    Spherical Points       =            302
    Total Points           =         336071
    Total Blocks           =           2576
    Max Points             =            256
    Max Functions          =             89


  -Total Gradient:
     Atom            X                  Y                   Z
    ------   -----------------  -----------------  -----------------
       1        0.000895139803    -0.001580560009     0.000148091258
       2        0.001114915495     0.000603710548     0.000591884801
       3       -0.000676732476    -0.000318778724    -0.000601941688
       4       -0.000718426469     0.000838951573    -0.000416004049
       5       -0.000006381228     0.000108366421    -0.000256039258
       6       -0.000100657345    -0.000076279242     0.000044499032
       7       -0.000077360957    -0.000003812270     0.000075445381
       8       -0.000007235382     0.000100900374    -0.000050659542
       9        0.000029422408    -0.000012266139    -0.000065124560
      10       -0.000144426150    -0.000105686695    -0.000018252656
      11       -0.000471208384     0.000168055178    -0.000086621681
      12       -0.000080222890     0.000071238525     0.000177722913
      13       -0.000062573955    -0.000047751252     0.000023719541
      14       -0.000078379749    -0.000214844905    -0.000009607722
      15        0.000281540957     0.000450902234     0.000409744821


*** tstop() called on daniele-Precision-5750 at Thu May 27 11:04:10 2021
Module time:
	user time   =      12.93 seconds =       0.22 minutes
	system time =       0.10 seconds =       0.00 minutes
	total time  =          2 seconds =       0.03 minutes
Total time:
	user time   =     119.23 seconds =       1.99 minutes
	system time =       1.96 seconds =       0.03 minutes
	total time  =         16 seconds =       0.27 minutes

			-----------------------------------------
			 OPTKING 2.0: for geometry optimizations 
			  - R.A. King,  Bethel University        
			-----------------------------------------
	At level 1: Red. Int., RFO, no backsteps, dynamic trust

	Previous internal coordinate definitions found.
	---Fragment 1 Geometry and Gradient---
	 O          -4.4292382244        0.7728117902       -0.8388854650
	 C           0.1336665009        0.4211896956       -0.4304561571
	 C           2.3536947107       -0.8280229189        0.9387989976
	 C          -2.4189131674       -0.4659195330        0.5469194630
	 C           4.9164704922        0.0792356527       -0.0480442831
	 H           0.2380247586        2.4743670654       -0.2292545930
	 H           0.2376139859        0.0132585439       -2.4546987741
	 H           2.2242708497       -2.8834121459        0.7294030195
	 H           2.2193047438       -0.4381064368        2.9668520807
	 H          -2.5584144006       -2.5258097875        0.3799239791
	 H          -2.6320008037        0.0253014018        2.5413498410
	 H           5.1198696711       -0.3422509771       -2.0584632614
	 H           6.4732924672       -0.8295449055        0.9538902148
	 H           5.1116399102        2.1201479295        0.1886936865
	 H          -5.4929473586       -0.4307624039       -1.6967475152
	             0.0008951398       -0.0015805600        0.0001480913
	             0.0011149155        0.0006037105        0.0005918848
	            -0.0006767325       -0.0003187787       -0.0006019417
	            -0.0007184265        0.0008389516       -0.0004160040
	            -0.0000063812        0.0001083664       -0.0002560393
	            -0.0001006573       -0.0000762792        0.0000444990
	            -0.0000773610       -0.0000038123        0.0000754454
	            -0.0000072354        0.0001009004       -0.0000506595
	             0.0000294224       -0.0000122661       -0.0000651246
	            -0.0001444262       -0.0001056867       -0.0000182527
	            -0.0004712084        0.0001680552       -0.0000866217
	            -0.0000802229        0.0000712385        0.0001777229
	            -0.0000625740       -0.0000477513        0.0000237195
	            -0.0000783797       -0.0002148449       -0.0000096077
	             0.0002815410        0.0004509022        0.0004097448

	---Fragment 1 Intrafragment Coordinates---
	 - Coordinate -           - BOHR/RAD -       - ANG/DEG -
	 R(1,4)           =         2.737940	       1.448856
	 R(1,15)          =         1.820987	       0.963625
	 R(2,3)           =         2.892044	       1.530404
	 R(2,4)           =         2.873654	       1.520672
	 R(2,6)           =         2.065650	       1.093095
	 R(2,7)           =         2.067552	       1.094101
	 R(3,5)           =         2.892196	       1.530484
	 R(3,8)           =         2.070078	       1.095438
	 R(3,9)           =         2.069564	       1.095166
	 R(4,10)          =         2.071351	       1.096112
	 R(4,11)          =         2.065056	       1.092781
	 R(5,12)          =         2.064172	       1.092313
	 R(5,13)          =         2.062389	       1.091369
	 R(5,14)          =         2.063846	       1.092140
	 B(1,4,2)         =         1.918131	     109.900795
	 B(1,4,10)        =         1.938713	     111.080051
	 B(1,4,11)        =         1.881209	     107.785354
	 B(2,3,5)         =         1.964005	     112.529175
	 B(2,3,8)         =         1.910277	     109.450837
	 B(2,3,9)         =         1.909994	     109.434614
	 B(2,4,10)        =         1.917074	     109.840238
	 B(2,4,11)        =         1.924857	     110.286193
	 B(3,2,4)         =         1.968705	     112.798469
	 B(3,2,6)         =         1.922441	     110.147749
	 B(3,2,7)         =         1.917417	     109.859883
	 B(3,5,12)        =         1.934336	     110.829287
	 B(3,5,13)        =         1.944316	     111.401083
	 B(3,5,14)        =         1.933563	     110.784984
	 B(4,1,15)        =         1.947992	     111.611701
	 B(4,2,6)         =         1.895036	     108.577544
	 B(4,2,7)         =         1.893089	     108.466008
	 B(5,3,8)         =         1.909592	     109.411573
	 B(5,3,9)         =         1.910072	     109.439060
	 B(6,2,7)         =         1.863909	     106.794112
	 B(8,3,9)         =         1.856813	     106.387558
	 B(10,4,11)       =         1.883331	     107.906919
	 B(12,5,13)       =         1.884730	     107.987102
	 B(12,5,14)       =         1.880025	     107.717524
	 B(13,5,14)       =         1.884557	     107.977144
	*D(1,4,2,3)       =        -3.134321	    -179.583359
	 D(1,4,2,6)       =         1.013033	      58.042544
	 D(1,4,2,7)       =        -1.006246	     -57.653629
	*D(2,3,5,12)      =        -1.044693	     -59.856511
	 D(2,3,5,13)      =         3.139508	     179.880531
	 D(2,3,5,14)      =         1.041265	      59.660083
	*D(2,4,1,15)      =         2.094684	     120.016566
	 D(3,2,4,10)      =        -0.996326	     -57.085280
	 D(3,2,4,11)      =         1.077247	      61.721722
	*D(4,2,3,5)       =        -3.138399	    -179.816996
	 D(4,2,3,8)       =         1.017652	      58.307147
	 D(4,2,3,9)       =        -1.010852	     -57.917577
	 D(5,3,2,6)       =        -1.018022	     -58.328368
	 D(5,3,2,7)       =         1.030489	      59.042667
	 D(6,2,3,8)       =         3.138028	     179.795775
	 D(6,2,3,9)       =         1.109524	      63.571050
	 D(6,2,4,10)      =        -3.132157	    -179.459378
	 D(6,2,4,11)      =        -1.058584	     -60.652375
	 D(7,2,3,8)       =        -1.096646	     -62.833190
	 D(7,2,3,9)       =        -3.125150	    -179.057915
	 D(7,2,4,10)      =         1.131749	      64.844449
	 D(7,2,4,11)      =        -3.077863	    -176.348548
	 D(8,3,5,12)      =         1.082830	      62.041610
	 D(8,3,5,13)      =        -1.016154	     -58.221348
	 D(8,3,5,14)      =        -3.114397	    -178.441796
	 D(9,3,5,12)      =         3.110990	     178.246592
	 D(9,3,5,13)      =         1.012005	      57.983634
	 D(9,3,5,14)      =        -1.086237	     -62.236814
	 D(10,4,1,15)     =        -0.030455	      -1.744954
	 D(11,4,1,15)     =        -2.090219	    -119.760712

	Current energy   :      -233.5806232369

	Energy change for the previous step:
		Projected    :        -0.0001872338
		Actual       :        -0.0000931938

	Performing BFGS update.
	Previous computed or guess Hessian on step 1.
	Steps to be used in Hessian update: 2 1
	Taking RFO optimization step.
	Going to follow RFO solution 1.
	Using RFO vector 1.
	Norm of target step-size    0.00920
	Projected energy change by RFO approximation:        -0.0000105355

	Back-transformation to cartesian coordinates...
	Successfully converged to displaced geometry.

	Back-transformation to cartesian coordinates to adjust frozen coordinates...
	Successfully converged to displaced geometry.

	--- Internal Coordinate Step in ANG or DEG, aJ/ANG or AJ/DEG ---
	 ---------------------------------------------------------------------------
	   Coordinate                Previous        Force       Change         New 
	   ----------                --------       ------       ------       ------
	    1 R(1,4)          =      1.448856     0.013907     0.001890     1.450746
	    2 R(1,15)         =      0.963625     0.005321     0.000461     0.964086
	    3 R(2,3)          =      1.530404     0.007422     0.001630     1.532034
	    4 R(2,4)          =      1.520672    -0.001763    -0.000483     1.520189
	    5 R(2,6)          =      1.093095     0.000660     0.000089     1.093184
	    6 R(2,7)          =      1.094101     0.000616     0.000107     1.094209
	    7 R(3,5)          =      1.530484     0.001386     0.000331     1.530816
	    8 R(3,8)          =      1.095438     0.000874     0.000132     1.095570
	    9 R(3,9)          =      1.095166     0.000506     0.000075     1.095241
	   10 R(4,10)         =      1.096112    -0.000981    -0.000173     1.095939
	   11 R(4,11)         =      1.092781    -0.000074    -0.000041     1.092740
	   12 R(5,12)         =      1.092313     0.001607     0.000264     1.092577
	   13 R(5,13)         =      1.091369     0.000129    -0.000002     1.091367
	   14 R(5,14)         =      1.092140     0.001733     0.000283     1.092423
	   15 B(1,4,2)        =    109.900795    -0.000000     0.011532   109.912327
	   16 B(1,4,10)       =    111.080051     0.000004    -0.027875   111.052176
	   17 B(1,4,11)       =    107.785354     0.000027     0.182688   107.968042
	   18 B(2,3,5)        =    112.529175     0.000019     0.074946   112.604121
	   19 B(2,3,8)        =    109.450837    -0.000005    -0.006084   109.444753
	   20 B(2,3,9)        =    109.434614    -0.000007    -0.024234   109.410380
	   21 B(2,4,10)       =    109.840238    -0.000008    -0.061360   109.778877
	   22 B(2,4,11)       =    110.286193    -0.000026    -0.099068   110.187125
	   23 B(3,2,4)        =    112.798469     0.000005    -0.001768   112.796701
	   24 B(3,2,6)        =    110.147749    -0.000009    -0.041639   110.106110
	   25 B(3,2,7)        =    109.859883    -0.000000    -0.020009   109.839873
	   26 B(3,5,12)       =    110.829287     0.000002     0.006762   110.836050
	   27 B(3,5,13)       =    111.401083     0.000005     0.044199   111.445282
	   28 B(3,5,14)       =    110.784984     0.000004     0.014790   110.799774
	   29 B(4,1,15)       =    111.611701    -0.000001    -0.059992   111.551709
	   30 B(4,2,6)        =    108.577544     0.000004     0.056759   108.634303
	   31 B(4,2,7)        =    108.466008     0.000001     0.046192   108.512200
	   32 B(5,3,8)        =    109.411573    -0.000006    -0.008031   109.403542
	   33 B(5,3,9)        =    109.439060    -0.000004    -0.001143   109.437917
	   34 B(6,2,7)        =    106.794112    -0.000001    -0.039868   106.754244
	   35 B(8,3,9)        =    106.387558     0.000002    -0.042158   106.345400
	   36 B(10,4,11)      =    107.906919     0.000003    -0.003793   107.903126
	   37 B(12,5,13)      =    107.987102    -0.000004    -0.024829   107.962272
	   38 B(12,5,14)      =    107.717524    -0.000003    -0.016777   107.700747
	   39 B(13,5,14)      =    107.977144    -0.000005    -0.027893   107.949252
	   40 *D(1,4,2,3)     =   -179.583359    -0.000000    -0.000000  -179.583359
	   41 D(1,4,2,6)      =     58.042544     0.000001     0.013799    58.056342
	   42 D(1,4,2,7)      =    -57.653629     0.000001     0.005979   -57.647650
	   43 *D(2,3,5,12)    =    -59.856511     0.000000    -0.000000   -59.856511
	   44 D(2,3,5,13)     =    179.880531    -0.000000    -0.002737   179.877794
	   45 D(2,3,5,14)     =     59.660083     0.000000    -0.006966    59.653117
	   46 *D(2,4,1,15)    =    120.016566    -0.000000    -0.000000   120.016566
	   47 D(3,2,4,10)     =    -57.085280     0.000000    -0.067669   -57.152949
	   48 D(3,2,4,11)     =     61.721722    -0.000004    -0.171010    61.550712
	   49 *D(4,2,3,5)     =   -179.816996    -0.000000    -0.000000  -179.816996
	   50 D(4,2,3,8)      =     58.307147    -0.000000    -0.035990    58.271157
	   51 D(4,2,3,9)      =    -57.917577     0.000001     0.031886   -57.885691
	   52 D(5,3,2,6)      =    -58.328368     0.000000     0.041796   -58.286573
	   53 D(5,3,2,7)      =     59.042667    -0.000001    -0.043650    58.999017
	   54 D(6,2,3,8)      =    179.795775     0.000000     0.005805   179.801580
	   55 D(6,2,3,9)      =     63.571050     0.000001     0.073682    63.644732
	   56 D(6,2,4,10)     =   -179.459378     0.000001    -0.053871  -179.513248
	   57 D(6,2,4,11)     =    -60.652375    -0.000003    -0.157212   -60.809587
	   58 D(7,2,3,8)      =    -62.833190    -0.000001    -0.079640   -62.912830
	   59 D(7,2,3,9)      =   -179.057915    -0.000000    -0.011763  -179.069678
	   60 D(7,2,4,10)     =     64.844449     0.000001    -0.061690    64.782759
	   61 D(7,2,4,11)     =   -176.348548    -0.000003    -0.165031  -176.513579
	   62 D(8,3,5,12)     =     62.041610     0.000001     0.037052    62.078662
	   63 D(8,3,5,13)     =    -58.221348     0.000000     0.034315   -58.187033
	   64 D(8,3,5,14)     =   -178.441796     0.000001     0.030086  -178.411710
	   65 D(9,3,5,12)     =    178.246592    -0.000000    -0.018821   178.227771
	   66 D(9,3,5,13)     =     57.983634    -0.000000    -0.021558    57.962076
	   67 D(9,3,5,14)     =    -62.236814    -0.000000    -0.025787   -62.262601
	   68 D(10,4,1,15)    =     -1.744954     0.000002     0.088047    -1.656907
	   69 D(11,4,1,15)    =   -119.760712    -0.000003    -0.002590  -119.763301
	 ---------------------------------------------------------------------------
	Successfully symmetrized geometry.

  ==> Convergence Check <==

  Measures of convergence in internal coordinates in au.
  Criteria marked as inactive (o), active & met (*), and active & unmet ( ).
  ---------------------------------------------------------------------------------------------
   Step     Total Energy     Delta E     MAX Force     RMS Force      MAX Disp      RMS Disp   
  ---------------------------------------------------------------------------------------------
    Convergence Criteria             o    2.50e-03 *    1.70e-03 *    1.00e-02 *    6.70e-03 *
  ---------------------------------------------------------------------------------------------
      3    -233.58062324   -9.32e-05 o    1.69e-03 *    2.65e-04 *    3.57e-03 *    1.11e-03 *  ~
  ---------------------------------------------------------------------------------------------


  **** Optimization is complete! (in 3 steps) ****

  ==> Optimization Summary <==

  Measures of convergence in internal coordinates in au.
  --------------------------------------------------------------------------------------------------------------- ~
   Step         Total Energy             Delta E       MAX Force       RMS Force        MAX Disp        RMS Disp  ~
  --------------------------------------------------------------------------------------------------------------- ~
      1    -233.578851476902   -233.578851476902      0.01505545      0.00376118      0.06807432      0.01680162  ~
      2    -233.580530043126     -0.001678566224      0.00335870      0.00071211      0.01594117      0.00537005  ~
      3    -233.580623236924     -0.000093193798      0.00168798      0.00026497      0.00357188      0.00110803  ~
  --------------------------------------------------------------------------------------------------------------- ~

	Writing optimization data to binary file.
	Final energy is   -233.5806232369241
	Final (previous) structure:
	Cartesian Geometry (in Angstrom)
	    O    -2.3438519198   0.4089543859  -0.4439190687
	    C     0.0707332658   0.2228839874  -0.2277875877
	    C     1.2455215969  -0.4381708569   0.4967910330
	    C    -1.2800337177  -0.2465539979   0.2894173147
	    C     2.6016841312   0.0419297015  -0.0254239396
	    H     0.1259572773   1.3093786567  -0.1213163056
	    H     0.1257399058   0.0070161193  -1.2989706452
	    H     1.1770334394  -1.5258359906   0.3859834538
	    H     1.1744054893  -0.2318359413   1.5699905024
	    H    -1.3538545909  -1.3366009728   0.2010471107
	    H    -1.3927948383   0.0133889252   1.3448244149
	    H     2.7093183409  -0.1811114167  -1.0892918426
	    H     3.4255188382  -0.4389762575   0.5047769612
	    H     2.7049633390   1.1219339631   0.0998523983
	    H    -2.9067425502  -0.2279496464  -0.8978801138
	Saving final (previous) structure.
			--------------------------
			 OPTKING Finished Execution 
			--------------------------

    Final optimized geometry and variables:
    Molecular point group: c1
    Full point group: C1

    Geometry (in Angstrom), charge = 0, multiplicity = 1:

    O           -2.343851928981     0.408954387535    -0.443919070451
    C            0.070733266080     0.222883988274    -0.227787588549
    C            1.245521601756    -0.438170858585     0.496791034937
    C           -1.280033722753    -0.246553998873     0.289417315886
    C            2.601684141418     0.041929701671    -0.025423939710
    H            0.125957277814     1.309378661847    -0.121316306041
    H            0.125739906299     0.007016119289    -1.298970650329
    H            1.177033444011    -1.525835996588     0.385983455309
    H            1.174405493959    -0.231835942183     1.569990508557
    H           -1.353854596230    -1.336600978026     0.201047111510
    H           -1.392794843800     0.013388925231     1.344824420213
    H            2.709318351569    -0.181111417433    -1.089291846919
    H            3.425518851646    -0.438976259227     0.504776963168
    H            2.704963349635     1.121933967549     0.099852398679
    H           -2.906742561603    -0.227949647341    -0.897880117292

	Removing binary optimization data file.
	Cleaning optimization helper files.

    Psi4 stopped on: Thursday, 27 May 2021 11:04AM
    Psi4 wall time for execution: 0:00:15.95

*** Psi4 exiting successfully. Buy a developer a beer!
