
    -----------------------------------------------------------------------
          Psi4: An Open-Source Ab Initio Electronic Structure Package
                               Psi4 1.3.2 release

                         Git: Rev {HEAD} ecbda83 


    R. M. Parrish, L. A. Burns, D. G. A. Smith, A. C. Simmonett,
    A. E. DePrince III, E. G. Hohenstein, U. Bozkaya, A. Yu. Sokolov,
    R. Di Remigio, R. M. Richard, J. F. Gonthier, A. M. James,
    H. R. McAlexander, A. Kumar, M. Saitow, X. Wang, B. P. Pritchard,
    P. Verma, H. F. Schaefer III, K. Patkowski, R. A. King, E. F. Valeev,
    F. A. Evangelista, J. M. Turney, T. D. Crawford, and C. D. Sherrill,
    J. Chem. Theory Comput. 13(7) pp 3185--3197 (2017).
    (doi: 10.1021/acs.jctc.7b00174)


                         Additional Contributions by
    P. Kraus, H. Kruse, M. H. Lechner, M. C. Schieber, R. A. Shaw,
    A. Alenaizan, R. Galvelis, Z. L. Glick, S. Lehtola, and J. P. Misiewicz

    -----------------------------------------------------------------------


    Psi4 started on: Thursday, 27 May 2021 11:01AM

    Process ID: 225711
    Host:       daniele-Precision-5750
    PSIDATADIR: /home/daniele/anaconda3/envs/poltype/share/psi4
    Memory:     500.0 MiB
    Threads:    1
    
  ==> Input File <==

--------------------------------------------------------------------------
molecule { 
0 1
 O   -2.473829    0.052120   -0.416038
 C   -0.043664    0.117632   -0.175981
 C    1.221764   -0.439288    0.526391
 C   -1.371345   -0.524340    0.303662
 C    2.535615    0.209201    0.044806
 H   -0.103191    1.201828   -0.012945
 H    0.037323   -0.037137   -1.259848
 H    1.281158   -1.524181    0.366434
 H    1.131696   -0.296812    1.611454
 H   -1.342733   -1.610661    0.155701
 H   -1.493097   -0.360201    1.381590
 H    2.684565    0.053670   -1.029227
 H    3.395580   -0.224038    0.566723
 H    2.539019    1.287466    0.237379
 H   -2.273782    0.973653   -0.664680
}
set optking { 
  frozen_dihedral = ("
    2 4 1 15
    4 2 3 5
    3 2 4 1
    12 5 3 2
  ")
}
set {
  geom_maxiter 400
  g_convergence GAU_LOOSE
  dynamic_level 1
}
memory 700MB
set_num_threads(8)
psi4_io.set_default_path("/home/daniele/PSI4_sctatch/Psi4-1butanol_3D")
for _ in range(1):
  try:
    set opt_coordinates both
    optimize('wb97x-d/6-311G')
    break
  except OptimizationConvergenceError:
    break
  else:
    try:
      set opt_coordinates cartesian
      optimize('wb97x-d/6-311G')
      break
    except OptimizationConvergenceError:
      pass
clean()
--------------------------------------------------------------------------

  Memory set to 667.572 MiB by Python driver.
  Threads set to 8 by Python driver.
gradient() will perform analytic gradient computation.

*** tstart() called on daniele-Precision-5750
*** at Thu May 27 11:01:33 2021

   => Loading Basis Set <=

    Name: 6-311G
    Role: ORBITAL
    Keyword: BASIS
    atoms 1    entry O          line   126 file /home/daniele/anaconda3/envs/poltype/share/psi4/basis/6-311g.gbs 
    atoms 2-5  entry C          line    92 file /home/daniele/anaconda3/envs/poltype/share/psi4/basis/6-311g.gbs 
    atoms 6-15 entry H          line    21 file /home/daniele/anaconda3/envs/poltype/share/psi4/basis/6-311g.gbs 


         ---------------------------------------------------------
                                   SCF
               by Justin Turney, Rob Parrish, Andy Simmonett
                          and Daniel G. A. Smith
                              RKS Reference
                        8 Threads,    667 MiB Core
         ---------------------------------------------------------

  ==> Geometry <==

    Molecular point group: c1
    Full point group: C1

    Geometry (in Angstrom), charge = 0, multiplicity = 1:

       Center              X                  Y                   Z               Mass       
    ------------   -----------------  -----------------  -----------------  -----------------
         O           -2.398796725570     0.151325906819    -0.457823830319    15.994914619570
         C            0.031368274430     0.216837906819    -0.217766830319    12.000000000000
         C            1.296796274430    -0.340082093181     0.484605169681    12.000000000000
         C           -1.296312725570    -0.425134093181     0.261876169681    12.000000000000
         C            2.610647274430     0.308406906819     0.003020169681    12.000000000000
         H           -0.028158725570     1.301033906819    -0.054730830319     1.007825032230
         H            0.112355274430     0.062068906819    -1.301633830319     1.007825032230
         H            1.356190274430    -1.424975093181     0.324648169681     1.007825032230
         H            1.206728274430    -0.197606093181     1.569668169681     1.007825032230
         H           -1.267700725570    -1.511455093181     0.113915169681     1.007825032230
         H           -1.418064725570    -0.260995093181     1.339804169681     1.007825032230
         H            2.759597274430     0.152875906819    -1.071012830319     1.007825032230
         H            3.470612274430    -0.124832093181     0.524937169681     1.007825032230
         H            2.614051274430     1.386671906819     0.195593169681     1.007825032230
         H           -2.198749725570     1.072858906819    -0.706465830319     1.007825032230

  Running in c1 symmetry.

  Rotational constants: A =      0.59362  B =      0.06450  C =      0.06088 [cm^-1]
  Rotational constants: A =  17796.16069  B =   1933.54790  C =   1825.23382 [MHz]
  Nuclear repulsion =  183.151540280299997

  Charge       = 0
  Multiplicity = 1
  Electrons    = 42
  Nalpha       = 21
  Nbeta        = 21

  ==> Algorithm <==

  SCF Algorithm Type is DF.
  DIIS enabled.
  MOM disabled.
  Fractional occupation disabled.
  Guess Type is SAD.
  Energy threshold   = 1.00e-08
  Density threshold  = 1.00e-08
  Integral threshold = 0.00e+00

  ==> Primary Basis <==

  Basis Set: 6-311G
    Blend: 6-311G
    Number of shells: 65
    Number of basis function: 95
    Number of Cartesian functions: 95
    Spherical Harmonics?: true
    Max angular momentum: 1

  ==> DFT Potential <==

   => Composite Functional: WB97X-D <= 

    wB97X-D Hyb-GGA Exchange-Correlation Functional

    J.-D. Chai and M. Head-Gordon, Phys. Chem. Chem. Phys. 10, 6615 (2008)

    Deriv               =              1
    GGA                 =           TRUE
    Meta                =          FALSE

    Exchange Hybrid     =           TRUE
    MP2 Hybrid          =          FALSE

   => Exchange-Correlation Functionals <=

    1.0000   wB97D range-separated functional

   => Exact (HF) Exchange <=

    0.7780            HF,LR [omega = 0.2000]
    0.2220               HF 

   => Molecular Quadrature <=

    Radial Scheme          =       TREUTLER
    Pruning Scheme         =           FLAT
    Nuclear Scheme         =       TREUTLER

    BS radius alpha        =              1
    Pruning alpha          =              1
    Radial Points          =             75
    Spherical Points       =            302
    Total Points           =         336044
    Total Blocks           =           2578
    Max Points             =            256
    Max Functions          =             89

   => WB97X-D: Empirical Dispersion <=

    Chai and Head-Gordon Dispersion Correction
    Chai, J.-D.; Head-Gordon, M. (2010), J. Chem. Phys., 132: 6615-6620

        s6 =       1.000000

   => Loading Basis Set <=

    Name: (6-311G AUX)
    Role: JKFIT
    Keyword: DF_BASIS_SCF
    atoms 1    entry O          line   229 file /home/daniele/anaconda3/envs/poltype/share/psi4/basis/cc-pvtz-jkfit.gbs 
    atoms 2-5  entry C          line   125 file /home/daniele/anaconda3/envs/poltype/share/psi4/basis/cc-pvtz-jkfit.gbs 
    atoms 6-15 entry H          line    51 file /home/daniele/anaconda3/envs/poltype/share/psi4/basis/cc-pvtz-jkfit.gbs 

  ==> Pre-Iterations <==

   -------------------------------------------------------
    Irrep   Nso     Nmo     Nalpha   Nbeta   Ndocc  Nsocc
   -------------------------------------------------------
     A         95      95       0       0       0       0
   -------------------------------------------------------
    Total      95      95      21      21      21       0
   -------------------------------------------------------

  ==> Integral Setup <==

  ==> DiskDFJK: Density-Fitted J/K Matrices <==

    J tasked:                  Yes
    K tasked:                  Yes
    wK tasked:                 Yes
    Omega:               2.000E-01
    OpenMP threads:              8
    Integrals threads:           8
    Memory [MiB]:               34
    Algorithm:                Disk
    Integral Cache:           NONE
    Schwarz Cutoff:          1E-12
    Fitting Condition:       1E-10

   => Auxiliary Basis Set <=

  Basis Set: (6-311G AUX)
    Blend: CC-PVTZ-JKFIT
    Number of shells: 225
    Number of basis function: 695
    Number of Cartesian functions: 830
    Spherical Harmonics?: true
    Max angular momentum: 4

  Cached 100.0% of DFT collocation blocks in 0.663 [GiB].

  Minimum eigenvalue in the overlap matrix is 2.5383803264E-03.
  Using Symmetric Orthogonalization.

  SCF Guess: Superposition of Atomic Densities via on-the-fly atomic UHF.

  ==> Iterations <==

                           Total Energy        Delta E     RMS |[F,P]|

   @DF-RKS iter SAD:  -232.83593451923676   -2.32836e+02   0.00000e+00 
   @DF-RKS iter   1:  -233.29116373639539   -4.55229e-01   8.10884e-03 DIIS
   @DF-RKS iter   2:  -233.39596813742810   -1.04804e-01   7.01053e-03 DIIS
   @DF-RKS iter   3:  -233.57728925578368   -1.81321e-01   8.07483e-04 DIIS
   @DF-RKS iter   4:  -233.57926455899377   -1.97530e-03   3.34766e-04 DIIS
   @DF-RKS iter   5:  -233.57970952262758   -4.44964e-04   3.59563e-05 DIIS
   @DF-RKS iter   6:  -233.57971629884864   -6.77622e-06   1.74435e-05 DIIS
   @DF-RKS iter   7:  -233.57971769473014   -1.39588e-06   1.84111e-06 DIIS
   @DF-RKS iter   8:  -233.57971773149546   -3.67653e-08   3.52945e-07 DIIS
   @DF-RKS iter   9:  -233.57971773295466   -1.45920e-09   1.11413e-07 DIIS
   @DF-RKS iter  10:  -233.57971773306096   -1.06297e-10   5.10531e-08 DIIS
   @DF-RKS iter  11:  -233.57971773307906   -1.81046e-11   7.00088e-09 DIIS
  Energy and wave function converged.


  ==> Post-Iterations <==

    Orbital Energies [Eh]
    ---------------------

    Doubly Occupied:                                                      

       1A    -19.234770     2A    -10.332446     3A    -10.291443  
       4A    -10.291050     5A    -10.278119     6A     -1.120553  
       7A     -0.898957     8A     -0.822333     9A     -0.737238  
      10A     -0.691624    11A     -0.585837    12A     -0.567922  
      13A     -0.531667    14A     -0.523869    15A     -0.478637  
      16A     -0.468786    17A     -0.458049    18A     -0.425897  
      19A     -0.417928    20A     -0.389358    21A     -0.348915  

    Virtual:                                                              

      22A      0.116498    23A      0.121054    24A      0.143247  
      25A      0.151281    26A      0.170842    27A      0.192359  
      28A      0.206204    29A      0.214103    30A      0.216912  
      31A      0.234439    32A      0.253828    33A      0.293550  
      34A      0.295728    35A      0.316772    36A      0.378652  
      37A      0.388956    38A      0.403588    39A      0.451041  
      40A      0.458267    41A      0.462653    42A      0.486419  
      43A      0.519000    44A      0.593336    45A      0.602365  
      46A      0.644151    47A      0.648639    48A      0.663502  
      49A      0.667825    50A      0.671808    51A      0.684107  
      52A      0.696754    53A      0.700310    54A      0.707556  
      55A      0.715568    56A      0.716477    57A      0.740804  
      58A      0.845820    59A      0.994718    60A      1.015455  
      61A      1.063883    62A      1.070280    63A      1.108601  
      64A      1.118956    65A      1.585261    66A      2.274015  
      67A      2.339341    68A      2.341186    69A      2.344768  
      70A      2.355296    71A      2.361498    72A      2.376998  
      73A      2.384415    74A      2.407145    75A      2.429898  
      76A      2.870298    77A      2.902591    78A      2.921698  
      79A      2.930472    80A      2.936044    81A      2.952602  
      82A      2.976618    83A      3.060046    84A      3.078626  
      85A      3.151709    86A      3.171152    87A      3.288772  
      88A      4.957934    89A      5.013552    90A      5.156079  
      91A     23.423954    92A     23.563611    93A     23.628555  
      94A     23.702055    95A     49.965913  

    Final Occupation by Irrep:
              A 
    DOCC [    21 ]

  @DF-RKS Final Energy:  -233.57971773307906

   => Energetics <=

    Nuclear Repulsion Energy =            183.1515402802999972
    One-Electron Energy =                -677.9724123561890110
    Two-Electron Energy =                 284.4627970277291524
    DFT Exchange-Correlation Energy =     -23.2145853112662621
    Empirical Dispersion Energy =          -0.0070573736529019
    VV10 Nonlocal Energy =                  0.0000000000000000
    Total Energy =                       -233.5797177330790646

Computation Completed


Properties will be evaluated at   0.000000,   0.000000,   0.000000 [a0]

Properties computed using the SCF density matrix

  Nuclear Dipole Moment: [e a0]
     X:     6.1822      Y:     0.4279      Z:     0.8741

  Electronic Dipole Moment: [e a0]
     X:    -5.3709      Y:    -0.0694      Z:    -0.7015

  Dipole Moment: [e a0]
     X:     0.8113      Y:     0.3585      Z:     0.1725     Total:     0.9036

  Dipole Moment: [D]
     X:     2.0621      Y:     0.9112      Z:     0.4386     Total:     2.2967


*** tstop() called on daniele-Precision-5750 at Thu May 27 11:01:38 2021
Module time:
	user time   =      32.42 seconds =       0.54 minutes
	system time =       0.81 seconds =       0.01 minutes
	total time  =          5 seconds =       0.08 minutes
Total time:
	user time   =      32.42 seconds =       0.54 minutes
	system time =       0.81 seconds =       0.01 minutes
	total time  =          5 seconds =       0.08 minutes

*** tstart() called on daniele-Precision-5750
*** at Thu May 27 11:01:38 2021


         ------------------------------------------------------------
                                   SCF GRAD                          
                          Rob Parrish, Justin Turney,                
                       Andy Simmonett, and Alex Sokolov              
         ------------------------------------------------------------

  ==> Geometry <==

    Molecular point group: c1
    Full point group: C1

    Geometry (in Angstrom), charge = 0, multiplicity = 1:

       Center              X                  Y                   Z               Mass       
    ------------   -----------------  -----------------  -----------------  -----------------
         O           -2.398796725570     0.151325906819    -0.457823830319    15.994914619570
         C            0.031368274430     0.216837906819    -0.217766830319    12.000000000000
         C            1.296796274430    -0.340082093181     0.484605169681    12.000000000000
         C           -1.296312725570    -0.425134093181     0.261876169681    12.000000000000
         C            2.610647274430     0.308406906819     0.003020169681    12.000000000000
         H           -0.028158725570     1.301033906819    -0.054730830319     1.007825032230
         H            0.112355274430     0.062068906819    -1.301633830319     1.007825032230
         H            1.356190274430    -1.424975093181     0.324648169681     1.007825032230
         H            1.206728274430    -0.197606093181     1.569668169681     1.007825032230
         H           -1.267700725570    -1.511455093181     0.113915169681     1.007825032230
         H           -1.418064725570    -0.260995093181     1.339804169681     1.007825032230
         H            2.759597274430     0.152875906819    -1.071012830319     1.007825032230
         H            3.470612274430    -0.124832093181     0.524937169681     1.007825032230
         H            2.614051274430     1.386671906819     0.195593169681     1.007825032230
         H           -2.198749725570     1.072858906819    -0.706465830319     1.007825032230

  Nuclear repulsion =  183.151540280299997

  ==> Basis Set <==

  Basis Set: 6-311G
    Blend: 6-311G
    Number of shells: 65
    Number of basis function: 95
    Number of Cartesian functions: 95
    Spherical Harmonics?: true
    Max angular momentum: 1

  ==> DFJKGrad: Density-Fitted SCF Gradients <==

    Gradient:                    1
    J tasked:                  Yes
    K tasked:                  Yes
    wK tasked:                 Yes
    Omega:               2.000E-01
    OpenMP threads:              8
    Integrals threads:           8
    Memory [MiB]:              500
    Schwarz Cutoff:          0E+00
    Fitting Condition:       1E-10

   => Auxiliary Basis Set <=

  Basis Set: (6-311G AUX)
    Blend: CC-PVTZ-JKFIT
    Number of shells: 225
    Number of basis function: 695
    Number of Cartesian functions: 830
    Spherical Harmonics?: true
    Max angular momentum: 4

  ==> DFT Potential <==

   => Composite Functional: WB97X-D <= 

    wB97X-D Hyb-GGA Exchange-Correlation Functional

    J.-D. Chai and M. Head-Gordon, Phys. Chem. Chem. Phys. 10, 6615 (2008)

    Deriv               =              1
    GGA                 =           TRUE
    Meta                =          FALSE

    Exchange Hybrid     =           TRUE
    MP2 Hybrid          =          FALSE

   => Exchange-Correlation Functionals <=

    1.0000   wB97D range-separated functional

   => Exact (HF) Exchange <=

    0.7780            HF,LR [omega = 0.2000]
    0.2220               HF 

   => Molecular Quadrature <=

    Radial Scheme          =       TREUTLER
    Pruning Scheme         =           FLAT
    Nuclear Scheme         =       TREUTLER

    BS radius alpha        =              1
    Pruning alpha          =              1
    Radial Points          =             75
    Spherical Points       =            302
    Total Points           =         336044
    Total Blocks           =           2578
    Max Points             =            256
    Max Functions          =             89


  -Total Gradient:
     Atom            X                  Y                   Z
    ------   -----------------  -----------------  -----------------
       1        0.005482371878    -0.000330876897     0.005966175787
       2       -0.002028880583     0.010092940361    -0.004978260204
       3        0.001909610525    -0.001921043166     0.001546064601
       4       -0.020674844316    -0.007464466219    -0.003819094856
       5        0.003084447351     0.001214283125    -0.000846979762
       6       -0.000605406280     0.000608948472    -0.000978811359
       7        0.000204086245     0.000043788397    -0.002237172906
       8        0.001392052745    -0.002349222695     0.000638525479
       9        0.000971478859    -0.000274275897     0.002208319601
      10        0.005188399134    -0.005727995797     0.005625741193
      11       -0.000197556780    -0.001657980933     0.000778839122
      12        0.001004355405    -0.000606660181    -0.001849672153
      13        0.002067292963    -0.000818136242     0.001130575583
      14        0.000634728825     0.001738899258     0.000770826724
      15        0.001608551331     0.007507281049    -0.003853053752


*** tstop() called on daniele-Precision-5750 at Thu May 27 11:01:40 2021
Module time:
	user time   =      14.22 seconds =       0.24 minutes
	system time =       0.15 seconds =       0.00 minutes
	total time  =          2 seconds =       0.03 minutes
Total time:
	user time   =      46.65 seconds =       0.78 minutes
	system time =       0.96 seconds =       0.02 minutes
	total time  =          7 seconds =       0.12 minutes

			-----------------------------------------
			 OPTKING 2.0: for geometry optimizations 
			  - R.A. King,  Bethel University        
			-----------------------------------------
	At level 1: Red. Int., RFO, no backsteps, dynamic trust

	Internal coordinates to be generated automatically.
	Detected frag 1 with atoms:  1 2 3 4 5 6 7 8 9 10 11 12 13 14 15
	---Fragment 1 Bond Connectivity---
	 1 : 4 15
	 2 : 3 4 6 7
	 3 : 2 5 8 9
	 4 : 1 2 10 11
	 5 : 3 12 13 14
	 6 : 2
	 7 : 2
	 8 : 3
	 9 : 3
	 10 : 4
	 11 : 4
	 12 : 5
	 13 : 5
	 14 : 5
	 15 : 1

	Assuming in current code that numbering for constraints corresponds to unified fragment.
	Frozen dihedral atom list: 
	     2     4     1    15
	     4     2     3     5
	     3     2     4     1
	    12     5     3     2
	---Fragment 1 Geometry and Gradient---
	 O          -4.5330688420        0.2859645196       -0.8651616530
	 C           0.0592774477        0.4097642575       -0.4115196685
	 C           2.4505897992       -0.6426620163        0.9157710497
	 C          -2.4496760243       -0.8033870027        0.4948742395
	 C           4.9334083588        0.5828045891        0.0057072936
	 H          -0.0532122794        2.4585977638       -0.1034262799
	 H           0.2123206974        0.1172932348       -2.4597314549
	 H           2.5628281927       -2.6928126617        0.6134961278
	 H           2.2803859465       -0.3734213968        2.9662429485
	 H          -2.3956071804       -2.8562361770        0.2152684722
	 H          -2.6797539595       -0.4932092462        2.5318629424
	 H           5.2148830652        0.2888935951       -2.0239209262
	 H           6.5585066863       -0.2358984678        0.9919874838
	 H           4.9398409866        2.6204301298        0.3696175227
	 H          -4.1550347998        2.0274095051       -1.3350269363
	             0.0054823719       -0.0003308769        0.0059661758
	            -0.0020288806        0.0100929404       -0.0049782602
	             0.0019096105       -0.0019210432        0.0015460646
	            -0.0206748443       -0.0074644662       -0.0038190949
	             0.0030844474        0.0012142831       -0.0008469798
	            -0.0006054063        0.0006089485       -0.0009788114
	             0.0002040862        0.0000437884       -0.0022371729
	             0.0013920527       -0.0023492227        0.0006385255
	             0.0009714789       -0.0002742759        0.0022083196
	             0.0051883991       -0.0057279958        0.0056257412
	            -0.0001975568       -0.0016579809        0.0007788391
	             0.0010043554       -0.0006066602       -0.0018496722
	             0.0020672930       -0.0008181362        0.0011305756
	             0.0006347288        0.0017388993        0.0007708267
	             0.0016085513        0.0075072810       -0.0038530538

	Previous optimization step data not found.  Starting new optimization.

	---Fragment 1 Intrafragment Coordinates---
	 - Coordinate -           - BOHR/RAD -       - ANG/DEG -
	 R(1,4)           =         2.716047	       1.437270
	 R(1,15)          =         1.842909	       0.975225
	 R(2,3)           =         2.930474	       1.550740
	 R(2,4)           =         2.930552	       1.550781
	 R(2,6)           =         2.074920	       1.098001
	 R(2,7)           =         2.074640	       1.097852
	 R(3,5)           =         2.914511	       1.542293
	 R(3,8)           =         2.075352	       1.098229
	 R(3,9)           =         2.075065	       1.098077
	 R(4,10)          =         2.072509	       1.096724
	 R(4,11)          =         2.073275	       1.097130
	 R(5,12)          =         2.070025	       1.095410
	 R(5,13)          =         2.069775	       1.095278
	 R(5,14)          =         2.069877	       1.095332
	 B(1,4,2)         =         1.913258	     109.621605
	 B(1,4,10)        =         1.928080	     110.470869
	 B(1,4,11)        =         1.925005	     110.294673
	 B(2,3,5)         =         1.985279	     113.748126
	 B(2,3,8)         =         1.910209	     109.446922
	 B(2,3,9)         =         1.911371	     109.513513
	 B(2,4,10)        =         1.924077	     110.241482
	 B(2,4,11)        =         1.914476	     109.691384
	 B(3,2,4)         =         1.993104	     114.196423
	 B(3,2,6)         =         1.908799	     109.366129
	 B(3,2,7)         =         1.913816	     109.653590
	 B(3,5,12)        =         1.941525	     111.241190
	 B(3,5,13)        =         1.932373	     110.716838
	 B(3,5,14)        =         1.940854	     111.202720
	 B(4,1,15)        =         1.927640	     110.445609
	 B(4,2,6)         =         1.892752	     108.446725
	 B(4,2,7)         =         1.886146	     108.068179
	 B(5,3,8)         =         1.900554	     108.893751
	 B(5,3,9)         =         1.900613	     108.897122
	 B(6,2,7)         =         1.864808	     106.845631
	 B(8,3,9)         =         1.850983	     106.053487
	 B(10,4,11)       =         1.858378	     106.477222
	 B(12,5,13)       =         1.879991	     107.715541
	 B(12,5,14)       =         1.887811	     108.163577
	 B(13,5,14)       =         1.878815	     107.648166
	*D(1,4,2,3)       =        -3.132584	    -179.483819
	 D(1,4,2,6)       =         1.017525	      58.299883
	 D(1,4,2,7)       =        -0.997937	     -57.177593
	*D(2,3,5,12)      =        -1.045207	     -59.885947
	 D(2,3,5,13)      =        -3.135045	    -179.624845
	 D(2,3,5,14)      =         1.060222	      60.746263
	*D(2,4,1,15)      =        -0.526750	     -30.180575
	 D(3,2,4,10)      =        -1.006493	     -57.667772
	 D(3,2,4,11)      =         1.034487	      59.271713
	*D(4,2,3,5)       =        -3.138505	    -179.823100
	 D(4,2,3,8)       =         1.014674	      58.136516
	 D(4,2,3,9)       =        -1.007562	     -57.729025
	 D(5,3,2,6)       =        -1.014236	     -58.111457
	 D(5,3,2,7)       =         1.025238	      58.741821
	 D(6,2,3,8)       =         3.138943	     179.848159
	 D(6,2,3,9)       =         1.116707	      63.982618
	 D(6,2,4,10)      =        -3.139569	    -179.884071
	 D(6,2,4,11)      =        -1.098590	     -62.944585
	 D(7,2,3,8)       =        -1.104768	     -63.298562
	 D(7,2,3,9)       =        -3.127004	    -179.164104
	 D(7,2,4,10)      =         1.128154	      64.638454
	 D(7,2,4,11)      =        -3.114052	    -178.422061
	 D(8,3,5,12)      =         1.090131	      62.459907
	 D(8,3,5,13)      =        -0.999707	     -57.278990
	 D(8,3,5,14)      =        -3.087625	    -176.907882
	 D(9,3,5,12)      =         3.101099	     177.679860
	 D(9,3,5,13)      =         1.011261	      57.940962
	 D(9,3,5,14)      =        -1.076657	     -61.687930
	 D(10,4,1,15)     =        -2.650441	    -151.859072
	 D(11,4,1,15)     =         1.583005	      90.699485

	Current energy   :      -233.5797177331

	Generating empirical Hessian (Schlegel '84) for each fragment.
	Taking RFO optimization step.
	Going to follow RFO solution 1.
	Using RFO vector 1.
	Norm of target step-size    0.17952
	Projected energy change by RFO approximation:        -0.0032773086

	Back-transformation to cartesian coordinates...
	Successfully converged to displaced geometry.

	Back-transformation to cartesian coordinates to adjust frozen coordinates...
	Successfully converged to displaced geometry.

	--- Internal Coordinate Step in ANG or DEG, aJ/ANG or AJ/DEG ---
	 ---------------------------------------------------------------------------
	   Coordinate                Previous        Force       Change         New 
	   ----------                --------       ------       ------       ------
	    1 R(1,4)          =      1.437270     0.029838     0.004803     1.442074
	    2 R(1,15)         =      0.975225    -0.069235    -0.008424     0.966802
	    3 R(2,3)          =      1.550740    -0.096380    -0.022088     1.528652
	    4 R(2,4)          =      1.550781    -0.098945    -0.022718     1.528064
	    5 R(2,6)          =      1.098001    -0.004044    -0.000730     1.097270
	    6 R(2,7)          =      1.097852    -0.018272    -0.003395     1.094458
	    7 R(3,5)          =      1.542293    -0.055019    -0.012303     1.529990
	    8 R(3,8)          =      1.098229    -0.019087    -0.003552     1.094677
	    9 R(3,9)          =      1.098077    -0.016870    -0.003135     1.094942
	   10 R(4,10)         =      1.096724    -0.041750    -0.007765     1.088960
	   11 R(4,11)         =      1.097130    -0.004302    -0.000777     1.096353
	   12 R(5,12)         =      1.095410    -0.016796    -0.003094     1.092316
	   13 R(5,13)         =      1.095278    -0.020415    -0.003753     1.091525
	   14 R(5,14)         =      1.095332    -0.015282    -0.002812     1.092519
	   15 B(1,4,2)        =    109.621605     0.000941     2.933334   112.554939
	   16 B(1,4,10)       =    110.470869    -0.000668    -4.560112   105.910757
	   17 B(1,4,11)       =    110.294673    -0.000258    -0.027227   110.267446
	   18 B(2,3,5)        =    113.748126    -0.000295    -1.184080   112.564046
	   19 B(2,3,8)        =    109.446922     0.000027    -0.387917   109.059005
	   20 B(2,3,9)        =    109.513513     0.000021    -0.199415   109.314098
	   21 B(2,4,10)       =    110.241482    -0.000022     0.054901   110.296383
	   22 B(2,4,11)       =    109.691384    -0.000269    -0.000089   109.691295
	   23 B(3,2,4)        =    114.196423    -0.000174    -0.731601   113.464821
	   24 B(3,2,6)        =    109.366129    -0.000063    -0.548218   108.817911
	   25 B(3,2,7)        =    109.653590     0.000123     0.471533   110.125123
	   26 B(3,5,12)       =    111.241190    -0.000052    -0.332240   110.908950
	   27 B(3,5,13)       =    110.716838     0.000001     0.138484   110.855323
	   28 B(3,5,14)       =    111.202720    -0.000028    -0.256163   110.946557
	   29 B(4,1,15)       =    110.445609    -0.000115    -0.530307   109.915302
	   30 B(4,2,6)        =    108.446725     0.000092     0.073866   108.520591
	   31 B(4,2,7)        =    108.068179     0.000030     0.312467   108.380646
	   32 B(5,3,8)        =    108.893751     0.000129     0.617999   109.511750
	   33 B(5,3,9)        =    108.897122     0.000152     0.679635   109.576757
	   34 B(6,2,7)        =    106.845631     0.000003     0.497454   107.343085
	   35 B(8,3,9)        =    106.053487    -0.000014     0.584673   106.638160
	   36 B(10,4,11)      =    106.477222     0.000243     1.490192   107.967413
	   37 B(12,5,13)      =    107.715541     0.000025     0.256315   107.971856
	   38 B(12,5,14)      =    108.163577     0.000021    -0.134603   108.028974
	   39 B(13,5,14)      =    107.648166     0.000037     0.355831   108.003997
	   40 *D(1,4,2,3)     =   -179.483819     0.000000    -0.000000  -179.483819
	   41 D(1,4,2,6)      =     58.299883     0.000030     1.134425    59.434308
	   42 D(1,4,2,7)      =    -57.177593     0.000015     0.342812   -56.834781
	   43 *D(2,3,5,12)    =    -59.885947     0.000000    -0.000000   -59.885947
	   44 D(2,3,5,13)     =   -179.624845     0.000000    -0.195269  -179.820114
	   45 D(2,3,5,14)     =     60.746263    -0.000006    -0.565803    60.180460
	   46 *D(2,4,1,15)    =    -30.180575    -0.000000    -0.000000   -30.180575
	   47 D(3,2,4,10)     =    -57.667772    -0.000053    -3.775005   -61.442777
	   48 D(3,2,4,11)     =     59.271713    -0.000025    -1.919098    57.352615
	   49 *D(4,2,3,5)     =   -179.823100     0.000000    -0.000000  -179.823100
	   50 D(4,2,3,8)      =     58.136516     0.000004     0.290073    58.426589
	   51 D(4,2,3,9)      =    -57.729025     0.000002    -0.081003   -57.810028
	   52 D(5,3,2,6)      =    -58.111457    -0.000011    -0.796974   -58.908431
	   53 D(5,3,2,7)      =     58.741821    -0.000002    -0.245032    58.496789
	   54 D(6,2,3,8)      =    179.848159    -0.000007    -0.506901   179.341258
	   55 D(6,2,3,9)      =     63.982618    -0.000010    -0.877977    63.104641
	   56 D(6,2,4,10)     =   -179.884071    -0.000023    -2.640580  -182.524651
	   57 D(6,2,4,11)     =    -62.944585     0.000005    -0.784674   -63.729259
	   58 D(7,2,3,8)      =    -63.298562     0.000001     0.045041   -63.253521
	   59 D(7,2,3,9)      =   -179.164104    -0.000001    -0.326035  -179.490138
	   60 D(7,2,4,10)     =     64.638454    -0.000038    -3.432193    61.206261
	   61 D(7,2,4,11)     =   -178.422061    -0.000010    -1.576287  -179.998347
	   62 D(8,3,5,12)     =     62.459907    -0.000016    -0.852834    61.607073
	   63 D(8,3,5,13)     =    -57.278990    -0.000016    -1.048104   -58.327094
	   64 D(8,3,5,14)     =   -176.907882    -0.000023    -1.418638  -178.326520
	   65 D(9,3,5,12)     =    177.679860     0.000015     0.569875   178.249735
	   66 D(9,3,5,13)     =     57.940962     0.000015     0.374606    58.315568
	   67 D(9,3,5,14)     =    -61.687930     0.000008     0.004072   -61.683858
	   68 D(10,4,1,15)    =   -151.859072    -0.000036     1.083602  -150.775470
	   69 D(11,4,1,15)    =     90.699485     0.000025     1.960982    92.660467
	 ---------------------------------------------------------------------------
	Successfully symmetrized geometry.

  ==> Convergence Check <==

  Measures of convergence in internal coordinates in au.
  Criteria marked as inactive (o), active & met (*), and active & unmet ( ).
  --------------------------------------------------------------------------------------------- ~
   Step     Total Energy     Delta E     MAX Force     RMS Force      MAX Disp      RMS Disp    ~
  --------------------------------------------------------------------------------------------- ~
    Convergence Criteria             o    2.50e-03 *    1.70e-03 *    1.00e-02 *    6.70e-03 *  ~
  --------------------------------------------------------------------------------------------- ~
      1    -233.57971773   -2.34e+02 o    1.24e-02      3.40e-03      7.96e-02      2.16e-02    ~
  ---------------------------------------------------------------------------------------------

	Writing optimization data to binary file.
	Structure for next step:
	Cartesian Geometry (in Angstrom)
	    O    -2.3845038991   0.0632773249  -0.5399197254
	    C     0.0636271109   0.2047944442  -0.2372111165
	    C     1.2787204882  -0.3135583739   0.5319679363
	    C    -1.2534682261  -0.4306908760   0.2059554716
	    C     2.5849383014   0.3390374700   0.0750412749
	    H    -0.0081741753   1.2905074228  -0.0955269092
	    H     0.1909375627   0.0233568245  -1.3089899779
	    H     1.3473234785  -1.3984325055   0.4028976657
	    H     1.1335334434  -0.1337284274   1.6022393045
	    H    -1.2301776849  -1.5060014521   0.0356675536
	    H    -1.4027876976  -0.2613321079   1.2788076402
	    H     2.7670426748   0.1465285968  -0.9846438031
	    H     3.4332323762  -0.0528542142   0.6391724972
	    H     2.5529843303   1.4212240998   0.2214979619
	    H    -2.2226649938   0.9748723747  -0.8183222324
			--------------------------
			 OPTKING Finished Execution 
			--------------------------

    Structure for next step:
    Molecular point group: c1
    Full point group: C1

    Geometry (in Angstrom), charge = 0, multiplicity = 1:

    O           -2.392043307119     0.075222367528    -0.529841648274
    C            0.056087712528     0.216739487340    -0.227133038154
    C            1.271181094549    -0.301613332747     0.542046017639
    C           -1.261007629733    -0.418745835272     0.216033551691
    C            2.577398912927     0.350982513720     0.085119354439
    H           -0.015713574015     1.302452470268    -0.085448830299
    H            0.183398164768     0.035301867024    -1.298911903834
    H            1.339784085123    -1.386487468660     0.412975746539
    H            1.125994049147    -0.121783385531     1.612317390041
    H           -1.237717088432    -1.494056415652     0.045745632976
    H           -1.410327101821    -0.249387066498     1.288885724492
    H            2.759503286998     0.158473639748    -0.974565727749
    H            3.425692991012    -0.040909171987     0.649250578924
    H            2.545444941645     1.433169147818     0.231576041976
    H           -2.230204401175     0.986817420935    -0.808244156401

gradient() will perform analytic gradient computation.

*** tstart() called on daniele-Precision-5750
*** at Thu May 27 11:01:40 2021

   => Loading Basis Set <=

    Name: 6-311G
    Role: ORBITAL
    Keyword: BASIS
    atoms 1    entry O          line   126 file /home/daniele/anaconda3/envs/poltype/share/psi4/basis/6-311g.gbs 
    atoms 2-5  entry C          line    92 file /home/daniele/anaconda3/envs/poltype/share/psi4/basis/6-311g.gbs 
    atoms 6-15 entry H          line    21 file /home/daniele/anaconda3/envs/poltype/share/psi4/basis/6-311g.gbs 


         ---------------------------------------------------------
                                   SCF
               by Justin Turney, Rob Parrish, Andy Simmonett
                          and Daniel G. A. Smith
                              RKS Reference
                        8 Threads,    667 MiB Core
         ---------------------------------------------------------

  ==> Geometry <==

    Molecular point group: c1
    Full point group: C1

    Geometry (in Angstrom), charge = 0, multiplicity = 1:

       Center              X                  Y                   Z               Mass       
    ------------   -----------------  -----------------  -----------------  -----------------
         O           -2.392043307119     0.075222367528    -0.529841648274    15.994914619570
         C            0.056087712528     0.216739487340    -0.227133038154    12.000000000000
         C            1.271181094549    -0.301613332747     0.542046017639    12.000000000000
         C           -1.261007629733    -0.418745835272     0.216033551691    12.000000000000
         C            2.577398912927     0.350982513720     0.085119354439    12.000000000000
         H           -0.015713574015     1.302452470268    -0.085448830299     1.007825032230
         H            0.183398164768     0.035301867024    -1.298911903834     1.007825032230
         H            1.339784085123    -1.386487468660     0.412975746539     1.007825032230
         H            1.125994049147    -0.121783385531     1.612317390041     1.007825032230
         H           -1.237717088432    -1.494056415652     0.045745632976     1.007825032230
         H           -1.410327101821    -0.249387066498     1.288885724492     1.007825032230
         H            2.759503286998     0.158473639748    -0.974565727749     1.007825032230
         H            3.425692991012    -0.040909171987     0.649250578924     1.007825032230
         H            2.545444941645     1.433169147818     0.231576041976     1.007825032230
         H           -2.230204401175     0.986817420935    -0.808244156401     1.007825032230

  Running in c1 symmetry.

  Rotational constants: A =      0.61101  B =      0.06527  C =      0.06176 [cm^-1]
  Rotational constants: A =  18317.67857  B =   1956.86350  C =   1851.59980 [MHz]
  Nuclear repulsion =  184.385857737501340

  Charge       = 0
  Multiplicity = 1
  Electrons    = 42
  Nalpha       = 21
  Nbeta        = 21

  ==> Algorithm <==

  SCF Algorithm Type is DF.
  DIIS enabled.
  MOM disabled.
  Fractional occupation disabled.
  Guess Type is READ.
  Energy threshold   = 1.00e-08
  Density threshold  = 1.00e-08
  Integral threshold = 0.00e+00

  ==> Primary Basis <==

  Basis Set: 6-311G
    Blend: 6-311G
    Number of shells: 65
    Number of basis function: 95
    Number of Cartesian functions: 95
    Spherical Harmonics?: true
    Max angular momentum: 1

  ==> DFT Potential <==

   => Composite Functional: WB97X-D <= 

    wB97X-D Hyb-GGA Exchange-Correlation Functional

    J.-D. Chai and M. Head-Gordon, Phys. Chem. Chem. Phys. 10, 6615 (2008)

    Deriv               =              1
    GGA                 =           TRUE
    Meta                =          FALSE

    Exchange Hybrid     =           TRUE
    MP2 Hybrid          =          FALSE

   => Exchange-Correlation Functionals <=

    1.0000   wB97D range-separated functional

   => Exact (HF) Exchange <=

    0.7780            HF,LR [omega = 0.2000]
    0.2220               HF 

   => Molecular Quadrature <=

    Radial Scheme          =       TREUTLER
    Pruning Scheme         =           FLAT
    Nuclear Scheme         =       TREUTLER

    BS radius alpha        =              1
    Pruning alpha          =              1
    Radial Points          =             75
    Spherical Points       =            302
    Total Points           =         336036
    Total Blocks           =           2560
    Max Points             =            256
    Max Functions          =             89

   => WB97X-D: Empirical Dispersion <=

    Chai and Head-Gordon Dispersion Correction
    Chai, J.-D.; Head-Gordon, M. (2010), J. Chem. Phys., 132: 6615-6620

        s6 =       1.000000

   => Loading Basis Set <=

    Name: (6-311G AUX)
    Role: JKFIT
    Keyword: DF_BASIS_SCF
    atoms 1    entry O          line   229 file /home/daniele/anaconda3/envs/poltype/share/psi4/basis/cc-pvtz-jkfit.gbs 
    atoms 2-5  entry C          line   125 file /home/daniele/anaconda3/envs/poltype/share/psi4/basis/cc-pvtz-jkfit.gbs 
    atoms 6-15 entry H          line    51 file /home/daniele/anaconda3/envs/poltype/share/psi4/basis/cc-pvtz-jkfit.gbs 

   => Loading Basis Set <=

    Name: 6-311G
    Role: ORBITAL
    Keyword: BASIS
    atoms 1    entry O          line   126 file /home/daniele/anaconda3/envs/poltype/share/psi4/basis/6-311g.gbs 
    atoms 2-5  entry C          line    92 file /home/daniele/anaconda3/envs/poltype/share/psi4/basis/6-311g.gbs 
    atoms 6-15 entry H          line    21 file /home/daniele/anaconda3/envs/poltype/share/psi4/basis/6-311g.gbs 

  Reading orbitals from file 180, no projection.

  ==> Pre-Iterations <==

   -------------------------------------------------------
    Irrep   Nso     Nmo     Nalpha   Nbeta   Ndocc  Nsocc
   -------------------------------------------------------
     A         95      95       0       0       0       0
   -------------------------------------------------------
    Total      95      95      21      21      21       0
   -------------------------------------------------------

  ==> Integral Setup <==

  ==> DiskDFJK: Density-Fitted J/K Matrices <==

    J tasked:                  Yes
    K tasked:                  Yes
    wK tasked:                 Yes
    Omega:               2.000E-01
    OpenMP threads:              8
    Integrals threads:           8
    Memory [MiB]:               34
    Algorithm:                Disk
    Integral Cache:           NONE
    Schwarz Cutoff:          1E-12
    Fitting Condition:       1E-10

   => Auxiliary Basis Set <=

  Basis Set: (6-311G AUX)
    Blend: CC-PVTZ-JKFIT
    Number of shells: 225
    Number of basis function: 695
    Number of Cartesian functions: 830
    Spherical Harmonics?: true
    Max angular momentum: 4

  Cached 100.0% of DFT collocation blocks in 0.666 [GiB].

  Minimum eigenvalue in the overlap matrix is 2.3057617793E-03.
  Using Symmetric Orthogonalization.

  SCF Guess: Orbitals guess was supplied from a previous computation.

  ==> Iterations <==

                           Total Energy        Delta E     RMS |[F,P]|

   @DF-RKS iter   0:  -233.58607319686871   -2.33586e+02   1.25113e-03 
   @DF-RKS iter   1:  -233.58127936647244    4.79383e-03   1.64812e-04 DIIS
   @DF-RKS iter   2:  -233.58146825775987   -1.88891e-04   1.00547e-04 DIIS
   @DF-RKS iter   3:  -233.58150230139890   -3.40436e-05   4.24018e-05 DIIS
   @DF-RKS iter   4:  -233.58150955050044   -7.24910e-06   1.16091e-05 DIIS
   @DF-RKS iter   5:  -233.58151015290630   -6.02406e-07   2.10849e-06 DIIS
   @DF-RKS iter   6:  -233.58151018221818   -2.93119e-08   3.06893e-07 DIIS
   @DF-RKS iter   7:  -233.58151018348991   -1.27173e-09   1.54253e-07 DIIS
   @DF-RKS iter   8:  -233.58151018365061   -1.60696e-10   3.60982e-08 DIIS
   @DF-RKS iter   9:  -233.58151018366755   -1.69393e-11   7.36126e-09 DIIS
  Energy and wave function converged.


  ==> Post-Iterations <==

    Orbital Energies [Eh]
    ---------------------

    Doubly Occupied:                                                      

       1A    -19.233436     2A    -10.328708     3A    -10.288905  
       4A    -10.288076     5A    -10.276379     6A     -1.120407  
       7A     -0.907047     8A     -0.825853     9A     -0.737144  
      10A     -0.692071    11A     -0.589404    12A     -0.570266  
      13A     -0.533496    14A     -0.524624    15A     -0.477448  
      16A     -0.470188    17A     -0.457817    18A     -0.427716  
      19A     -0.418404    20A     -0.392562    21A     -0.349045  

    Virtual:                                                              

      22A      0.116974    23A      0.123624    24A      0.144429  
      25A      0.149397    26A      0.170192    27A      0.194426  
      28A      0.206984    29A      0.215217    30A      0.218555  
      31A      0.236707    32A      0.254474    33A      0.297715  
      34A      0.304510    35A      0.319473    36A      0.378001  
      37A      0.392110    38A      0.408638    39A      0.447343  
      40A      0.461401    41A      0.465730    42A      0.489838  
      43A      0.525747    44A      0.599659    45A      0.609620  
      46A      0.649049    47A      0.654955    48A      0.666557  
      49A      0.669047    50A      0.676459    51A      0.685578  
      52A      0.698411    53A      0.706146    54A      0.711849  
      55A      0.717621    56A      0.719732    57A      0.741234  
      58A      0.846352    59A      0.994828    60A      1.013409  
      61A      1.061682    62A      1.066538    63A      1.108216  
      64A      1.126989    65A      1.595698    66A      2.271876  
      67A      2.339977    68A      2.344282    69A      2.346816  
      70A      2.356376    71A      2.363065    72A      2.377932  
      73A      2.382556    74A      2.407621    75A      2.430148  
      76A      2.861873    77A      2.907643    78A      2.915451  
      79A      2.927267    80A      2.948229    81A      2.956214  
      82A      2.982331    83A      3.062943    84A      3.082437  
      85A      3.160506    86A      3.170909    87A      3.307174  
      88A      4.957697    89A      5.013513    90A      5.163072  
      91A     23.423171    92A     23.568935    93A     23.637771  
      94A     23.720721    95A     49.970870  

    Final Occupation by Irrep:
              A 
    DOCC [    21 ]

  @DF-RKS Final Energy:  -233.58151018366755

   => Energetics <=

    Nuclear Repulsion Energy =            184.3858577375013397
    One-Electron Energy =                -680.3987545776159322
    Two-Electron Energy =                 285.6811372023848321
    DFT Exchange-Correlation Energy =     -23.2426174531270888
    Empirical Dispersion Energy =          -0.0071330928107074
    VV10 Nonlocal Energy =                  0.0000000000000000
    Total Energy =                       -233.5815101836675467

Computation Completed


Properties will be evaluated at   0.000000,   0.000000,   0.000000 [a0]

Properties computed using the SCF density matrix

  Nuclear Dipole Moment: [e a0]
     X:     6.0688      Y:     0.5850      Z:     1.0039

  Electronic Dipole Moment: [e a0]
     X:    -5.2624      Y:    -0.1852      Z:    -0.8406

  Dipole Moment: [e a0]
     X:     0.8064      Y:     0.3997      Z:     0.1633     Total:     0.9148

  Dipole Moment: [D]
     X:     2.0498      Y:     1.0160      Z:     0.4150     Total:     2.3251


*** tstop() called on daniele-Precision-5750 at Thu May 27 11:01:43 2021
Module time:
	user time   =      24.97 seconds =       0.42 minutes
	system time =       0.40 seconds =       0.01 minutes
	total time  =          3 seconds =       0.05 minutes
Total time:
	user time   =      72.24 seconds =       1.20 minutes
	system time =       1.37 seconds =       0.02 minutes
	total time  =         10 seconds =       0.17 minutes

*** tstart() called on daniele-Precision-5750
*** at Thu May 27 11:01:43 2021


         ------------------------------------------------------------
                                   SCF GRAD                          
                          Rob Parrish, Justin Turney,                
                       Andy Simmonett, and Alex Sokolov              
         ------------------------------------------------------------

  ==> Geometry <==

    Molecular point group: c1
    Full point group: C1

    Geometry (in Angstrom), charge = 0, multiplicity = 1:

       Center              X                  Y                   Z               Mass       
    ------------   -----------------  -----------------  -----------------  -----------------
         O           -2.392043307119     0.075222367528    -0.529841648274    15.994914619570
         C            0.056087712528     0.216739487340    -0.227133038154    12.000000000000
         C            1.271181094549    -0.301613332747     0.542046017639    12.000000000000
         C           -1.261007629733    -0.418745835272     0.216033551691    12.000000000000
         C            2.577398912927     0.350982513720     0.085119354439    12.000000000000
         H           -0.015713574015     1.302452470268    -0.085448830299     1.007825032230
         H            0.183398164768     0.035301867024    -1.298911903834     1.007825032230
         H            1.339784085123    -1.386487468660     0.412975746539     1.007825032230
         H            1.125994049147    -0.121783385531     1.612317390041     1.007825032230
         H           -1.237717088432    -1.494056415652     0.045745632976     1.007825032230
         H           -1.410327101821    -0.249387066498     1.288885724492     1.007825032230
         H            2.759503286998     0.158473639748    -0.974565727749     1.007825032230
         H            3.425692991012    -0.040909171987     0.649250578924     1.007825032230
         H            2.545444941645     1.433169147818     0.231576041976     1.007825032230
         H           -2.230204401175     0.986817420935    -0.808244156401     1.007825032230

  Nuclear repulsion =  184.385857737501340

  ==> Basis Set <==

  Basis Set: 6-311G
    Blend: 6-311G
    Number of shells: 65
    Number of basis function: 95
    Number of Cartesian functions: 95
    Spherical Harmonics?: true
    Max angular momentum: 1

  ==> DFJKGrad: Density-Fitted SCF Gradients <==

    Gradient:                    1
    J tasked:                  Yes
    K tasked:                  Yes
    wK tasked:                 Yes
    Omega:               2.000E-01
    OpenMP threads:              8
    Integrals threads:           8
    Memory [MiB]:              500
    Schwarz Cutoff:          0E+00
    Fitting Condition:       1E-10

   => Auxiliary Basis Set <=

  Basis Set: (6-311G AUX)
    Blend: CC-PVTZ-JKFIT
    Number of shells: 225
    Number of basis function: 695
    Number of Cartesian functions: 830
    Spherical Harmonics?: true
    Max angular momentum: 4

  ==> DFT Potential <==

   => Composite Functional: WB97X-D <= 

    wB97X-D Hyb-GGA Exchange-Correlation Functional

    J.-D. Chai and M. Head-Gordon, Phys. Chem. Chem. Phys. 10, 6615 (2008)

    Deriv               =              1
    GGA                 =           TRUE
    Meta                =          FALSE

    Exchange Hybrid     =           TRUE
    MP2 Hybrid          =          FALSE

   => Exchange-Correlation Functionals <=

    1.0000   wB97D range-separated functional

   => Exact (HF) Exchange <=

    0.7780            HF,LR [omega = 0.2000]
    0.2220               HF 

   => Molecular Quadrature <=

    Radial Scheme          =       TREUTLER
    Pruning Scheme         =           FLAT
    Nuclear Scheme         =       TREUTLER

    BS radius alpha        =              1
    Pruning alpha          =              1
    Radial Points          =             75
    Spherical Points       =            302
    Total Points           =         336036
    Total Blocks           =           2560
    Max Points             =            256
    Max Functions          =             89


  -Total Gradient:
     Atom            X                  Y                   Z
    ------   -----------------  -----------------  -----------------
       1        0.000715257906    -0.000445483845     0.003408663180
       2        0.004230833508     0.000559391317     0.000307255554
       3       -0.000322728833     0.000955836354     0.000064703767
       4       -0.004894444221     0.001447484355    -0.003071522207
       5       -0.000409172127     0.000858007853    -0.000970828459
       6       -0.000259022863    -0.000536983556     0.000741804081
       7       -0.000545627542    -0.000635459716    -0.000045295726
       8       -0.000149685035     0.000020248829    -0.000382451295
       9       -0.000050308663     0.000326815655     0.000142472696
      10        0.000019887712     0.000498292324    -0.000321790502
      11        0.000360250548    -0.000743639479     0.000596913888
      12       -0.000008892870    -0.000293300744     0.000053492170
      13       -0.000294294147    -0.000502694173     0.000438847915
      14       -0.000137862254    -0.000035076148     0.000179431040
      15        0.001690692881    -0.001436524822    -0.001106764279


*** tstop() called on daniele-Precision-5750 at Thu May 27 11:01:45 2021
Module time:
	user time   =      13.16 seconds =       0.22 minutes
	system time =       0.14 seconds =       0.00 minutes
	total time  =          2 seconds =       0.03 minutes
Total time:
	user time   =      85.41 seconds =       1.42 minutes
	system time =       1.51 seconds =       0.03 minutes
	total time  =         12 seconds =       0.20 minutes

			-----------------------------------------
			 OPTKING 2.0: for geometry optimizations 
			  - R.A. King,  Bethel University        
			-----------------------------------------
	At level 1: Red. Int., RFO, no backsteps, dynamic trust

	Previous internal coordinate definitions found.
	---Fragment 1 Geometry and Gradient---
	 O          -4.5203067307        0.1421496731       -1.0012556051
	 C           0.1059904157        0.4095782716       -0.4292192362
	 C           2.4021841246       -0.5699665947        1.0243185207
	 C          -2.3829590623       -0.7913149448        0.4082442466
	 C           4.8705780615        0.6632608258        0.1608522679
	 H          -0.0296943513        2.4612784602       -0.1614748870
	 H           0.3465723033        0.0667108604       -2.4545877593
	 H           2.5318249881       -2.6200815921        0.7804110574
	 H           2.1278203718       -0.2301372453        3.0468382945
	 H          -2.3389463179       -2.8233574416        0.0864467178
	 H          -2.6651319698       -0.4712732549        2.4356410263
	 H           5.2147054547        0.2994717772       -1.8416623167
	 H           6.4736215429       -0.0773071311        1.2269057810
	 H           4.8101938071        2.7082971808        0.4376152966
	 H          -4.2144755220        1.8648146614       -1.5273600981
	             0.0007152579       -0.0004454838        0.0034086632
	             0.0042308335        0.0005593913        0.0003072556
	            -0.0003227288        0.0009558364        0.0000647038
	            -0.0048944442        0.0014474844       -0.0030715222
	            -0.0004091721        0.0008580079       -0.0009708285
	            -0.0002590229       -0.0005369836        0.0007418041
	            -0.0005456275       -0.0006354597       -0.0000452957
	            -0.0001496850        0.0000202488       -0.0003824513
	            -0.0000503087        0.0003268157        0.0001424727
	             0.0000198877        0.0004982923       -0.0003217905
	             0.0003602505       -0.0007436395        0.0005969139
	            -0.0000088929       -0.0002933007        0.0000534922
	            -0.0002942941       -0.0005026942        0.0004388479
	            -0.0001378623       -0.0000350761        0.0001794310
	             0.0016906929       -0.0014365248       -0.0011067643

	---Fragment 1 Intrafragment Coordinates---
	 - Coordinate -           - BOHR/RAD -       - ANG/DEG -
	 R(1,4)           =         2.725124	       1.442074
	 R(1,15)          =         1.826990	       0.966802
	 R(2,3)           =         2.888734	       1.528652
	 R(2,4)           =         2.887622	       1.528064
	 R(2,6)           =         2.073541	       1.097270
	 R(2,7)           =         2.068225	       1.094458
	 R(3,5)           =         2.891261	       1.529990
	 R(3,8)           =         2.068639	       1.094677
	 R(3,9)           =         2.069141	       1.094942
	 R(4,10)          =         2.057836	       1.088960
	 R(4,11)          =         2.071807	       1.096353
	 R(5,12)          =         2.064178	       1.092316
	 R(5,13)          =         2.062683	       1.091525
	 R(5,14)          =         2.064562	       1.092519
	 B(1,4,2)         =         1.964454	     112.554939
	 B(1,4,10)        =         1.848491	     105.910757
	 B(1,4,11)        =         1.924530	     110.267446
	 B(2,3,5)         =         1.964613	     112.564046
	 B(2,3,8)         =         1.903439	     109.059005
	 B(2,3,9)         =         1.907891	     109.314098
	 B(2,4,10)        =         1.925035	     110.296383
	 B(2,4,11)        =         1.914474	     109.691295
	 B(3,2,4)         =         1.980335	     113.464821
	 B(3,2,6)         =         1.899231	     108.817911
	 B(3,2,7)         =         1.922046	     110.125123
	 B(3,5,12)        =         1.935726	     110.908950
	 B(3,5,13)        =         1.934790	     110.855323
	 B(3,5,14)        =         1.936383	     110.946557
	 B(4,1,15)        =         1.918384	     109.915302
	 B(4,2,6)         =         1.894042	     108.520591
	 B(4,2,7)         =         1.891599	     108.380646
	 B(5,3,8)         =         1.911341	     109.511750
	 B(5,3,9)         =         1.912475	     109.576757
	 B(6,2,7)         =         1.873490	     107.343085
	 B(8,3,9)         =         1.861187	     106.638160
	 B(10,4,11)       =         1.884387	     107.967413
	 B(12,5,13)       =         1.884464	     107.971856
	 B(12,5,14)       =         1.885461	     108.028974
	 B(13,5,14)       =         1.885025	     108.003997
	*D(1,4,2,3)       =        -3.132584	    -179.483819
	 D(1,4,2,6)       =         1.037324	      59.434308
	 D(1,4,2,7)       =        -0.991954	     -56.834781
	*D(2,3,5,12)      =        -1.045207	     -59.885947
	 D(2,3,5,13)      =        -3.138453	    -179.820114
	 D(2,3,5,14)      =         1.050347	      60.180460
	*D(2,4,1,15)      =        -0.526750	     -30.180575
	 D(3,2,4,10)      =        -1.072379	     -61.442777
	 D(3,2,4,11)      =         1.000992	      57.352615
	*D(4,2,3,5)       =        -3.138505	    -179.823100
	 D(4,2,3,8)       =         1.019736	      58.426589
	 D(4,2,3,9)       =        -1.008975	     -57.810028
	 D(5,3,2,6)       =        -1.028146	     -58.908431
	 D(5,3,2,7)       =         1.020962	      58.496789
	 D(6,2,3,8)       =         3.130095	     179.341258
	 D(6,2,3,9)       =         1.101384	      63.104641
	 D(6,2,4,10)      =         3.097529	     177.475349
	 D(6,2,4,11)      =        -1.112285	     -63.729259
	 D(7,2,3,8)       =        -1.103982	     -63.253521
	 D(7,2,3,9)       =        -3.132694	    -179.490138
	 D(7,2,4,10)      =         1.068251	      61.206261
	 D(7,2,4,11)      =        -3.141564	    -179.998347
	 D(8,3,5,12)      =         1.075246	      61.607073
	 D(8,3,5,13)      =        -1.018000	     -58.327094
	 D(8,3,5,14)      =        -3.112385	    -178.326520
	 D(9,3,5,12)      =         3.111045	     178.249735
	 D(9,3,5,13)      =         1.017799	      58.315568
	 D(9,3,5,14)      =        -1.076586	     -61.683858
	 D(10,4,1,15)     =        -2.631528	    -150.775470
	 D(11,4,1,15)     =         1.617230	      92.660467

	Current energy   :      -233.5815101837

	Energy change for the previous step:
		Projected    :        -0.0032773086
		Actual       :        -0.0017924506

	Performing BFGS update.
	Previous computed or guess Hessian on step 1.
	Steps to be used in Hessian update: 1
	Taking RFO optimization step.
	Going to follow RFO solution 1.
	Using RFO vector 1.
	Norm of target step-size    0.04439
	Projected energy change by RFO approximation:        -0.0002719585

	Back-transformation to cartesian coordinates...
	Successfully converged to displaced geometry.

	Back-transformation to cartesian coordinates to adjust frozen coordinates...
	Successfully converged to displaced geometry.

	--- Internal Coordinate Step in ANG or DEG, aJ/ANG or AJ/DEG ---
	 ---------------------------------------------------------------------------
	   Coordinate                Previous        Force       Change         New 
	   ----------                --------       ------       ------       ------
	    1 R(1,4)          =      1.442074     0.030808     0.005002     1.447075
	    2 R(1,15)         =      0.966802     0.006242     0.000337     0.967138
	    3 R(2,3)          =      1.528652     0.014712     0.002242     1.530894
	    4 R(2,4)          =      1.528064    -0.016163    -0.004717     1.523347
	    5 R(2,6)          =      1.097270     0.003426     0.000590     1.097860
	    6 R(2,7)          =      1.094458    -0.000682    -0.000288     1.094170
	    7 R(3,5)          =      1.529990     0.004944     0.000491     1.530481
	    8 R(3,8)          =      1.094677    -0.000219    -0.000211     1.094466
	    9 R(3,9)          =      1.094942    -0.001518    -0.000428     1.094514
	   10 R(4,10)         =      1.088960     0.003516     0.000267     1.089227
	   11 R(4,11)         =      1.096353    -0.003392    -0.000656     1.095697
	   12 R(5,12)         =      1.092316    -0.000010    -0.000151     1.092165
	   13 R(5,13)         =      1.091525    -0.001447    -0.000443     1.091082
	   14 R(5,14)         =      1.092519    -0.000001    -0.000136     1.092384
	   15 B(1,4,2)        =    112.554939    -0.000014     0.073841   112.628781
	   16 B(1,4,10)       =    105.910757     0.000020     0.178638   106.089394
	   17 B(1,4,11)       =    110.267446    -0.000033    -0.590694   109.676752
	   18 B(2,3,5)        =    112.564046     0.000021     0.066597   112.630642
	   19 B(2,3,8)        =    109.059005     0.000011     0.124287   109.183291
	   20 B(2,3,9)        =    109.314098    -0.000009    -0.046609   109.267489
	   21 B(2,4,10)       =    110.296383     0.000019     0.425398   110.721781
	   22 B(2,4,11)       =    109.691295     0.000004    -0.268622   109.422673
	   23 B(3,2,4)        =    113.464821    -0.000102    -0.307692   113.157129
	   24 B(3,2,6)        =    108.817911     0.000047     0.184396   109.002307
	   25 B(3,2,7)        =    110.125123    -0.000008    -0.177731   109.947392
	   26 B(3,5,12)       =    110.908950    -0.000003    -0.057856   110.851094
	   27 B(3,5,13)       =    110.855323     0.000075     0.414720   111.270043
	   28 B(3,5,14)       =    110.946557     0.000006    -0.024730   110.921827
	   29 B(4,1,15)       =    109.915302     0.000148     0.643581   110.558883
	   30 B(4,2,6)        =    108.520591     0.000045     0.347910   108.868501
	   31 B(4,2,7)        =    108.380646     0.000067     0.289492   108.670138
	   32 B(5,3,8)        =    109.511750    -0.000009     0.030865   109.542615
	   33 B(5,3,9)        =    109.576757    -0.000006    -0.005863   109.570894
	   34 B(6,2,7)        =    107.343085    -0.000045    -0.336936   107.006149
	   35 B(8,3,9)        =    106.638160    -0.000010    -0.183015   106.455144
	   36 B(10,4,11)      =    107.967413     0.000006     0.201564   108.168977
	   37 B(12,5,13)      =    107.971856    -0.000031    -0.056250   107.915606
	   38 B(12,5,14)      =    108.028974    -0.000017    -0.211460   107.817514
	   39 B(13,5,14)      =    108.003997    -0.000034    -0.082809   107.921188
	   40 *D(1,4,2,3)     =   -179.483819     0.000000     0.000000  -179.483819
	   41 D(1,4,2,6)      =     59.434308    -0.000006    -0.279041    59.155267
	   42 D(1,4,2,7)      =    -56.834781    -0.000007    -0.224485   -57.059267
	   43 *D(2,3,5,12)    =    -59.885947    -0.000000     0.000000   -59.885947
	   44 D(2,3,5,13)     =   -179.820114    -0.000002    -0.165615  -179.985729
	   45 D(2,3,5,14)     =     60.180460    -0.000004    -0.320524    59.859936
	   46 *D(2,4,1,15)    =    -30.180575    -0.000000     0.000000   -30.180575
	   47 D(3,2,4,10)     =    -61.442777     0.000007     0.560346   -60.882431
	   48 D(3,2,4,11)     =     57.352615     0.000012     0.901647    58.254262
	   49 *D(4,2,3,5)     =   -179.823100    -0.000000     0.000000  -179.823100
	   50 D(4,2,3,8)      =     58.426589    -0.000002    -0.171284    58.255305
	   51 D(4,2,3,9)      =    -57.810028     0.000000     0.004267   -57.805761
	   52 D(5,3,2,6)      =    -58.908431     0.000005     0.370814   -58.537617
	   53 D(5,3,2,7)      =     58.496789    -0.000002    -0.030131    58.466658
	   54 D(6,2,3,8)      =    179.341258     0.000003     0.199531   179.540789
	   55 D(6,2,3,9)      =     63.104641     0.000005     0.375081    63.479722
	   56 D(6,2,4,10)     =    177.475349     0.000001     0.281305   177.756655
	   57 D(6,2,4,11)     =    -63.729259     0.000006     0.622606   -63.106652
	   58 D(7,2,3,8)      =    -63.253521    -0.000004    -0.201415   -63.454936
	   59 D(7,2,3,9)      =   -179.490138    -0.000002    -0.025865  -179.516003
	   60 D(7,2,4,10)     =     61.206261    -0.000001     0.335861    61.542121
	   61 D(7,2,4,11)     =   -179.998347     0.000004     0.677162  -179.321186
	   62 D(8,3,5,12)     =     61.607073     0.000005     0.225067    61.832140
	   63 D(8,3,5,13)     =    -58.327094     0.000003     0.059452   -58.267642
	   64 D(8,3,5,14)     =   -178.326520     0.000001    -0.095457  -178.421977
	   65 D(9,3,5,12)     =    178.249735     0.000000     0.018607   178.268342
	   66 D(9,3,5,13)     =     58.315568    -0.000002    -0.147008    58.168560
	   67 D(9,3,5,14)     =    -61.683858    -0.000004    -0.301917   -61.985775
	   68 D(10,4,1,15)    =   -150.775470    -0.000006    -0.683867  -151.459337
	   69 D(11,4,1,15)    =     92.660467    -0.000007    -0.722447    91.938020
	 ---------------------------------------------------------------------------
	Successfully symmetrized geometry.

  ==> Convergence Check <==

  Measures of convergence in internal coordinates in au.
  Criteria marked as inactive (o), active & met (*), and active & unmet ( ).
  ---------------------------------------------------------------------------------------------
   Step     Total Energy     Delta E     MAX Force     RMS Force      MAX Disp      RMS Disp   
  ---------------------------------------------------------------------------------------------
    Convergence Criteria             o    2.50e-03 *    1.70e-03 *    1.00e-02 *    6.70e-03 *
  ---------------------------------------------------------------------------------------------
      2    -233.58151018   -1.79e-03 o    3.74e-03      6.99e-04 *    1.57e-02      5.35e-03 *  ~
  ---------------------------------------------------------------------------------------------

	Writing optimization data to binary file.
	Structure for next step:
	Cartesian Geometry (in Angstrom)
	    O    -2.3942492600   0.0770035885  -0.5309549731
	    C     0.0552746500   0.2186013255  -0.2297574267
	    C     1.2693014071  -0.3045652261   0.5423004719
	    C    -1.2561864736  -0.4167657035   0.2140496980
	    C     2.5793677524   0.3446377744   0.0899357008
	    H    -0.0131892789   1.3058994405  -0.0941380318
	    H     0.1875189604   0.0373801045  -1.3006813242
	    H     1.3356392438  -1.3896698990   0.4157971974
	    H     1.1216324315  -0.1255808981   1.6119359139
	    H    -1.2357077246  -1.4941308549   0.0550511343
	    H    -1.4070040878  -0.2320374411   1.2834805087
	    H     2.7629066521   0.1525601019  -0.9694248249
	    H     3.4289410945  -0.0439023872   0.6536035763
	    H     2.5479650831   1.4271812709   0.2328191894
	    H    -2.2447383400   0.9895650397  -0.8142120806
			--------------------------
			 OPTKING Finished Execution 
			--------------------------

    Structure for next step:
    Molecular point group: c1
    Full point group: C1

    Geometry (in Angstrom), charge = 0, multiplicity = 1:

    O           -2.394410958213     0.077452648708    -0.530798360019
    C            0.055112961455     0.219050386284    -0.229600812441
    C            1.269139723268    -0.304116167381     0.542457089224
    C           -1.256348167308    -0.416316645141     0.214206313981
    C            2.579206073714     0.345086835727     0.090092316301
    H           -0.013350967744     1.306348505601    -0.093981416965
    H            0.187357272378     0.037829164577    -1.300524714142
    H            1.335477560249    -1.389220844506     0.415953814170
    H            1.121470747108    -0.125131838685     1.612092535432
    H           -1.235869418266    -1.493681800806     0.055207749681
    H           -1.407165782113    -0.231588382072     1.283637128872
    H            2.762744974201     0.153009162468    -0.969268213533
    H            3.428779419152    -0.043453327457     0.653760194086
    H            2.547803404317     1.427630336468     0.232975805494
    H           -2.244900037599     0.990014103533    -0.814055468597

gradient() will perform analytic gradient computation.

*** tstart() called on daniele-Precision-5750
*** at Thu May 27 11:01:45 2021

   => Loading Basis Set <=

    Name: 6-311G
    Role: ORBITAL
    Keyword: BASIS
    atoms 1    entry O          line   126 file /home/daniele/anaconda3/envs/poltype/share/psi4/basis/6-311g.gbs 
    atoms 2-5  entry C          line    92 file /home/daniele/anaconda3/envs/poltype/share/psi4/basis/6-311g.gbs 
    atoms 6-15 entry H          line    21 file /home/daniele/anaconda3/envs/poltype/share/psi4/basis/6-311g.gbs 


         ---------------------------------------------------------
                                   SCF
               by Justin Turney, Rob Parrish, Andy Simmonett
                          and Daniel G. A. Smith
                              RKS Reference
                        8 Threads,    667 MiB Core
         ---------------------------------------------------------

  ==> Geometry <==

    Molecular point group: c1
    Full point group: C1

    Geometry (in Angstrom), charge = 0, multiplicity = 1:

       Center              X                  Y                   Z               Mass       
    ------------   -----------------  -----------------  -----------------  -----------------
         O           -2.394410958213     0.077452648708    -0.530798360019    15.994914619570
         C            0.055112961455     0.219050386284    -0.229600812441    12.000000000000
         C            1.269139723268    -0.304116167381     0.542457089224    12.000000000000
         C           -1.256348167308    -0.416316645141     0.214206313981    12.000000000000
         C            2.579206073714     0.345086835727     0.090092316301    12.000000000000
         H           -0.013350967744     1.306348505601    -0.093981416965     1.007825032230
         H            0.187357272378     0.037829164577    -1.300524714142     1.007825032230
         H            1.335477560249    -1.389220844506     0.415953814170     1.007825032230
         H            1.121470747108    -0.125131838685     1.612092535432     1.007825032230
         H           -1.235869418266    -1.493681800806     0.055207749681     1.007825032230
         H           -1.407165782113    -0.231588382072     1.283637128872     1.007825032230
         H            2.762744974201     0.153009162468    -0.969268213533     1.007825032230
         H            3.428779419152    -0.043453327457     0.653760194086     1.007825032230
         H            2.547803404317     1.427630336468     0.232975805494     1.007825032230
         H           -2.244900037599     0.990014103533    -0.814055468597     1.007825032230

  Running in c1 symmetry.

  Rotational constants: A =      0.61177  B =      0.06523  C =      0.06172 [cm^-1]
  Rotational constants: A =  18340.40549  B =   1955.42306  C =   1850.36059 [MHz]
  Nuclear repulsion =  184.315309069319170

  Charge       = 0
  Multiplicity = 1
  Electrons    = 42
  Nalpha       = 21
  Nbeta        = 21

  ==> Algorithm <==

  SCF Algorithm Type is DF.
  DIIS enabled.
  MOM disabled.
  Fractional occupation disabled.
  Guess Type is READ.
  Energy threshold   = 1.00e-08
  Density threshold  = 1.00e-08
  Integral threshold = 0.00e+00

  ==> Primary Basis <==

  Basis Set: 6-311G
    Blend: 6-311G
    Number of shells: 65
    Number of basis function: 95
    Number of Cartesian functions: 95
    Spherical Harmonics?: true
    Max angular momentum: 1

  ==> DFT Potential <==

   => Composite Functional: WB97X-D <= 

    wB97X-D Hyb-GGA Exchange-Correlation Functional

    J.-D. Chai and M. Head-Gordon, Phys. Chem. Chem. Phys. 10, 6615 (2008)

    Deriv               =              1
    GGA                 =           TRUE
    Meta                =          FALSE

    Exchange Hybrid     =           TRUE
    MP2 Hybrid          =          FALSE

   => Exchange-Correlation Functionals <=

    1.0000   wB97D range-separated functional

   => Exact (HF) Exchange <=

    0.7780            HF,LR [omega = 0.2000]
    0.2220               HF 

   => Molecular Quadrature <=

    Radial Scheme          =       TREUTLER
    Pruning Scheme         =           FLAT
    Nuclear Scheme         =       TREUTLER

    BS radius alpha        =              1
    Pruning alpha          =              1
    Radial Points          =             75
    Spherical Points       =            302
    Total Points           =         336032
    Total Blocks           =           2569
    Max Points             =            256
    Max Functions          =             89

   => WB97X-D: Empirical Dispersion <=

    Chai and Head-Gordon Dispersion Correction
    Chai, J.-D.; Head-Gordon, M. (2010), J. Chem. Phys., 132: 6615-6620

        s6 =       1.000000

   => Loading Basis Set <=

    Name: (6-311G AUX)
    Role: JKFIT
    Keyword: DF_BASIS_SCF
    atoms 1    entry O          line   229 file /home/daniele/anaconda3/envs/poltype/share/psi4/basis/cc-pvtz-jkfit.gbs 
    atoms 2-5  entry C          line   125 file /home/daniele/anaconda3/envs/poltype/share/psi4/basis/cc-pvtz-jkfit.gbs 
    atoms 6-15 entry H          line    51 file /home/daniele/anaconda3/envs/poltype/share/psi4/basis/cc-pvtz-jkfit.gbs 

   => Loading Basis Set <=

    Name: 6-311G
    Role: ORBITAL
    Keyword: BASIS
    atoms 1    entry O          line   126 file /home/daniele/anaconda3/envs/poltype/share/psi4/basis/6-311g.gbs 
    atoms 2-5  entry C          line    92 file /home/daniele/anaconda3/envs/poltype/share/psi4/basis/6-311g.gbs 
    atoms 6-15 entry H          line    21 file /home/daniele/anaconda3/envs/poltype/share/psi4/basis/6-311g.gbs 

  Reading orbitals from file 180, no projection.

  ==> Pre-Iterations <==

   -------------------------------------------------------
    Irrep   Nso     Nmo     Nalpha   Nbeta   Ndocc  Nsocc
   -------------------------------------------------------
     A         95      95       0       0       0       0
   -------------------------------------------------------
    Total      95      95      21      21      21       0
   -------------------------------------------------------

  ==> Integral Setup <==

  ==> DiskDFJK: Density-Fitted J/K Matrices <==

    J tasked:                  Yes
    K tasked:                  Yes
    wK tasked:                 Yes
    Omega:               2.000E-01
    OpenMP threads:              8
    Integrals threads:           8
    Memory [MiB]:               34
    Algorithm:                Disk
    Integral Cache:           NONE
    Schwarz Cutoff:          1E-12
    Fitting Condition:       1E-10

   => Auxiliary Basis Set <=

  Basis Set: (6-311G AUX)
    Blend: CC-PVTZ-JKFIT
    Number of shells: 225
    Number of basis function: 695
    Number of Cartesian functions: 830
    Spherical Harmonics?: true
    Max angular momentum: 4

  Cached 100.0% of DFT collocation blocks in 0.666 [GiB].

  Minimum eigenvalue in the overlap matrix is 2.3027178496E-03.
  Using Symmetric Orthogonalization.

  SCF Guess: Orbitals guess was supplied from a previous computation.

  ==> Iterations <==

                           Total Energy        Delta E     RMS |[F,P]|

   @DF-RKS iter   0:  -233.58081835045263   -2.33581e+02   1.90945e-04 
   @DF-RKS iter   1:  -233.58158172433130   -7.63374e-04   3.84612e-05 DIIS
   @DF-RKS iter   2:  -233.58158443609736   -2.71177e-06   3.92626e-05 DIIS
   @DF-RKS iter   3:  -233.58158922016787   -4.78407e-06   4.42502e-06 DIIS
   @DF-RKS iter   4:  -233.58158932272545   -1.02558e-07   1.30362e-06 DIIS
   @DF-RKS iter   5:  -233.58158933315789   -1.04324e-08   5.28941e-07 DIIS
   @DF-RKS iter   6:  -233.58158933463670   -1.47881e-09   5.76147e-08 DIIS
   @DF-RKS iter   7:  -233.58158933467516   -3.84546e-11   2.28930e-08 DIIS
   @DF-RKS iter   8:  -233.58158933467962   -4.46221e-12   7.60572e-09 DIIS
  Energy and wave function converged.


  ==> Post-Iterations <==

    Orbital Energies [Eh]
    ---------------------

    Doubly Occupied:                                                      

       1A    -19.232547     2A    -10.328897     3A    -10.289009  
       4A    -10.288003     5A    -10.276295     6A     -1.117930  
       7A     -0.907086     8A     -0.826394     9A     -0.736878  
      10A     -0.692315    11A     -0.589072    12A     -0.569981  
      13A     -0.533128    14A     -0.524531    15A     -0.477342  
      16A     -0.469721    17A     -0.457242    18A     -0.428076  
      19A     -0.418191    20A     -0.392243    21A     -0.348657  

    Virtual:                                                              

      22A      0.117045    23A      0.123557    24A      0.144363  
      25A      0.149502    26A      0.169705    27A      0.194451  
      28A      0.207055    29A      0.215183    30A      0.218551  
      31A      0.236847    32A      0.253909    33A      0.297423  
      34A      0.305521    35A      0.318981    36A      0.377970  
      37A      0.392226    38A      0.407959    39A      0.446904  
      40A      0.462139    41A      0.465405    42A      0.491606  
      43A      0.524712    44A      0.599949    45A      0.610159  
      46A      0.649108    47A      0.654751    48A      0.666416  
      49A      0.669363    50A      0.676669    51A      0.685659  
      52A      0.698578    53A      0.706157    54A      0.712720  
      55A      0.718478    56A      0.720909    57A      0.740546  
      58A      0.845751    59A      0.994505    60A      1.013262  
      61A      1.063896    62A      1.066578    63A      1.108196  
      64A      1.129346    65A      1.595126    66A      2.272005  
      67A      2.339790    68A      2.344456    69A      2.347164  
      70A      2.356501    71A      2.363182    72A      2.378155  
      73A      2.383285    74A      2.407376    75A      2.430136  
      76A      2.859494    77A      2.907621    78A      2.914037  
      79A      2.926319    80A      2.949446    81A      2.958934  
      82A      2.982902    83A      3.063699    84A      3.079741  
      85A      3.161498    86A      3.171589    87A      3.306803  
      88A      4.957752    89A      5.014364    90A      5.165575  
      91A     23.422573    92A     23.568692    93A     23.639053  
      94A     23.720311    95A     49.970829  

    Final Occupation by Irrep:
              A 
    DOCC [    21 ]

  @DF-RKS Final Energy:  -233.58158933467962

   => Energetics <=

    Nuclear Repulsion Energy =            184.3153090693191700
[...]
    Fitting Condition:       1E-10

   => Auxiliary Basis Set <=

  Basis Set: (6-311G AUX)
    Blend: CC-PVTZ-JKFIT
    Number of shells: 225
    Number of basis function: 695
    Number of Cartesian functions: 830
    Spherical Harmonics?: true
    Max angular momentum: 4

  ==> DFT Potential <==

   => Composite Functional: WB97X-D <= 

    wB97X-D Hyb-GGA Exchange-Correlation Functional

    J.-D. Chai and M. Head-Gordon, Phys. Chem. Chem. Phys. 10, 6615 (2008)

    Deriv               =              1
    GGA                 =           TRUE
    Meta                =          FALSE

    Exchange Hybrid     =           TRUE
    MP2 Hybrid          =          FALSE

   => Exchange-Correlation Functionals <=

    1.0000   wB97D range-separated functional

   => Exact (HF) Exchange <=

    0.7780            HF,LR [omega = 0.2000]
    0.2220               HF 

   => Molecular Quadrature <=

    Radial Scheme          =       TREUTLER
    Pruning Scheme         =           FLAT
    Nuclear Scheme         =       TREUTLER

    BS radius alpha        =              1
    Pruning alpha          =              1
    Radial Points          =             75
    Spherical Points       =            302
    Total Points           =         336032
    Total Blocks           =           2569
    Max Points             =            256
    Max Functions          =             89


  -Total Gradient:
     Atom            X                  Y                   Z
    ------   -----------------  -----------------  -----------------
       1       -0.000184450834     0.001700059979     0.003068645799
       2        0.000933700117     0.000612323189     0.001311434894
       3       -0.000574244558     0.000196287090    -0.000055524134
       4       -0.000552088958    -0.001806373492    -0.002814083364
       5        0.000083097816     0.000267250978    -0.000177914200
       6       -0.000122471704     0.000096220748     0.000056716126
       7       -0.000329075947    -0.000212659279     0.000227523893
       8        0.000020018823     0.000095156720     0.000060923701
       9       -0.000002600048     0.000062635518    -0.000174259734
      10        0.000221329875    -0.000086503257     0.000176914339
      11        0.000230708263     0.000192221524    -0.000018471333
      12       -0.000054928719    -0.000076903324     0.000220187413
      13       -0.000054524433    -0.000006828553     0.000014978862
      14       -0.000048237704    -0.000189360017    -0.000043247208
      15        0.000401603288    -0.000769182730    -0.001822502975


*** tstop() called on daniele-Precision-5750 at Thu May 27 11:01:50 2021
Module time:
	user time   =      12.86 seconds =       0.21 minutes
	system time =       0.13 seconds =       0.00 minutes
	total time  =          2 seconds =       0.03 minutes
Total time:
	user time   =     122.33 seconds =       2.04 minutes
	system time =       1.98 seconds =       0.03 minutes
	total time  =         17 seconds =       0.28 minutes

			-----------------------------------------
			 OPTKING 2.0: for geometry optimizations 
			  - R.A. King,  Bethel University        
			-----------------------------------------
	At level 1: Red. Int., RFO, no backsteps, dynamic trust

	Previous internal coordinate definitions found.
	---Fragment 1 Geometry and Gradient---
	 O          -4.5247809428        0.1463642937       -1.0030635283
	 C           0.1041484031        0.4139452378       -0.4338826537
	 C           2.3983264919       -0.5746962667        1.0250953334
	 C          -2.3741539544       -0.7867244408        0.4047912678
	 C           4.8739931004        0.6521196090        0.1702498038
	 H          -0.0252296725        2.4686409000       -0.1775991389
	 H           0.3540539324        0.0714867606       -2.4576355291
	 H           2.5236868356       -2.6252469239        0.7860387896
	 H           2.1192725697       -0.2364649047        3.0464133809
	 H          -2.3354547274       -2.8226495221        0.1043275269
	 H          -2.6591579413       -0.4376386160        2.4257226180
	 H           5.2208313557        0.2891454118       -1.8316514657
	 H           6.4794540468       -0.0821148881        1.2354277185
	 H           4.8146506557        2.6978303443        0.4402604662
	 H          -4.2422462501        1.8708555160       -1.5383418866
	            -0.0001844508        0.0017000600        0.0030686458
	             0.0009337001        0.0006123232        0.0013114349
	            -0.0005742446        0.0001962871       -0.0000555241
	            -0.0005520890       -0.0018063735       -0.0028140834
	             0.0000830978        0.0002672510       -0.0001779142
	            -0.0001224717        0.0000962207        0.0000567161
	            -0.0003290759       -0.0002126593        0.0002275239
	             0.0000200188        0.0000951567        0.0000609237
	            -0.0000026000        0.0000626355       -0.0001742597
	             0.0002213299       -0.0000865033        0.0001769143
	             0.0002307083        0.0001922215       -0.0000184713
	            -0.0000549287       -0.0000769033        0.0002201874
	            -0.0000545244       -0.0000068286        0.0000149789
	            -0.0000482377       -0.0001893600       -0.0000432472
	             0.0004016033       -0.0007691827       -0.0018225030

	---Fragment 1 Intrafragment Coordinates---
	 - Coordinate -           - BOHR/RAD -       - ANG/DEG -
	 R(1,4)           =         2.734576	       1.447075
	 R(1,15)          =         1.827627	       0.967138
	 R(2,3)           =         2.892971	       1.530894
	 R(2,4)           =         2.878709	       1.523347
	 R(2,6)           =         2.074655	       1.097860
	 R(2,7)           =         2.067681	       1.094170
	 R(3,5)           =         2.892190	       1.530481
	 R(3,8)           =         2.068241	       1.094466
	 R(3,9)           =         2.068332	       1.094514
	 R(4,10)          =         2.058341	       1.089227
	 R(4,11)          =         2.070568	       1.095697
	 R(5,12)          =         2.063893	       1.092165
	 R(5,13)          =         2.061846	       1.091082
	 R(5,14)          =         2.064306	       1.092384
	 B(1,4,2)         =         1.965743	     112.628781
	 B(1,4,10)        =         1.851609	     106.089394
	 B(1,4,11)        =         1.914220	     109.676752
	 B(2,3,5)         =         1.965776	     112.630642
	 B(2,3,8)         =         1.905608	     109.183291
	 B(2,3,9)         =         1.907077	     109.267489
	 B(2,4,10)        =         1.932460	     110.721781
	 B(2,4,11)        =         1.909786	     109.422673
	 B(3,2,4)         =         1.974964	     113.157129
	 B(3,2,6)         =         1.902449	     109.002307
	 B(3,2,7)         =         1.918944	     109.947392
	 B(3,5,12)        =         1.934717	     110.851094
	 B(3,5,13)        =         1.942029	     111.270043
	 B(3,5,14)        =         1.935951	     110.921827
	 B(4,1,15)        =         1.929617	     110.558883
	 B(4,2,6)         =         1.900114	     108.868501
	 B(4,2,7)         =         1.896652	     108.670138
	 B(5,3,8)         =         1.911879	     109.542615
	 B(5,3,9)         =         1.912373	     109.570894
	 B(6,2,7)         =         1.867610	     107.006149
	 B(8,3,9)         =         1.857993	     106.455144
	 B(10,4,11)       =         1.887905	     108.168977
	 B(12,5,13)       =         1.883483	     107.915606
	 B(12,5,14)       =         1.881771	     107.817514
	 B(13,5,14)       =         1.883580	     107.921188
	*D(1,4,2,3)       =        -3.132584	    -179.483819
	 D(1,4,2,6)       =         1.032454	      59.155267
	 D(1,4,2,7)       =        -0.995872	     -57.059267
	*D(2,3,5,12)      =        -1.045207	     -59.885947
	 D(2,3,5,13)      =        -3.141344	    -179.985729
	 D(2,3,5,14)      =         1.044753	      59.859936
	*D(2,4,1,15)      =        -0.526750	     -30.180575
	 D(3,2,4,10)      =        -1.062599	     -60.882431
	 D(3,2,4,11)      =         1.016729	      58.254262
	*D(4,2,3,5)       =        -3.138505	    -179.823100
	 D(4,2,3,8)       =         1.016747	      58.255305
	 D(4,2,3,9)       =        -1.008901	     -57.805761
	 D(5,3,2,6)       =        -1.021674	     -58.537617
	 D(5,3,2,7)       =         1.020436	      58.466658
	 D(6,2,3,8)       =         3.133578	     179.540789
	 D(6,2,3,9)       =         1.107930	      63.479722
	 D(6,2,4,10)      =         3.102439	     177.756655
	 D(6,2,4,11)      =        -1.101419	     -63.106652
	 D(7,2,3,8)       =        -1.107498	     -63.454936
	 D(7,2,3,9)       =        -3.133145	    -179.516003
	 D(7,2,4,10)      =         1.074113	      61.542121
	 D(7,2,4,11)      =        -3.129745	    -179.321186
	 D(8,3,5,12)      =         1.079174	      61.832140
	 D(8,3,5,13)      =        -1.016962	     -58.267642
	 D(8,3,5,14)      =        -3.114051	    -178.421977
	 D(9,3,5,12)      =         3.111370	     178.268342
	 D(9,3,5,13)      =         1.015233	      58.168560
	 D(9,3,5,14)      =        -1.081856	     -61.985775
	 D(10,4,1,15)     =        -2.643464	    -151.459337
	 D(11,4,1,15)     =         1.604621	      91.938020

	Current energy   :      -233.5815893347

	Energy change for the previous step:
		Projected    :        -0.0002719585
		Actual       :        -0.0000791510

	Performing BFGS update.
	Previous computed or guess Hessian on step 1.
	Steps to be used in Hessian update: 2 1
	Taking RFO optimization step.
	Going to follow RFO solution 1.
	Using RFO vector 1.
	Norm of target step-size    0.01250
	Projected energy change by RFO approximation:        -0.0000130246

	Back-transformation to cartesian coordinates...
	Successfully converged to displaced geometry.

	Back-transformation to cartesian coordinates to adjust frozen coordinates...
	Successfully converged to displaced geometry.

	--- Internal Coordinate Step in ANG or DEG, aJ/ANG or AJ/DEG ---
	 ---------------------------------------------------------------------------
	   Coordinate                Previous        Force       Change         New 
	   ----------                --------       ------       ------       ------
	    1 R(1,4)          =      1.447075     0.004218     0.001116     1.448191
	    2 R(1,15)         =      0.967138     0.001132     0.000154     0.967292
	    3 R(2,3)          =      1.530894     0.005809     0.001497     1.532391
	    4 R(2,4)          =      1.523347     0.001417    -0.000125     1.523223
	    5 R(2,6)          =      1.097860    -0.000915    -0.000120     1.097740
	    6 R(2,7)          =      1.094170     0.001906     0.000325     1.094495
	    7 R(3,5)          =      1.530481     0.000451     0.000125     1.530606
	    8 R(3,8)          =      1.094466     0.000709     0.000109     1.094575
	    9 R(3,9)          =      1.094514     0.001451     0.000229     1.094743
	   10 R(4,10)         =      1.089227    -0.000673    -0.000114     1.089113
	   11 R(4,11)         =      1.095697     0.000222    -0.000018     1.095680
	   12 R(5,12)         =      1.092165     0.001704     0.000298     1.092463
	   13 R(5,13)         =      1.091082     0.000293     0.000009     1.091091
	   14 R(5,14)         =      1.092384     0.001539     0.000269     1.092652
	   15 B(1,4,2)        =    112.628781    -0.000017    -0.059862   112.568919
	   16 B(1,4,10)       =    106.089394    -0.000009    -0.168243   105.921152
	   17 B(1,4,11)       =    109.676752    -0.000005    -0.048336   109.628416
	   18 B(2,3,5)        =    112.630642     0.000009     0.040334   112.670976
	   19 B(2,3,8)        =    109.183291    -0.000005    -0.031903   109.151388
	   20 B(2,3,9)        =    109.267489    -0.000001     0.019214   109.286704
	   21 B(2,4,10)       =    110.721781     0.000014     0.057004   110.778786
	   22 B(2,4,11)       =    109.422673     0.000024     0.188348   109.611021
	   23 B(3,2,4)        =    113.157129    -0.000019    -0.076699   113.080430
	   24 B(3,2,6)        =    109.002307    -0.000001    -0.047519   108.954788
	   25 B(3,2,7)        =    109.947392    -0.000004    -0.058615   109.888777
	   26 B(3,5,12)       =    110.851094     0.000005     0.022372   110.873466
	   27 B(3,5,13)       =    111.270043     0.000001     0.037899   111.307942
	   28 B(3,5,14)       =    110.921827     0.000005     0.021095   110.942922
	   29 B(4,1,15)       =    110.558883    -0.000059    -0.218338   110.340545
	   30 B(4,2,6)        =    108.868501     0.000011     0.060663   108.929164
	   31 B(4,2,7)        =    108.670138     0.000023     0.229351   108.899488
	   32 B(5,3,8)        =    109.542615    -0.000004    -0.010493   109.532122
	   33 B(5,3,9)        =    109.570894    -0.000000     0.014547   109.585441
	   34 B(6,2,7)        =    107.006149    -0.000009    -0.109129   106.897020
	   35 B(8,3,9)        =    106.455144     0.000000    -0.036195   106.418950
	   36 B(10,4,11)      =    108.168977    -0.000008     0.022026   108.191003
	   37 B(12,5,13)      =    107.915606    -0.000005    -0.027859   107.887747
	   38 B(12,5,14)      =    107.817514    -0.000003    -0.027082   107.790432
	   39 B(13,5,14)      =    107.921188    -0.000004    -0.030992   107.890196
	   40 *D(1,4,2,3)     =   -179.483819    -0.000000     0.000000  -179.483819
	   41 D(1,4,2,6)      =     59.155267     0.000001     0.068168    59.223435
	   42 D(1,4,2,7)      =    -57.059267    -0.000000     0.038889   -57.020378
	   43 *D(2,3,5,12)    =    -59.885947     0.000000     0.000000   -59.885947
	   44 D(2,3,5,13)     =   -179.985729     0.000000    -0.005082  -179.990811
	   45 D(2,3,5,14)     =     59.859936     0.000001    -0.005430    59.854506
	   46 *D(2,4,1,15)    =    -30.180575    -0.000000     0.000000   -30.180575
	   47 D(3,2,4,10)     =    -60.882431    -0.000003    -0.213752   -61.096183
	   48 D(3,2,4,11)     =     58.254262     0.000000    -0.032186    58.222076
	   49 *D(4,2,3,5)     =   -179.823100    -0.000000     0.000000  -179.823100
	   50 D(4,2,3,8)      =     58.255305     0.000000     0.008955    58.264261
	   51 D(4,2,3,9)      =    -57.805761     0.000001     0.059408   -57.746354
	   52 D(5,3,2,6)      =    -58.537617     0.000000    -0.007210   -58.544827
	   53 D(5,3,2,7)      =     58.466658    -0.000003    -0.199864    58.266794
	   54 D(6,2,3,8)      =    179.540789     0.000001     0.001746   179.542535
	   55 D(6,2,3,9)      =     63.479722     0.000001     0.052198    63.531920
	   56 D(6,2,4,10)     =    177.756655    -0.000002    -0.145583   177.611071
	   57 D(6,2,4,11)     =    -63.106652     0.000002     0.035982   -63.070670
	   58 D(7,2,3,8)      =    -63.454936    -0.000003    -0.190909   -63.645845
	   59 D(7,2,3,9)      =   -179.516003    -0.000002    -0.140456  -179.656459
	   60 D(7,2,4,10)     =     61.542121    -0.000003    -0.174863    61.367258
	   61 D(7,2,4,11)     =   -179.321186    -0.000000     0.006702  -179.314483
	   62 D(8,3,5,12)     =     61.832140    -0.000001    -0.020952    61.811188
	   63 D(8,3,5,13)     =    -58.267642    -0.000000    -0.026034   -58.293675
	   64 D(8,3,5,14)     =   -178.421977     0.000000    -0.026382  -178.448359
	   65 D(9,3,5,12)     =    178.268342    -0.000001    -0.062289   178.206053
	   66 D(9,3,5,13)     =     58.168560    -0.000001    -0.067371    58.101189
	   67 D(9,3,5,14)     =    -61.985775    -0.000000    -0.067719   -62.053494
	   68 D(10,4,1,15)    =   -151.459337    -0.000000     0.076121  -151.383216
	   69 D(11,4,1,15)    =     91.938020     0.000003     0.165698    92.103718
	 ---------------------------------------------------------------------------
	Successfully symmetrized geometry.

  ==> Convergence Check <==

  Measures of convergence in internal coordinates in au.
  Criteria marked as inactive (o), active & met (*), and active & unmet ( ).
  ---------------------------------------------------------------------------------------------
   Step     Total Energy     Delta E     MAX Force     RMS Force      MAX Disp      RMS Disp   
  ---------------------------------------------------------------------------------------------
    Convergence Criteria             o    2.50e-03 *    1.70e-03 *    1.00e-02 *    6.70e-03 *
  ---------------------------------------------------------------------------------------------
      3    -233.58158933   -7.92e-05 o    7.76e-04 *    1.81e-04 *    4.00e-03 *    1.50e-03 *  ~
  ---------------------------------------------------------------------------------------------


  **** Optimization is complete! (in 3 steps) ****

  ==> Optimization Summary <==

  Measures of convergence in internal coordinates in au.
  --------------------------------------------------------------------------------------------------------------- ~
   Step         Total Energy             Delta E       MAX Force       RMS Force        MAX Disp        RMS Disp  ~
  --------------------------------------------------------------------------------------------------------------- ~
      1    -233.579717733079   -233.579717733079      0.01236274      0.00340048      0.07958898      0.02157381  ~
      2    -233.581510183668     -0.001792450588      0.00373946      0.00069944      0.01573671      0.00534557  ~
      3    -233.581589334680     -0.000079151012      0.00077613      0.00018097      0.00400292      0.00150446  ~
  --------------------------------------------------------------------------------------------------------------- ~

	Writing optimization data to binary file.
	Final energy is   -233.5815893346796
	Final (previous) structure:
	Cartesian Geometry (in Angstrom)
	    O    -2.3944109488   0.0774526484  -0.5307983579
	    C     0.0551129612   0.2190503854  -0.2296008115
	    C     1.2691397183  -0.3041161662   0.5424570871
	    C    -1.2563481624  -0.4163166435   0.2142063131
	    C     2.5792060636   0.3450868344   0.0900923159
	    H    -0.0133509677   1.3063485005  -0.0939814166
	    H     0.1873572716   0.0378291644  -1.3005247090
	    H     1.3354775550  -1.3892208390   0.4159538125
	    H     1.1214707427  -0.1251318382   1.6120925291
	    H    -1.2358694134  -1.4936817949   0.0552077495
	    H    -1.4071657766  -0.2315883812   1.2836371238
	    H     2.7627449633   0.1530091619  -0.9692682097
	    H     3.4287794057  -0.0434533273   0.6537601915
	    H     2.5478033943   1.4276303309   0.2329758046
	    H    -2.2449000288   0.9900140996  -0.8140554654
	Saving final (previous) structure.
			--------------------------
			 OPTKING Finished Execution 
			--------------------------

    Final optimized geometry and variables:
    Molecular point group: c1
    Full point group: C1

    Geometry (in Angstrom), charge = 0, multiplicity = 1:

    O           -2.394410958213     0.077452648708    -0.530798360019
    C            0.055112961455     0.219050386284    -0.229600812441
    C            1.269139723268    -0.304116167381     0.542457089224
    C           -1.256348167308    -0.416316645141     0.214206313981
    C            2.579206073714     0.345086835727     0.090092316301
    H           -0.013350967744     1.306348505601    -0.093981416965
    H            0.187357272378     0.037829164577    -1.300524714142
    H            1.335477560249    -1.389220844506     0.415953814170
    H            1.121470747108    -0.125131838685     1.612092535432
    H           -1.235869418266    -1.493681800806     0.055207749681
    H           -1.407165782113    -0.231588382072     1.283637128872
    H            2.762744974201     0.153009162468    -0.969268213533
    H            3.428779419152    -0.043453327457     0.653760194086
    H            2.547803404317     1.427630336468     0.232975805494
    H           -2.244900037599     0.990014103533    -0.814055468597

	Removing binary optimization data file.
	Cleaning optimization helper files.

    Psi4 stopped on: Thursday, 27 May 2021 11:01AM
    Psi4 wall time for execution: 0:00:16.43

*** Psi4 exiting successfully. Buy a developer a beer!
