
    -----------------------------------------------------------------------
          Psi4: An Open-Source Ab Initio Electronic Structure Package
                               Psi4 1.3.2 release

                         Git: Rev {HEAD} ecbda83 


    R. M. Parrish, L. A. Burns, D. G. A. Smith, A. C. Simmonett,
    A. E. DePrince III, E. G. Hohenstein, U. Bozkaya, A. Yu. Sokolov,
    R. Di Remigio, R. M. Richard, J. F. Gonthier, A. M. James,
    H. R. McAlexander, A. Kumar, M. Saitow, X. Wang, B. P. Pritchard,
    P. Verma, H. F. Schaefer III, K. Patkowski, R. A. King, E. F. Valeev,
    F. A. Evangelista, J. M. Turney, T. D. Crawford, and C. D. Sherrill,
    J. Chem. Theory Comput. 13(7) pp 3185--3197 (2017).
    (doi: 10.1021/acs.jctc.7b00174)


                         Additional Contributions by
    P. Kraus, H. Kruse, M. H. Lechner, M. C. Schieber, R. A. Shaw,
    A. Alenaizan, R. Galvelis, Z. L. Glick, S. Lehtola, and J. P. Misiewicz

    -----------------------------------------------------------------------


    Psi4 started on: Thursday, 27 May 2021 11:24AM

    Process ID: 227369
    Host:       daniele-Precision-5750
    PSIDATADIR: /home/daniele/anaconda3/envs/poltype/share/psi4
    Memory:     500.0 MiB
    Threads:    1
    
  ==> Input File <==

--------------------------------------------------------------------------
molecule { 
0 1
 O   -1.789419    0.498516    0.832412
 C    0.096123   -0.097654   -0.548593
 C    1.121802   -0.137199    0.618055
 C   -1.355423   -0.447108   -0.149195
 C    2.559418    0.219543    0.190880
 H    0.091156    0.901847   -1.003239
 H    0.407322   -0.794498   -1.338281
 H    1.120391   -1.136311    1.073121
 H    0.803610    0.554882    1.409225
 H   -2.002044   -0.417504   -1.035227
 H   -1.403042   -1.471306    0.241126
 H    2.929025   -0.474732   -0.571084
 H    3.241344    0.171726    1.046365
 H    2.608512    1.234070   -0.219073
 H   -2.703697    0.274638    1.088929
}
set optking { 
  frozen_dihedral = ("
    3 2 4 1
    2 4 1 15
    4 2 3 5
    12 5 3 2
  ")
}
set {
  geom_maxiter 400
  g_convergence GAU_LOOSE
  dynamic_level 1
}
memory 700MB
set_num_threads(8)
psi4_io.set_default_path("/home/daniele/PSI4_sctatch/Psi4-1butanol_3D")
for _ in range(1):
  try:
    set opt_coordinates both
    optimize('wb97x-d/6-311G')
    break
  except OptimizationConvergenceError:
    break
  else:
    try:
      set opt_coordinates cartesian
      optimize('wb97x-d/6-311G')
      break
    except OptimizationConvergenceError:
      pass
clean()
--------------------------------------------------------------------------

  Memory set to 667.572 MiB by Python driver.
  Threads set to 8 by Python driver.
gradient() will perform analytic gradient computation.

*** tstart() called on daniele-Precision-5750
*** at Thu May 27 11:24:55 2021

   => Loading Basis Set <=

    Name: 6-311G
    Role: ORBITAL
    Keyword: BASIS
    atoms 1    entry O          line   126 file /home/daniele/anaconda3/envs/poltype/share/psi4/basis/6-311g.gbs 
    atoms 2-5  entry C          line    92 file /home/daniele/anaconda3/envs/poltype/share/psi4/basis/6-311g.gbs 
    atoms 6-15 entry H          line    21 file /home/daniele/anaconda3/envs/poltype/share/psi4/basis/6-311g.gbs 


         ---------------------------------------------------------
                                   SCF
               by Justin Turney, Rob Parrish, Andy Simmonett
                          and Daniel G. A. Smith
                              RKS Reference
                        8 Threads,    667 MiB Core
         ---------------------------------------------------------

  ==> Geometry <==

    Molecular point group: c1
    Full point group: C1

    Geometry (in Angstrom), charge = 0, multiplicity = 1:

       Center              X                  Y                   Z               Mass       
    ------------   -----------------  -----------------  -----------------  -----------------
         O           -1.864667066691     0.481526556872     0.625246574805    15.994914619570
         C            0.020874933309    -0.114643443128    -0.755758425195    12.000000000000
         C            1.046553933309    -0.154188443128     0.410889574805    12.000000000000
         C           -1.430671066691    -0.464097443128    -0.356360425195    12.000000000000
         C            2.484169933309     0.202553556872    -0.016285425195    12.000000000000
         H            0.015907933309     0.884857556872    -1.210404425195     1.007825032230
         H            0.332073933309    -0.811487443128    -1.545446425195     1.007825032230
         H            1.045142933309    -1.153300443128     0.865955574805     1.007825032230
         H            0.728361933309     0.537892556872     1.202059574805     1.007825032230
         H           -2.077292066691    -0.434493443128    -1.242392425195     1.007825032230
         H           -1.478290066691    -1.488295443128     0.033960574805     1.007825032230
         H            2.853776933309    -0.491721443128    -0.778249425195     1.007825032230
         H            3.166095933309     0.154736556872     0.839199574805     1.007825032230
         H            2.533263933309     1.217080556872    -0.426238425195     1.007825032230
         H           -2.778945066691     0.257648556872     0.881763574805     1.007825032230

  Running in c1 symmetry.

  Rotational constants: A =      0.41255  B =      0.07685  C =      0.07065 [cm^-1]
  Rotational constants: A =  12368.02722  B =   2304.05109  C =   2118.14977 [MHz]
  Nuclear repulsion =  185.914930741854278

  Charge       = 0
  Multiplicity = 1
  Electrons    = 42
  Nalpha       = 21
  Nbeta        = 21

  ==> Algorithm <==

  SCF Algorithm Type is DF.
  DIIS enabled.
  MOM disabled.
  Fractional occupation disabled.
  Guess Type is SAD.
  Energy threshold   = 1.00e-08
  Density threshold  = 1.00e-08
  Integral threshold = 0.00e+00

  ==> Primary Basis <==

  Basis Set: 6-311G
    Blend: 6-311G
    Number of shells: 65
    Number of basis function: 95
    Number of Cartesian functions: 95
    Spherical Harmonics?: true
    Max angular momentum: 1

  ==> DFT Potential <==

   => Composite Functional: WB97X-D <= 

    wB97X-D Hyb-GGA Exchange-Correlation Functional

    J.-D. Chai and M. Head-Gordon, Phys. Chem. Chem. Phys. 10, 6615 (2008)

    Deriv               =              1
    GGA                 =           TRUE
    Meta                =          FALSE

    Exchange Hybrid     =           TRUE
    MP2 Hybrid          =          FALSE

   => Exchange-Correlation Functionals <=

    1.0000   wB97D range-separated functional

   => Exact (HF) Exchange <=

    0.7780            HF,LR [omega = 0.2000]
    0.2220               HF 

   => Molecular Quadrature <=

    Radial Scheme          =       TREUTLER
    Pruning Scheme         =           FLAT
    Nuclear Scheme         =       TREUTLER

    BS radius alpha        =              1
    Pruning alpha          =              1
    Radial Points          =             75
    Spherical Points       =            302
    Total Points           =         336150
    Total Blocks           =           2536
    Max Points             =            256
    Max Functions          =             91

   => WB97X-D: Empirical Dispersion <=

    Chai and Head-Gordon Dispersion Correction
    Chai, J.-D.; Head-Gordon, M. (2010), J. Chem. Phys., 132: 6615-6620

        s6 =       1.000000

   => Loading Basis Set <=

    Name: (6-311G AUX)
    Role: JKFIT
    Keyword: DF_BASIS_SCF
    atoms 1    entry O          line   229 file /home/daniele/anaconda3/envs/poltype/share/psi4/basis/cc-pvtz-jkfit.gbs 
    atoms 2-5  entry C          line   125 file /home/daniele/anaconda3/envs/poltype/share/psi4/basis/cc-pvtz-jkfit.gbs 
    atoms 6-15 entry H          line    51 file /home/daniele/anaconda3/envs/poltype/share/psi4/basis/cc-pvtz-jkfit.gbs 

  ==> Pre-Iterations <==

   -------------------------------------------------------
    Irrep   Nso     Nmo     Nalpha   Nbeta   Ndocc  Nsocc
   -------------------------------------------------------
     A         95      95       0       0       0       0
   -------------------------------------------------------
    Total      95      95      21      21      21       0
   -------------------------------------------------------

  ==> Integral Setup <==

  ==> DiskDFJK: Density-Fitted J/K Matrices <==

    J tasked:                  Yes
    K tasked:                  Yes
    wK tasked:                 Yes
    Omega:               2.000E-01
    OpenMP threads:              8
    Integrals threads:           8
    Memory [MiB]:               34
    Algorithm:                Disk
    Integral Cache:           NONE
    Schwarz Cutoff:          1E-12
    Fitting Condition:       1E-10

   => Auxiliary Basis Set <=

  Basis Set: (6-311G AUX)
    Blend: CC-PVTZ-JKFIT
    Number of shells: 225
    Number of basis function: 695
    Number of Cartesian functions: 830
    Spherical Harmonics?: true
    Max angular momentum: 4

  Cached 100.0% of DFT collocation blocks in 0.666 [GiB].

  Minimum eigenvalue in the overlap matrix is 2.7350799280E-03.
  Using Symmetric Orthogonalization.

  SCF Guess: Superposition of Atomic Densities via on-the-fly atomic UHF.

  ==> Iterations <==

                           Total Energy        Delta E     RMS |[F,P]|

   @DF-RKS iter SAD:  -232.82895581298501   -2.32829e+02   0.00000e+00 
   @DF-RKS iter   1:  -233.27685405969478   -4.47898e-01   8.30397e-03 DIIS
   @DF-RKS iter   2:  -233.36394478889201   -8.70907e-02   7.56458e-03 DIIS
   @DF-RKS iter   3:  -233.57824871477226   -2.14304e-01   8.97365e-04 DIIS
   @DF-RKS iter   4:  -233.58072478074268   -2.47607e-03   3.25644e-04 DIIS
   @DF-RKS iter   5:  -233.58115578605515   -4.31005e-04   3.40127e-05 DIIS
   @DF-RKS iter   6:  -233.58116249823840   -6.71218e-06   1.64063e-05 DIIS
   @DF-RKS iter   7:  -233.58116371786187   -1.21962e-06   2.04405e-06 DIIS
   @DF-RKS iter   8:  -233.58116375463368   -3.67718e-08   3.40631e-07 DIIS
   @DF-RKS iter   9:  -233.58116375575466   -1.12098e-09   1.05483e-07 DIIS
   @DF-RKS iter  10:  -233.58116375582910   -7.44365e-11   4.02092e-08 DIIS
   @DF-RKS iter  11:  -233.58116375584120   -1.21076e-11   6.67341e-09 DIIS
  Energy and wave function converged.


  ==> Post-Iterations <==

    Orbital Energies [Eh]
    ---------------------

    Doubly Occupied:                                                      

       1A    -19.239486     2A    -10.331721     3A    -10.279666  
       4A    -10.273160     5A    -10.265694     6A     -1.126488  
       7A     -0.885466     8A     -0.818188     9A     -0.724965  
      10A     -0.669375    11A     -0.607908    12A     -0.550790  
      13A     -0.526776    14A     -0.513387    15A     -0.470422  
      16A     -0.458518    17A     -0.437771    18A     -0.411629  
      19A     -0.403966    20A     -0.395040    21A     -0.351416  

    Virtual:                                                              

      22A      0.114324    23A      0.135668    24A      0.151238  
      25A      0.160984    26A      0.181951    27A      0.197411  
      28A      0.204518    29A      0.218928    30A      0.231091  
      31A      0.235586    32A      0.264662    33A      0.289697  
      34A      0.297510    35A      0.322579    36A      0.395960  
      37A      0.400433    38A      0.422520    39A      0.437944  
      40A      0.448813    41A      0.479576    42A      0.503297  
      43A      0.552389    44A      0.580225    45A      0.615323  
      46A      0.632432    47A      0.649993    48A      0.664327  
      49A      0.678162    50A      0.684179    51A      0.685728  
      52A      0.698388    53A      0.705350    54A      0.716057  
      55A      0.727120    56A      0.751470    57A      0.765363  
      58A      0.858841    59A      0.962625    60A      0.981739  
      61A      1.027760    62A      1.080330    63A      1.113073  
      64A      1.279081    65A      1.587158    66A      2.261233  
      67A      2.332683    68A      2.352138    69A      2.353182  
      70A      2.359356    71A      2.367453    72A      2.396332  
      73A      2.399253    74A      2.424713    75A      2.439287  
      76A      2.879684    77A      2.918271    78A      2.934156  
      79A      2.943413    80A      2.959059    81A      2.977345  
      82A      2.988697    83A      3.081184    84A      3.100963  
      85A      3.165029    86A      3.183181    87A      3.299663  
      88A      4.953726    89A      5.020682    90A      5.182082  
      91A     23.439216    92A     23.570830    93A     23.642319  
      94A     23.715882    95A     49.958085  

    Final Occupation by Irrep:
              A 
    DOCC [    21 ]

  @DF-RKS Final Energy:  -233.58116375584120

   => Energetics <=

    Nuclear Repulsion Energy =            185.9149307418542776
    One-Electron Energy =                -683.8088774604826767
    Two-Electron Energy =                 287.5355294194020530
    DFT Exchange-Correlation Energy =     -23.2157949856492678
    Empirical Dispersion Energy =          -0.0069514709655909
    VV10 Nonlocal Energy =                  0.0000000000000000
    Total Energy =                       -233.5811637558412031

Computation Completed


Properties will be evaluated at   0.000000,   0.000000,   0.000000 [a0]

Properties computed using the SCF density matrix

  Nuclear Dipole Moment: [e a0]
     X:     4.0597      Y:    -1.2418      Z:    -1.2905

  Electronic Dipole Moment: [e a0]
     X:    -4.5235      Y:     0.6934      Z:     1.0708

  Dipole Moment: [e a0]
     X:    -0.4637      Y:    -0.5484      Z:    -0.2197     Total:     0.7510

  Dipole Moment: [D]
     X:    -1.1787      Y:    -1.3938      Z:    -0.5584     Total:     1.9089


*** tstop() called on daniele-Precision-5750 at Thu May 27 11:25:00 2021
Module time:
	user time   =      31.85 seconds =       0.53 minutes
	system time =       1.44 seconds =       0.02 minutes
	total time  =          5 seconds =       0.08 minutes
Total time:
	user time   =      31.85 seconds =       0.53 minutes
	system time =       1.44 seconds =       0.02 minutes
	total time  =          5 seconds =       0.08 minutes

*** tstart() called on daniele-Precision-5750
*** at Thu May 27 11:25:00 2021


         ------------------------------------------------------------
                                   SCF GRAD                          
                          Rob Parrish, Justin Turney,                
                       Andy Simmonett, and Alex Sokolov              
         ------------------------------------------------------------

  ==> Geometry <==

    Molecular point group: c1
    Full point group: C1

    Geometry (in Angstrom), charge = 0, multiplicity = 1:

       Center              X                  Y                   Z               Mass       
    ------------   -----------------  -----------------  -----------------  -----------------
         O           -1.864667066691     0.481526556872     0.625246574805    15.994914619570
         C            0.020874933309    -0.114643443128    -0.755758425195    12.000000000000
         C            1.046553933309    -0.154188443128     0.410889574805    12.000000000000
         C           -1.430671066691    -0.464097443128    -0.356360425195    12.000000000000
         C            2.484169933309     0.202553556872    -0.016285425195    12.000000000000
         H            0.015907933309     0.884857556872    -1.210404425195     1.007825032230
         H            0.332073933309    -0.811487443128    -1.545446425195     1.007825032230
         H            1.045142933309    -1.153300443128     0.865955574805     1.007825032230
         H            0.728361933309     0.537892556872     1.202059574805     1.007825032230
         H           -2.077292066691    -0.434493443128    -1.242392425195     1.007825032230
         H           -1.478290066691    -1.488295443128     0.033960574805     1.007825032230
         H            2.853776933309    -0.491721443128    -0.778249425195     1.007825032230
         H            3.166095933309     0.154736556872     0.839199574805     1.007825032230
         H            2.533263933309     1.217080556872    -0.426238425195     1.007825032230
         H           -2.778945066691     0.257648556872     0.881763574805     1.007825032230

  Nuclear repulsion =  185.914930741854278

  ==> Basis Set <==

  Basis Set: 6-311G
    Blend: 6-311G
    Number of shells: 65
    Number of basis function: 95
    Number of Cartesian functions: 95
    Spherical Harmonics?: true
    Max angular momentum: 1

  ==> DFJKGrad: Density-Fitted SCF Gradients <==

    Gradient:                    1
    J tasked:                  Yes
    K tasked:                  Yes
    wK tasked:                 Yes
    Omega:               2.000E-01
    OpenMP threads:              8
    Integrals threads:           8
    Memory [MiB]:              500
    Schwarz Cutoff:          0E+00
    Fitting Condition:       1E-10

   => Auxiliary Basis Set <=

  Basis Set: (6-311G AUX)
    Blend: CC-PVTZ-JKFIT
    Number of shells: 225
    Number of basis function: 695
    Number of Cartesian functions: 830
    Spherical Harmonics?: true
    Max angular momentum: 4

  ==> DFT Potential <==

   => Composite Functional: WB97X-D <= 

    wB97X-D Hyb-GGA Exchange-Correlation Functional

    J.-D. Chai and M. Head-Gordon, Phys. Chem. Chem. Phys. 10, 6615 (2008)

    Deriv               =              1
    GGA                 =           TRUE
    Meta                =          FALSE

    Exchange Hybrid     =           TRUE
    MP2 Hybrid          =          FALSE

   => Exchange-Correlation Functionals <=

    1.0000   wB97D range-separated functional

   => Exact (HF) Exchange <=

    0.7780            HF,LR [omega = 0.2000]
    0.2220               HF 

   => Molecular Quadrature <=

    Radial Scheme          =       TREUTLER
    Pruning Scheme         =           FLAT
    Nuclear Scheme         =       TREUTLER

    BS radius alpha        =              1
    Pruning alpha          =              1
    Radial Points          =             75
    Spherical Points       =            302
    Total Points           =         336150
    Total Blocks           =           2536
    Max Points             =            256
    Max Functions          =             91


  -Total Gradient:
     Atom            X                  Y                   Z
    ------   -----------------  -----------------  -----------------
       1        0.013479180421    -0.001231616283    -0.007056744183
       2        0.003127571910     0.000444964778    -0.004859832421
       3        0.004176197221    -0.002084744072     0.000565615079
       4       -0.018230405886     0.005696249906     0.010436312246
       5        0.004140370676     0.001253381894     0.000636516624
       6       -0.000247869405     0.001637691239    -0.002444665004
       7        0.000160765250    -0.000166904095    -0.001949041588
       8        0.000882465111    -0.000630615743     0.001972982704
       9        0.001405187722     0.002308445028     0.004372064076
      10       -0.001735476957    -0.002221795302     0.000944780179
      11       -0.002400016856     0.000176931238    -0.002012707974
      12        0.000383254367    -0.001217046263    -0.000516215446
      13        0.001566212184    -0.000068880687     0.001645481491
      14        0.000405521865     0.001845704965    -0.000212988478
      15       -0.007168990775    -0.005758357597    -0.001531468913


*** tstop() called on daniele-Precision-5750 at Thu May 27 11:25:02 2021
Module time:
	user time   =      14.87 seconds =       0.25 minutes
	system time =       0.26 seconds =       0.00 minutes
	total time  =          2 seconds =       0.03 minutes
Total time:
	user time   =      46.73 seconds =       0.78 minutes
	system time =       1.70 seconds =       0.03 minutes
	total time  =          7 seconds =       0.12 minutes

			-----------------------------------------
			 OPTKING 2.0: for geometry optimizations 
			  - R.A. King,  Bethel University        
			-----------------------------------------
	At level 1: Red. Int., RFO, no backsteps, dynamic trust

	Internal coordinates to be generated automatically.
	Detected frag 1 with atoms:  1 2 3 4 5 6 7 8 9 10 11 12 13 14 15
	---Fragment 1 Bond Connectivity---
	 1 : 4 15
	 2 : 3 4 6 7
	 3 : 2 5 8 9
	 4 : 1 2 10 11
	 5 : 3 12 13 14
	 6 : 2
	 7 : 2
	 8 : 3
	 9 : 3
	 10 : 4
	 11 : 4
	 12 : 5
	 13 : 5
	 14 : 5
	 15 : 1

	Assuming in current code that numbering for constraints corresponds to unified fragment.
	Frozen dihedral atom list: 
	     3     2     4     1
	     2     4     1    15
	     4     2     3     5
	    12     5     3     2
	---Fragment 1 Geometry and Gradient---
	 O          -3.5237100712        0.9099533146        1.1815447873
	 C           0.0394479068       -0.2166447096       -1.4281764406
	 C           1.9777003095       -0.2913739292        0.7764687642
	 C          -2.7035764917       -0.8770170630       -0.6734236056
	 C           4.6944008231        0.3827707482       -0.0307749935
	 H           0.0300616372        1.6721384425       -2.2873328647
	 H           0.6275287874       -1.5334890218       -2.9204704852
	 H           1.9750339059       -2.1794219779        1.6364188732
	 H           1.3764045742        1.0164696174        2.2715633829
	 H          -3.9255130886       -0.8210736108       -2.3477814240
	 H          -2.7935633600       -2.8124707813        0.0641761854
	 H           5.3928568271       -0.9292188575       -1.4706782709
	 H           5.9830542009        0.2924097141        1.5858573610
	 H           4.7871750375        2.2999489251       -0.8054738878
	 H          -5.2514450937        0.4868852091        1.6662916638
	             0.0134791804       -0.0012316163       -0.0070567442
	             0.0031275719        0.0004449648       -0.0048598324
	             0.0041761972       -0.0020847441        0.0005656151
	            -0.0182304059        0.0056962499        0.0104363122
	             0.0041403707        0.0012533819        0.0006365166
	            -0.0002478694        0.0016376912       -0.0024446650
	             0.0001607653       -0.0001669041       -0.0019490416
	             0.0008824651       -0.0006306157        0.0019729827
	             0.0014051877        0.0023084450        0.0043720641
	            -0.0017354770       -0.0022217953        0.0009447802
	            -0.0024000169        0.0001769312       -0.0020127080
	             0.0003832544       -0.0012170463       -0.0005162154
	             0.0015662122       -0.0000688807        0.0016454815
	             0.0004055219        0.0018457050       -0.0002129885
	            -0.0071689908       -0.0057583576       -0.0015314689

	Previous optimization step data not found.  Starting new optimization.

	---Fragment 1 Intrafragment Coordinates---
	 - Coordinate -           - BOHR/RAD -       - ANG/DEG -
	 R(1,4)           =         2.703107	       1.430423
	 R(1,15)          =         1.843647	       0.975616
	 R(2,3)           =         2.936472	       1.553914
	 R(2,4)           =         2.920604	       1.545517
	 R(2,6)           =         2.075028	       1.098057
	 R(2,7)           =         2.075297	       1.098200
	 R(3,5)           =         2.913173	       1.541585
	 R(3,8)           =         2.074668	       1.097867
	 R(3,9)           =         2.075408	       1.098259
	 R(4,10)          =         2.073580	       1.097291
	 R(4,11)          =         2.073194	       1.097087
	 R(5,12)          =         2.069415	       1.095087
	 R(5,13)          =         2.069370	       1.095064
	 R(5,14)          =         2.069864	       1.095325
	 B(1,4,2)         =         1.888957	     108.229270
	 B(1,4,10)        =         1.936373	     110.946018
	 B(1,4,11)        =         1.938894	     111.090436
	 B(2,3,5)         =         1.984075	     113.679117
	 B(2,3,8)         =         1.910820	     109.481939
	 B(2,3,9)         =         1.910894	     109.486147
	 B(2,4,10)        =         1.916319	     109.796981
	 B(2,4,11)        =         1.921750	     110.108164
	 B(3,2,4)         =         2.004412	     114.844368
	 B(3,2,6)         =         1.914533	     109.694668
	 B(3,2,7)         =         1.914181	     109.674504
	 B(3,5,12)        =         1.939970	     111.152108
	 B(3,5,13)        =         1.932798	     110.741187
	 B(3,5,14)        =         1.938906	     111.091155
	 B(4,1,15)        =         1.889209	     108.243678
	 B(4,2,6)         =         1.884480	     107.972746
	 B(4,2,7)         =         1.884407	     107.968556
	 B(5,3,8)         =         1.903557	     109.065790
	 B(5,3,9)         =         1.900726	     108.903591
	 B(6,2,7)         =         1.855770	     106.327786
	 B(8,3,9)         =         1.848872	     105.932552
	 B(10,4,11)       =         1.861776	     106.671897
	 B(12,5,13)       =         1.881482	     107.800963
	 B(12,5,14)       =         1.887751	     108.160152
	 B(13,5,14)       =         1.880655	     107.753622
	*D(1,4,2,3)       =         1.049070	      60.107300
	 D(1,4,2,6)       =        -1.092906	     -62.618919
	 D(1,4,2,7)       =        -3.092650	    -177.195800
	*D(2,3,5,12)      =        -1.045375	     -59.895581
	 D(2,3,5,13)      =        -3.136348	    -179.699507
	 D(2,3,5,14)      =         1.057602	      60.596139
	*D(2,4,1,15)      =        -3.135290	    -179.638880
	 D(3,2,4,10)      =        -3.118138	    -178.656126
	 D(3,2,4,11)      =        -1.073296	     -61.495322
	*D(4,2,3,5)       =        -3.138591	    -179.828007
	 D(4,2,3,8)       =         1.011086	      57.930947
	 D(4,2,3,9)       =        -1.008689	     -57.793643
	 D(5,3,2,6)       =        -1.012855	     -58.032290
	 D(5,3,2,7)       =         1.019224	      58.397216
	 D(6,2,3,8)       =         3.136822	     179.726664
	 D(6,2,3,9)       =         1.117047	      64.002074
	 D(6,2,4,10)      =         1.023071	      58.617654
	 D(6,2,4,11)      =         3.067913	     175.778458
	 D(7,2,3,8)       =        -1.114285	     -63.843830
	 D(7,2,3,9)       =        -3.134060	    -179.568420
	 D(7,2,4,10)      =        -0.976673	     -55.959226
	 D(7,2,4,11)      =         1.068169	      61.201578
	 D(8,3,5,12)      =         1.092143	      62.575159
	 D(8,3,5,13)      =        -0.998830	     -57.228767
	 D(8,3,5,14)      =        -3.088066	    -176.933121
	 D(9,3,5,12)      =         3.102287	     177.747941
	 D(9,3,5,13)      =         1.011314	      57.944014
	 D(9,3,5,14)      =        -1.077921	     -61.760340
	 D(10,4,1,15)     =         1.044371	      59.838049
	 D(11,4,1,15)     =        -1.023522	     -58.643515

	Current energy   :      -233.5811637558

	Generating empirical Hessian (Schlegel '84) for each fragment.
	Taking RFO optimization step.
	Going to follow RFO solution 1.
	Using RFO vector 1.
	Norm of target step-size    0.14829
	Projected energy change by RFO approximation:        -0.0051279658

	Back-transformation to cartesian coordinates...
	Could not converge backtransformation.
	Using first guess instead.

	Back-transformation to cartesian coordinates to adjust frozen coordinates...
	Successfully converged to displaced geometry.

	--- Internal Coordinate Step in ANG or DEG, aJ/ANG or AJ/DEG ---
	 ---------------------------------------------------------------------------
	   Coordinate                Previous        Force       Change         New 
	   ----------                --------       ------       ------       ------
	    1 R(1,4)          =      1.430423     0.102287     0.015925     1.446348
	    2 R(1,15)         =      0.975616    -0.062855    -0.005509     0.970107
	    3 R(2,3)          =      1.553914    -0.122707    -0.027933     1.525981
	    4 R(2,4)          =      1.545517    -0.131930    -0.029734     1.515783
	    5 R(2,6)          =      1.098057    -0.020641    -0.003740     1.094317
	    6 R(2,7)          =      1.098200    -0.012789    -0.002307     1.095893
	    7 R(3,5)          =      1.541585    -0.049913    -0.011117     1.530468
	    8 R(3,8)          =      1.097867    -0.011469    -0.001971     1.095895
	    9 R(3,9)          =      1.098259    -0.034566    -0.005846     1.092412
	   10 R(4,10)         =      1.097291    -0.001628    -0.000276     1.097015
	   11 R(4,11)         =      1.097087     0.006458     0.001558     1.098645
	   12 R(5,12)         =      1.095087    -0.010434    -0.001908     1.093179
	   13 R(5,13)         =      1.095064    -0.018678    -0.003432     1.091632
	   14 R(5,14)         =      1.095325    -0.014838    -0.002692     1.092633
	   15 B(1,4,2)        =    108.229270    -0.000027    -0.385265   107.844005
	   16 B(1,4,10)       =    110.946018     0.000056     0.297107   111.243125
	   17 B(1,4,11)       =    111.090436     0.000033    -0.064628   111.025808
	   18 B(2,3,5)        =    113.679117    -0.000357    -1.472522   112.206595
	   19 B(2,3,8)        =    109.481939     0.000048    -0.375128   109.106811
	   20 B(2,3,9)        =    109.486147    -0.000047    -0.840525   108.645623
	   21 B(2,4,10)       =    109.796981    -0.000134    -0.804552   108.992429
	   22 B(2,4,11)       =    110.108164    -0.000107    -0.703588   109.404576
	   23 B(3,2,4)        =    114.844368    -0.000466    -1.900487   112.943881
	   24 B(3,2,6)        =    109.694668     0.000095    -0.069854   109.624815
	   25 B(3,2,7)        =    109.674504     0.000100     0.199505   109.874009
	   26 B(3,5,12)       =    111.152108     0.000033     0.131889   111.283997
	   27 B(3,5,13)       =    110.741187    -0.000012     0.021368   110.762555
	   28 B(3,5,14)       =    111.091155    -0.000035    -0.217811   110.873344
	   29 B(4,1,15)       =    108.243678     0.000748     3.462277   111.705955
	   30 B(4,2,6)        =    107.972746     0.000153     0.453124   108.425870
	   31 B(4,2,7)        =    107.968556     0.000165     0.506756   108.475313
	   32 B(5,3,8)        =    109.065790     0.000150     0.642131   109.707921
	   33 B(5,3,9)        =    108.903591     0.000241     1.402209   110.305800
	   34 B(6,2,7)        =    106.327786    -0.000016     1.000376   107.328162
	   35 B(8,3,9)        =    105.932552    -0.000011     0.772467   106.705019
	   36 B(10,4,11)      =    106.671897     0.000177     1.627491   108.299388
	   37 B(12,5,13)      =    107.800963     0.000009     0.148563   107.949526
	   38 B(12,5,14)      =    108.160152    -0.000023    -0.242307   107.917845
	   39 B(13,5,14)      =    107.753622     0.000029     0.163243   107.916865
	   40 *D(1,4,2,3)     =     60.107300     0.000000    -0.000000    60.107300
	   41 D(1,4,2,6)      =    -62.618919     0.000018     1.027481   -61.591439
	   42 D(1,4,2,7)      =   -177.195800    -0.000014    -0.647096  -177.842896
	   43 *D(2,3,5,12)    =    -59.895581    -0.000000    -0.000000   -59.895581
	   44 D(2,3,5,13)     =   -179.699507    -0.000006    -0.288605  -179.988112
	   45 D(2,3,5,14)     =     60.596139    -0.000007    -0.364874    60.231264
	   46 *D(2,4,1,15)    =   -179.638880     0.000000    -0.000000  -179.638880
	   47 D(3,2,4,10)     =   -178.656126    -0.000007    -0.349545  -179.005672
	   48 D(3,2,4,11)     =    -61.495322     0.000010     0.737919   -60.757403
	   49 *D(4,2,3,5)     =   -179.828007    -0.000000    -0.000000  -179.828007
	   50 D(4,2,3,8)      =     57.930947     0.000004     0.445221    58.376169
	   51 D(4,2,3,9)      =    -57.793643     0.000007     0.197155   -57.596488
	   52 D(5,3,2,6)      =    -58.032290    -0.000013    -0.775368   -58.807658
	   53 D(5,3,2,7)      =     58.397216     0.000008     0.513898    58.911114
	   54 D(6,2,3,8)      =    179.726664    -0.000009    -0.330146   179.396518
	   55 D(6,2,3,9)      =     64.002074    -0.000006    -0.578212    63.423862
	   56 D(6,2,4,10)     =     58.617654     0.000011     0.677935    59.295590
	   57 D(6,2,4,11)     =    175.778458     0.000028     1.765400   177.543858
	   58 D(7,2,3,8)      =    -63.843830     0.000013     0.959119   -62.884711
	   59 D(7,2,3,9)      =   -179.568420     0.000015     0.711053  -178.857367
	   60 D(7,2,4,10)     =    -55.959226    -0.000021    -0.996642   -56.955868
	   61 D(7,2,4,11)     =     61.201578    -0.000005     0.090823    61.292400
	   62 D(8,3,5,12)     =     62.575159    -0.000017    -1.018826    61.556333
	   63 D(8,3,5,13)     =    -57.228767    -0.000022    -1.307431   -58.536198
	   64 D(8,3,5,14)     =   -176.933121    -0.000024    -1.383700  -178.316822
	   65 D(9,3,5,12)     =    177.747941     0.000029     1.073491   178.821432
	   66 D(9,3,5,13)     =     57.944014     0.000023     0.784886    58.728901
	   67 D(9,3,5,14)     =    -61.760340     0.000022     0.708617   -61.051723
	   68 D(10,4,1,15)    =     59.838049     0.000034     1.053911    60.891961
	   69 D(11,4,1,15)    =    -58.643515    -0.000030    -1.150074   -59.793589
	 ---------------------------------------------------------------------------
	Successfully symmetrized geometry.

  ==> Convergence Check <==

  Measures of convergence in internal coordinates in au.
  Criteria marked as inactive (o), active & met (*), and active & unmet ( ).
  --------------------------------------------------------------------------------------------- ~
   Step     Total Energy     Delta E     MAX Force     RMS Force      MAX Disp      RMS Disp    ~
  --------------------------------------------------------------------------------------------- ~
    Convergence Criteria             o    2.50e-03 *    1.70e-03 *    1.00e-02 *    6.70e-03 *  ~
  --------------------------------------------------------------------------------------------- ~
      1    -233.58116376   -2.34e+02 o    1.60e-02      3.78e-03      6.04e-02      1.78e-02    ~
  ---------------------------------------------------------------------------------------------

	Writing optimization data to binary file.
	Structure for next step:
	Cartesian Geometry (in Angstrom)
	    O    -1.8142142052   0.4874235360   0.6315967542
	    C     0.0348526217  -0.1181059789  -0.7638929775
	    C     1.0126006475  -0.1626410459   0.4068521941
	    C    -1.3837409730  -0.4706362155  -0.3627552136
	    C     2.4381256958   0.1999360130  -0.0159333037
	    H     0.0313732272   0.8847254415  -1.2018972460
	    H     0.3579309459  -0.8146809263  -1.5458040707
	    H     1.0013635809  -1.1668113559   0.8456033390
	    H     0.6611233232   0.5225304017   1.1816866441
	    H    -2.0252580891  -0.4360402349  -1.2519688367
	    H    -1.4060740916  -1.4928844101   0.0391529936
	    H     2.8137362672  -0.4891809717  -0.7769028857
	    H     3.1169079893   0.1605162986   0.8380924889
	    H     2.4764163967   1.2106043416  -0.4293694853
	    H    -2.7187863550   0.3093134652   0.9334792332
			--------------------------
			 OPTKING Finished Execution 
			--------------------------

    Structure for next step:
    Molecular point group: c1
    Full point group: C1

    Geometry (in Angstrom), charge = 0, multiplicity = 1:

    O           -1.821589403688     0.489357336187     0.633014913438
    C            0.027477430532    -0.116172181047    -0.762474823804
    C            1.005225460163    -0.160707248279     0.408270352371
    C           -1.391116169716    -0.468702419102    -0.361337058312
    C            2.430750514033     0.201869812043    -0.014515147032
    H            0.023998036041     0.886659243273    -1.200479094054
    H            0.350555756001    -0.812747131181    -1.544385920058
    H            0.993988393554    -1.164877562153     0.847021499039
    H            0.653748134492     0.524464202071     1.183104805455
    H           -2.032633288359    -0.434106438289    -1.250550684910
    H           -1.413449288452    -1.490950617698     0.040571150478
    H            2.806361086959    -0.487247175372    -0.775484732072
    H            3.109532810273     0.162450097518     0.839510648896
    H            2.469041215079     1.212538144674    -0.427951330240
    H           -2.726161556996     0.311247264705     0.934897393572

gradient() will perform analytic gradient computation.

*** tstart() called on daniele-Precision-5750
*** at Thu May 27 11:25:02 2021

   => Loading Basis Set <=

    Name: 6-311G
    Role: ORBITAL
    Keyword: BASIS
    atoms 1    entry O          line   126 file /home/daniele/anaconda3/envs/poltype/share/psi4/basis/6-311g.gbs 
    atoms 2-5  entry C          line    92 file /home/daniele/anaconda3/envs/poltype/share/psi4/basis/6-311g.gbs 
    atoms 6-15 entry H          line    21 file /home/daniele/anaconda3/envs/poltype/share/psi4/basis/6-311g.gbs 


         ---------------------------------------------------------
                                   SCF
               by Justin Turney, Rob Parrish, Andy Simmonett
                          and Daniel G. A. Smith
                              RKS Reference
                        8 Threads,    667 MiB Core
         ---------------------------------------------------------

  ==> Geometry <==

    Molecular point group: c1
    Full point group: C1

    Geometry (in Angstrom), charge = 0, multiplicity = 1:

       Center              X                  Y                   Z               Mass       
    ------------   -----------------  -----------------  -----------------  -----------------
         O           -1.821589403688     0.489357336187     0.633014913438    15.994914619570
         C            0.027477430532    -0.116172181047    -0.762474823804    12.000000000000
         C            1.005225460163    -0.160707248279     0.408270352371    12.000000000000
         C           -1.391116169716    -0.468702419102    -0.361337058312    12.000000000000
         C            2.430750514033     0.201869812043    -0.014515147032    12.000000000000
         H            0.023998036041     0.886659243273    -1.200479094054     1.007825032230
         H            0.350555756001    -0.812747131181    -1.544385920058     1.007825032230
         H            0.993988393554    -1.164877562153     0.847021499039     1.007825032230
         H            0.653748134492     0.524464202071     1.183104805455     1.007825032230
         H           -2.032633288359    -0.434106438289    -1.250550684910     1.007825032230
         H           -1.413449288452    -1.490950617698     0.040571150478     1.007825032230
         H            2.806361086959    -0.487247175372    -0.775484732072     1.007825032230
         H            3.109532810273     0.162450097518     0.839510648896     1.007825032230
         H            2.469041215079     1.212538144674    -0.427951330240     1.007825032230
         H           -2.726161556996     0.311247264705     0.934897393572     1.007825032230

  Running in c1 symmetry.

  Rotational constants: A =      0.40762  B =      0.08042  C =      0.07355 [cm^-1]
  Rotational constants: A =  12220.28095  B =   2411.06587  C =   2204.83608 [MHz]
  Nuclear repulsion =  187.974885703188960

  Charge       = 0
  Multiplicity = 1
  Electrons    = 42
  Nalpha       = 21
  Nbeta        = 21

  ==> Algorithm <==

  SCF Algorithm Type is DF.
  DIIS enabled.
  MOM disabled.
  Fractional occupation disabled.
  Guess Type is READ.
  Energy threshold   = 1.00e-08
  Density threshold  = 1.00e-08
  Integral threshold = 0.00e+00

  ==> Primary Basis <==

  Basis Set: 6-311G
    Blend: 6-311G
    Number of shells: 65
    Number of basis function: 95
    Number of Cartesian functions: 95
    Spherical Harmonics?: true
    Max angular momentum: 1

  ==> DFT Potential <==

   => Composite Functional: WB97X-D <= 

    wB97X-D Hyb-GGA Exchange-Correlation Functional

    J.-D. Chai and M. Head-Gordon, Phys. Chem. Chem. Phys. 10, 6615 (2008)

    Deriv               =              1
    GGA                 =           TRUE
    Meta                =          FALSE

    Exchange Hybrid     =           TRUE
    MP2 Hybrid          =          FALSE

   => Exchange-Correlation Functionals <=

    1.0000   wB97D range-separated functional

   => Exact (HF) Exchange <=

    0.7780            HF,LR [omega = 0.2000]
    0.2220               HF 

   => Molecular Quadrature <=

    Radial Scheme          =       TREUTLER
    Pruning Scheme         =           FLAT
    Nuclear Scheme         =       TREUTLER

    BS radius alpha        =              1
    Pruning alpha          =              1
    Radial Points          =             75
    Spherical Points       =            302
    Total Points           =         336145
    Total Blocks           =           2548
    Max Points             =            256
    Max Functions          =             91

   => WB97X-D: Empirical Dispersion <=

    Chai and Head-Gordon Dispersion Correction
    Chai, J.-D.; Head-Gordon, M. (2010), J. Chem. Phys., 132: 6615-6620

        s6 =       1.000000

   => Loading Basis Set <=

    Name: (6-311G AUX)
    Role: JKFIT
    Keyword: DF_BASIS_SCF
    atoms 1    entry O          line   229 file /home/daniele/anaconda3/envs/poltype/share/psi4/basis/cc-pvtz-jkfit.gbs 
    atoms 2-5  entry C          line   125 file /home/daniele/anaconda3/envs/poltype/share/psi4/basis/cc-pvtz-jkfit.gbs 
    atoms 6-15 entry H          line    51 file /home/daniele/anaconda3/envs/poltype/share/psi4/basis/cc-pvtz-jkfit.gbs 

   => Loading Basis Set <=

    Name: 6-311G
    Role: ORBITAL
    Keyword: BASIS
    atoms 1    entry O          line   126 file /home/daniele/anaconda3/envs/poltype/share/psi4/basis/6-311g.gbs 
    atoms 2-5  entry C          line    92 file /home/daniele/anaconda3/envs/poltype/share/psi4/basis/6-311g.gbs 
    atoms 6-15 entry H          line    21 file /home/daniele/anaconda3/envs/poltype/share/psi4/basis/6-311g.gbs 

  Reading orbitals from file 180, no projection.

  ==> Pre-Iterations <==

   -------------------------------------------------------
    Irrep   Nso     Nmo     Nalpha   Nbeta   Ndocc  Nsocc
   -------------------------------------------------------
     A         95      95       0       0       0       0
   -------------------------------------------------------
    Total      95      95      21      21      21       0
   -------------------------------------------------------

  ==> Integral Setup <==

  ==> DiskDFJK: Density-Fitted J/K Matrices <==

    J tasked:                  Yes
    K tasked:                  Yes
    wK tasked:                 Yes
    Omega:               2.000E-01
    OpenMP threads:              8
    Integrals threads:           8
    Memory [MiB]:               34
    Algorithm:                Disk
    Integral Cache:           NONE
    Schwarz Cutoff:          1E-12
    Fitting Condition:       1E-10

   => Auxiliary Basis Set <=

  Basis Set: (6-311G AUX)
    Blend: CC-PVTZ-JKFIT
    Number of shells: 225
    Number of basis function: 695
    Number of Cartesian functions: 830
    Spherical Harmonics?: true
    Max angular momentum: 4

  Cached 100.0% of DFT collocation blocks in 0.671 [GiB].

  Minimum eigenvalue in the overlap matrix is 2.4045001432E-03.
  Using Symmetric Orthogonalization.

  SCF Guess: Orbitals guess was supplied from a previous computation.

  ==> Iterations <==

                           Total Energy        Delta E     RMS |[F,P]|

   @DF-RKS iter   0:  -233.59616828919951   -2.33596e+02   9.71924e-04 
   @DF-RKS iter   1:  -233.58271775285252    1.34505e-02   1.29631e-04 DIIS
   @DF-RKS iter   2:  -233.58277712031000   -5.93675e-05   9.06199e-05 DIIS
   @DF-RKS iter   3:  -233.58280816268746   -3.10424e-05   2.12842e-05 DIIS
   @DF-RKS iter   4:  -233.58280982497703   -1.66229e-06   9.25261e-06 DIIS
   @DF-RKS iter   5:  -233.58281016389569   -3.38919e-07   1.66242e-06 DIIS
   @DF-RKS iter   6:  -233.58281018237952   -1.84838e-08   2.62461e-07 DIIS
   @DF-RKS iter   7:  -233.58281018295989   -5.80371e-10   1.36678e-07 DIIS
   @DF-RKS iter   8:  -233.58281018308290   -1.23009e-10   1.26624e-08 DIIS
   @DF-RKS iter   9:  -233.58281018308554   -2.64322e-12   3.19528e-09 DIIS
  Energy and wave function converged.


  ==> Post-Iterations <==

    Orbital Energies [Eh]
    ---------------------

    Doubly Occupied:                                                      

       1A    -19.237011     2A    -10.330447     3A    -10.274342  
       4A    -10.267698     5A    -10.262764     6A     -1.119700  
       7A     -0.894359     8A     -0.821423     9A     -0.724696  
      10A     -0.669520    11A     -0.608255    12A     -0.552897  
      13A     -0.527836    14A     -0.516317    15A     -0.470996  
      16A     -0.457481    17A     -0.434252    18A     -0.414735  
      19A     -0.403645    20A     -0.392312    21A     -0.351973  

    Virtual:                                                              

      22A      0.116328    23A      0.137017    24A      0.150531  
      25A      0.159622    26A      0.182024    27A      0.198237  
      28A      0.207395    29A      0.222500    30A      0.234917  
      31A      0.238080    32A      0.261815    33A      0.295312  
      34A      0.302976    35A      0.327999    36A      0.396036  
      37A      0.404908    38A      0.428015    39A      0.438804  
      40A      0.453702    41A      0.486738    42A      0.505349  
      43A      0.546236    44A      0.583542    45A      0.624489  
      46A      0.640383    47A      0.657747    48A      0.670612  
      49A      0.682293    50A      0.688357    51A      0.690590  
      52A      0.701772    53A      0.712206    54A      0.719563  
      55A      0.732139    56A      0.754676    57A      0.761615  
      58A      0.863482    59A      0.965930    60A      0.983289  
      61A      1.034242    62A      1.086093    63A      1.120845  
      64A      1.297364    65A      1.580589    66A      2.261155  
      67A      2.333177    68A      2.353873    69A      2.355395  
      70A      2.362516    71A      2.369250    72A      2.399486  
      73A      2.404209    74A      2.428974    75A      2.441570  
      76A      2.874392    77A      2.909775    78A      2.925351  
      79A      2.937890    80A      2.959311    81A      2.991989  
      82A      2.995849    83A      3.083639    84A      3.115125  
      85A      3.177915    86A      3.190998    87A      3.320856  
      88A      4.957018    89A      5.027386    90A      5.203743  
      91A     23.438243    92A     23.577736    93A     23.654091  
      94A     23.740868    95A     49.956526  

    Final Occupation by Irrep:
              A 
    DOCC [    21 ]

  @DF-RKS Final Energy:  -233.58281018308554

   => Energetics <=

    Nuclear Repulsion Energy =            187.9748857031889600
    One-Electron Energy =                -687.9340424991261216
    Two-Electron Energy =                 289.6239492246629084
    DFT Exchange-Correlation Energy =     -23.2405556713889823
    Empirical Dispersion Energy =          -0.0070469404223374
    VV10 Nonlocal Energy =                  0.0000000000000000
    Total Energy =                       -233.5828101830855417

Computation Completed


Properties will be evaluated at   0.000000,   0.000000,   0.000000 [a0]

Properties computed using the SCF density matrix

  Nuclear Dipole Moment: [e a0]
     X:     3.9614      Y:    -1.2094      Z:    -1.2661

  Electronic Dipole Moment: [e a0]
     X:    -4.4381      Y:     0.6794      Z:     1.0627

  Dipole Moment: [e a0]
     X:    -0.4767      Y:    -0.5300      Z:    -0.2034     Total:     0.7413

  Dipole Moment: [D]
     X:    -1.2117      Y:    -1.3471      Z:    -0.5170     Total:     1.8842


*** tstop() called on daniele-Precision-5750 at Thu May 27 11:25:05 2021
Module time:
	user time   =      25.91 seconds =       0.43 minutes
	system time =       0.35 seconds =       0.01 minutes
	total time  =          3 seconds =       0.05 minutes
Total time:
	user time   =      73.24 seconds =       1.22 minutes
	system time =       2.07 seconds =       0.03 minutes
	total time  =         10 seconds =       0.17 minutes

*** tstart() called on daniele-Precision-5750
*** at Thu May 27 11:25:05 2021


         ------------------------------------------------------------
                                   SCF GRAD                          
                          Rob Parrish, Justin Turney,                
                       Andy Simmonett, and Alex Sokolov              
         ------------------------------------------------------------

  ==> Geometry <==

    Molecular point group: c1
    Full point group: C1

    Geometry (in Angstrom), charge = 0, multiplicity = 1:

       Center              X                  Y                   Z               Mass       
    ------------   -----------------  -----------------  -----------------  -----------------
         O           -1.821589403688     0.489357336187     0.633014913438    15.994914619570
         C            0.027477430532    -0.116172181047    -0.762474823804    12.000000000000
         C            1.005225460163    -0.160707248279     0.408270352371    12.000000000000
         C           -1.391116169716    -0.468702419102    -0.361337058312    12.000000000000
         C            2.430750514033     0.201869812043    -0.014515147032    12.000000000000
         H            0.023998036041     0.886659243273    -1.200479094054     1.007825032230
         H            0.350555756001    -0.812747131181    -1.544385920058     1.007825032230
         H            0.993988393554    -1.164877562153     0.847021499039     1.007825032230
         H            0.653748134492     0.524464202071     1.183104805455     1.007825032230
         H           -2.032633288359    -0.434106438289    -1.250550684910     1.007825032230
         H           -1.413449288452    -1.490950617698     0.040571150478     1.007825032230
         H            2.806361086959    -0.487247175372    -0.775484732072     1.007825032230
         H            3.109532810273     0.162450097518     0.839510648896     1.007825032230
         H            2.469041215079     1.212538144674    -0.427951330240     1.007825032230
         H           -2.726161556996     0.311247264705     0.934897393572     1.007825032230

  Nuclear repulsion =  187.974885703188932

  ==> Basis Set <==

  Basis Set: 6-311G
    Blend: 6-311G
    Number of shells: 65
    Number of basis function: 95
    Number of Cartesian functions: 95
    Spherical Harmonics?: true
    Max angular momentum: 1

  ==> DFJKGrad: Density-Fitted SCF Gradients <==

    Gradient:                    1
    J tasked:                  Yes
    K tasked:                  Yes
    wK tasked:                 Yes
    Omega:               2.000E-01
    OpenMP threads:              8
    Integrals threads:           8
    Memory [MiB]:              500
    Schwarz Cutoff:          0E+00
    Fitting Condition:       1E-10

   => Auxiliary Basis Set <=

  Basis Set: (6-311G AUX)
    Blend: CC-PVTZ-JKFIT
    Number of shells: 225
    Number of basis function: 695
    Number of Cartesian functions: 830
    Spherical Harmonics?: true
    Max angular momentum: 4

  ==> DFT Potential <==

   => Composite Functional: WB97X-D <= 

    wB97X-D Hyb-GGA Exchange-Correlation Functional

    J.-D. Chai and M. Head-Gordon, Phys. Chem. Chem. Phys. 10, 6615 (2008)

    Deriv               =              1
    GGA                 =           TRUE
    Meta                =          FALSE

    Exchange Hybrid     =           TRUE
    MP2 Hybrid          =          FALSE

   => Exchange-Correlation Functionals <=

    1.0000   wB97D range-separated functional

   => Exact (HF) Exchange <=

    0.7780            HF,LR [omega = 0.2000]
    0.2220               HF 

   => Molecular Quadrature <=

    Radial Scheme          =       TREUTLER
    Pruning Scheme         =           FLAT
    Nuclear Scheme         =       TREUTLER

    BS radius alpha        =              1
    Pruning alpha          =              1
    Radial Points          =             75
    Spherical Points       =            302
    Total Points           =         336145
    Total Blocks           =           2548
    Max Points             =            256
    Max Functions          =             91


  -Total Gradient:
     Atom            X                  Y                   Z
    ------   -----------------  -----------------  -----------------
       1        0.003434016096    -0.000605697878    -0.000993286452
       2        0.001277642751    -0.001529927426    -0.000548661841
       3       -0.002234784932    -0.000623152582    -0.000636537658
       4        0.000413896063     0.003306788775     0.003522829637
       5       -0.000127808186     0.000368608416    -0.002105502076
       6       -0.000410426593     0.000291302157     0.000267105453
       7        0.000355104400    -0.000318204219     0.000048045396
       8       -0.000239540981    -0.000017251014    -0.000110811350
       9       -0.000418749916     0.000758940575     0.000619783775
      10        0.001597106648    -0.000499785488    -0.001893483562
      11        0.000911933900    -0.001201781121    -0.000826070449
      12        0.000066062027    -0.000017798465     0.000061205418
      13       -0.000831476509    -0.000285725163     0.000522066256
      14       -0.000068144963    -0.000012208458     0.000120915502
      15       -0.003788708880     0.000343311802     0.001956726142


*** tstop() called on daniele-Precision-5750 at Thu May 27 11:25:07 2021
Module time:
	user time   =      13.35 seconds =       0.22 minutes
	system time =       0.12 seconds =       0.00 minutes
	total time  =          2 seconds =       0.03 minutes
Total time:
	user time   =      86.60 seconds =       1.44 minutes
	system time =       2.19 seconds =       0.04 minutes
	total time  =         12 seconds =       0.20 minutes

			-----------------------------------------
			 OPTKING 2.0: for geometry optimizations 
			  - R.A. King,  Bethel University        
			-----------------------------------------
	At level 1: Red. Int., RFO, no backsteps, dynamic trust

	Previous internal coordinate definitions found.
	---Fragment 1 Geometry and Gradient---
	 O          -3.4423050860        0.9247513429        1.1962248197
	 C           0.0519248183       -0.2195336056       -1.4408685945
	 C           1.8996008140       -0.3036926856        0.7715191511
	 C          -2.6288285695       -0.8857192064       -0.6828280792
	 C           4.5934527508        0.3814786578       -0.0274296526
	 H           0.0453497157        1.6755431364       -2.2685767071
	 H           0.6624543705       -1.5358694872       -2.9184664209
	 H           1.8783658357       -2.2012995622        1.6006386556
	 H           1.2354049292        0.9910937045        2.2357440600
	 H          -3.8411202285       -0.8203422777       -2.3631983005
	 H          -2.6710320474       -2.8174883340        0.0766683630
	 H           5.3032538635       -0.9207637169       -1.4654537581
	 H           5.8761653895        0.3069861934        1.5864452058
	 H           4.6658116890        2.2913650101       -0.8087108092
	 H          -5.1516987165        0.5881720876        1.7667000293
	             0.0034340161       -0.0006056979       -0.0009932865
	             0.0012776428       -0.0015299274       -0.0005486618
	            -0.0022347849       -0.0006231526       -0.0006365377
	             0.0004138961        0.0033067888        0.0035228296
	            -0.0001278082        0.0003686084       -0.0021055021
	            -0.0004104266        0.0002913022        0.0002671055
	             0.0003551044       -0.0003182042        0.0000480454
	            -0.0002395410       -0.0000172510       -0.0001108114
	            -0.0004187499        0.0007589406        0.0006197838
	             0.0015971066       -0.0004997855       -0.0018934836
	             0.0009119339       -0.0012017811       -0.0008260704
	             0.0000660620       -0.0000177985        0.0000612054
	            -0.0008314765       -0.0002857252        0.0005220663
	            -0.0000681450       -0.0000122085        0.0001209155
	            -0.0037887089        0.0003433118        0.0019567261

	---Fragment 1 Intrafragment Coordinates---
	 - Coordinate -           - BOHR/RAD -       - ANG/DEG -
	 R(1,4)           =         2.733201	       1.446348
	 R(1,15)          =         1.833236	       0.970107
	 R(2,3)           =         2.883687	       1.525981
	 R(2,4)           =         2.864414	       1.515783
	 R(2,6)           =         2.067960	       1.094317
	 R(2,7)           =         2.070937	       1.095893
	 R(3,5)           =         2.892165	       1.530468
	 R(3,8)           =         2.070942	       1.095895
	 R(3,9)           =         2.064360	       1.092412
	 R(4,10)          =         2.073058	       1.097015
	 R(4,11)          =         2.076138	       1.098645
	 R(5,12)          =         2.065809	       1.093179
	 R(5,13)          =         2.062885	       1.091632
	 R(5,14)          =         2.064776	       1.092633
	 B(1,4,2)         =         1.882233	     107.844005
	 B(1,4,10)        =         1.941559	     111.243125
	 B(1,4,11)        =         1.937766	     111.025808
	 B(2,3,5)         =         1.958375	     112.206595
	 B(2,3,8)         =         1.904273	     109.106811
	 B(2,3,9)         =         1.896224	     108.645623
	 B(2,4,10)        =         1.902277	     108.992429
	 B(2,4,11)        =         1.909470	     109.404576
	 B(3,2,4)         =         1.971243	     112.943881
	 B(3,2,6)         =         1.913314	     109.624815
	 B(3,2,7)         =         1.917663	     109.874009
	 B(3,5,12)        =         1.942272	     111.283997
	 B(3,5,13)        =         1.933171	     110.762555
	 B(3,5,14)        =         1.935105	     110.873344
	 B(4,1,15)        =         1.949637	     111.705955
	 B(4,2,6)         =         1.892388	     108.425870
	 B(4,2,7)         =         1.893251	     108.475313
	 B(5,3,8)         =         1.914764	     109.707921
	 B(5,3,9)         =         1.925199	     110.305800
	 B(6,2,7)         =         1.873230	     107.328162
	 B(8,3,9)         =         1.862354	     106.705019
	 B(10,4,11)       =         1.890181	     108.299388
	 B(12,5,13)       =         1.884075	     107.949526
	 B(12,5,14)       =         1.883522	     107.917845
	 B(13,5,14)       =         1.883505	     107.916865
	*D(1,4,2,3)       =         1.049070	      60.107300
	 D(1,4,2,6)       =        -1.074973	     -61.591439
	 D(1,4,2,7)       =        -3.103944	    -177.842896
	*D(2,3,5,12)      =        -1.045375	     -59.895581
	 D(2,3,5,13)      =        -3.141385	    -179.988112
	 D(2,3,5,14)      =         1.051234	      60.231264
	*D(2,4,1,15)      =        -3.135290	    -179.638880
	 D(3,2,4,10)      =        -3.124238	    -179.005672
	 D(3,2,4,11)      =        -1.060417	     -60.757403
	*D(4,2,3,5)       =        -3.138591	    -179.828007
	 D(4,2,3,8)       =         1.018856	      58.376169
	 D(4,2,3,9)       =        -1.005248	     -57.596488
	 D(5,3,2,6)       =        -1.026387	     -58.807658
	 D(5,3,2,7)       =         1.028193	      58.911114
	 D(6,2,3,8)       =         3.131060	     179.396518
	 D(6,2,3,9)       =         1.106955	      63.423862
	 D(6,2,4,10)      =         1.034903	      59.295590
	 D(6,2,4,11)      =         3.098725	     177.543858
	 D(7,2,3,8)       =        -1.097545	     -62.884711
	 D(7,2,3,9)       =        -3.121650	    -178.857367
	 D(7,2,4,10)      =        -0.994067	     -56.955868
	 D(7,2,4,11)      =         1.069754	      61.292400
	 D(8,3,5,12)      =         1.074361	      61.556333
	 D(8,3,5,13)      =        -1.021649	     -58.536198
	 D(8,3,5,14)      =        -3.112216	    -178.316822
	 D(9,3,5,12)      =         3.121023	     178.821432
	 D(9,3,5,13)      =         1.025013	      58.728901
	 D(9,3,5,14)      =        -1.065554	     -61.051723
	 D(10,4,1,15)     =         1.062765	      60.891961
	 D(11,4,1,15)     =        -1.043595	     -59.793589

	Current energy   :      -233.5828101831

	Energy change for the previous step:
		Projected    :        -0.0051279658
		Actual       :        -0.0016464272

	Performing BFGS update.
	Previous computed or guess Hessian on step 1.
	Steps to be used in Hessian update: 1
	Taking RFO optimization step.
	Going to follow RFO solution 1.
	Using RFO vector 1.
	Norm of target step-size    0.04811
	Projected energy change by RFO approximation:        -0.0001828686

	Back-transformation to cartesian coordinates...
	Could not converge backtransformation.
	Using first guess instead.

	Back-transformation to cartesian coordinates to adjust frozen coordinates...
	Successfully converged to displaced geometry.

	--- Internal Coordinate Step in ANG or DEG, aJ/ANG or AJ/DEG ---
	 ---------------------------------------------------------------------------
	   Coordinate                Previous        Force       Change         New 
	   ----------                --------       ------       ------       ------
	    1 R(1,4)          =      1.446348    -0.005094     0.000053     1.446401
	    2 R(1,15)         =      0.970107    -0.033507    -0.004034     0.966072
	    3 R(2,3)          =      1.525981     0.029945     0.004606     1.530587
	    4 R(2,4)          =      1.515783     0.018766     0.002264     1.518047
	    5 R(2,6)          =      1.094317    -0.001337    -0.000402     1.093915
	    6 R(2,7)          =      1.095893    -0.002249    -0.000480     1.095413
	    7 R(3,5)          =      1.530468     0.003941     0.000237     1.530704
	    8 R(3,8)          =      1.095895     0.000226    -0.000076     1.095820
	    9 R(3,9)          =      1.092412    -0.008646    -0.001751     1.090661
	   10 R(4,10)         =      1.097015    -0.004795    -0.000660     1.096355
	   11 R(4,11)         =      1.098645    -0.006491    -0.000949     1.097695
	   12 R(5,12)         =      1.093179    -0.000014    -0.000094     1.093085
	   13 R(5,13)         =      1.091632     0.000798    -0.000002     1.091629
	   14 R(5,14)         =      1.092633     0.000549    -0.000038     1.092594
	   15 B(1,4,2)        =    107.844005    -0.000048    -0.234821   107.609184
	   16 B(1,4,10)       =    111.243125    -0.000107    -0.678088   110.565038
	   17 B(1,4,11)       =    111.025808    -0.000058    -0.637599   110.388209
	   18 B(2,3,5)        =    112.206595     0.000119     0.326159   112.532754
	   19 B(2,3,8)        =    109.106811    -0.000019    -0.042790   109.064021
	   20 B(2,3,9)        =    108.645623    -0.000036    -0.064763   108.580860
	   21 B(2,4,10)       =    108.992429     0.000169     1.031544   110.023973
	   22 B(2,4,11)       =    109.404576     0.000089     0.385525   109.790101
	   23 B(3,2,4)        =    112.943881     0.000168     0.491769   113.435650
	   24 B(3,2,6)        =    109.624815    -0.000058    -0.116630   109.508185
	   25 B(3,2,7)        =    109.874009    -0.000029    -0.044389   109.829620
	   26 B(3,5,12)       =    111.283997    -0.000027    -0.140424   111.143573
	   27 B(3,5,13)       =    110.762555     0.000115     0.540270   111.302824
	   28 B(3,5,14)       =    110.873344    -0.000010    -0.094221   110.779123
	   29 B(4,1,15)       =    111.705955    -0.000182    -0.565290   111.140666
	   30 B(4,2,6)        =    108.425870    -0.000032     0.094878   108.520748
	   31 B(4,2,7)        =    108.475313    -0.000066    -0.233493   108.241819
	   32 B(5,3,8)        =    109.707921    -0.000044    -0.165335   109.542586
	   33 B(5,3,9)        =    110.305800    -0.000040    -0.004394   110.301406
	   34 B(6,2,7)        =    107.328162     0.000011    -0.229095   107.099067
	   35 B(8,3,9)        =    106.705019     0.000015    -0.068688   106.636331
	   36 B(10,4,11)      =    108.299388    -0.000037     0.163505   108.462893
	   37 B(12,5,13)      =    107.949526    -0.000041    -0.077813   107.871713
	   38 B(12,5,14)      =    107.917845     0.000002    -0.156566   107.761280
	   39 B(13,5,14)      =    107.916865    -0.000043    -0.088572   107.828293
	   40 *D(1,4,2,3)     =     60.107300     0.000000     0.000000    60.107300
	   41 D(1,4,2,6)      =    -61.591439    -0.000003    -0.243230   -61.834668
	   42 D(1,4,2,7)      =   -177.842896     0.000006     0.101625  -177.741271
	   43 *D(2,3,5,12)    =    -59.895581    -0.000000     0.000000   -59.895581
	   44 D(2,3,5,13)     =   -179.988112    -0.000002    -0.170798  -180.158910
	   45 D(2,3,5,14)     =     60.231264    -0.000005    -0.353322    59.877942
	   46 *D(2,4,1,15)    =   -179.638880     0.000000     0.000000  -179.638880
	   47 D(3,2,4,10)     =   -179.005672    -0.000013    -0.361385  -179.367057
	   48 D(3,2,4,11)     =    -60.757403     0.000011     0.688872   -60.068530
	   49 *D(4,2,3,5)     =   -179.828007     0.000000     0.000000  -179.828007
	   50 D(4,2,3,8)      =     58.376169    -0.000002     0.023594    58.399762
	   51 D(4,2,3,9)      =    -57.596488     0.000001     0.163983   -57.432505
	   52 D(5,3,2,6)      =    -58.807658     0.000007     0.369919   -58.437739
	   53 D(5,3,2,7)      =     58.911114    -0.000002    -0.003775    58.907339
	   54 D(6,2,3,8)      =    179.396518     0.000005     0.393512   179.790030
	   55 D(6,2,3,9)      =     63.423862     0.000008     0.533902    63.957763
	   56 D(6,2,4,10)     =     59.295590    -0.000016    -0.604615    58.690974
	   57 D(6,2,4,11)     =    177.543858     0.000008     0.445643   177.989501
	   58 D(7,2,3,8)      =    -62.884711    -0.000004     0.019819   -62.864891
	   59 D(7,2,3,9)      =   -178.857367    -0.000001     0.160209  -178.697158
	   60 D(7,2,4,10)     =    -56.955868    -0.000007    -0.259760   -57.215629
	   61 D(7,2,4,11)     =     61.292400     0.000017     0.790497    62.082898
	   62 D(8,3,5,12)     =     61.556333     0.000006     0.048235    61.604568
	   63 D(8,3,5,13)     =    -58.536198     0.000004    -0.122563   -58.658761
	   64 D(8,3,5,14)     =   -178.316822     0.000001    -0.305088  -178.621910
	   65 D(9,3,5,12)     =    178.821432    -0.000002    -0.137111   178.684321
	   66 D(9,3,5,13)     =     58.728901    -0.000003    -0.307909    58.420992
	   67 D(9,3,5,14)     =    -61.051723    -0.000007    -0.490434   -61.542157
	   68 D(10,4,1,15)    =     60.891961    -0.000026    -0.714825    60.177135
	   69 D(11,4,1,15)    =    -59.793589     0.000010    -0.048555   -59.842144
	 ---------------------------------------------------------------------------
	Successfully symmetrized geometry.

  ==> Convergence Check <==

  Measures of convergence in internal coordinates in au.
  Criteria marked as inactive (o), active & met (*), and active & unmet ( ).
  ---------------------------------------------------------------------------------------------
   Step     Total Energy     Delta E     MAX Force     RMS Force      MAX Disp      RMS Disp   
  ---------------------------------------------------------------------------------------------
    Convergence Criteria             o    2.50e-03 *    1.70e-03 *    1.00e-02 *    6.70e-03 *
  ---------------------------------------------------------------------------------------------
      2    -233.58281018   -1.65e-03 o    4.07e-03      1.03e-03 *    1.80e-02      5.80e-03 *  ~
  ---------------------------------------------------------------------------------------------

	Writing optimization data to binary file.
	Structure for next step:
	Cartesian Geometry (in Angstrom)
	    O    -1.8261073266   0.4881368411   0.6289812804
	    C     0.0254188067  -0.1163239787  -0.7608101418
	    C     1.0110422974  -0.1609090383   0.4093414847
	    C    -1.3970260972  -0.4700924811  -0.3658857873
	    C     2.4372436063   0.2030541910  -0.0108204511
	    H     0.0251104073   0.8854651647  -1.2002064697
	    H     0.3467887780  -0.8114548085  -1.5440369245
	    H     1.0027781471  -1.1658582149   0.8461819482
	    H     0.6598594930   0.5199246436   1.1856644980
	    H    -2.0512206807  -0.4317879190  -1.2448383375
	    H    -1.4264759777  -1.4874345497   0.0453113326
	    H     2.8117172672  -0.4855799286  -0.7726521035
	    H     3.1221296264   0.1676636190   0.8384925887
	    H     2.4729164155   1.2124522778  -0.4274801382
	    H    -2.7284456504   0.3058195141   0.9219691995
			--------------------------
			 OPTKING Finished Execution 
			--------------------------

    Structure for next step:
    Molecular point group: c1
    Full point group: C1

    Geometry (in Angstrom), charge = 0, multiplicity = 1:

    O           -1.825837474347     0.488466777172     0.629518151279
    C            0.025688666289    -0.115994044994    -0.760273276304
    C            1.011312160826    -0.160579104833     0.409878354761
    C           -1.396756243214    -0.469762548849    -0.365348920300
    C            2.437513475351     0.203384125948    -0.010283582675
    H            0.025380266921     0.885795102301    -1.199669605985
    H            0.347058638827    -0.811124877589    -1.543500062122
    H            1.003048010512    -1.165528285308     0.846718819977
    H            0.660129355037     0.520254579785     1.186201371089
    H           -2.050950829278    -0.431457986540    -1.244301473940
    H           -1.426206123833    -1.487104621379     0.045848201265
    H            2.811987137722    -0.485249996404    -0.772115238082
    H            3.122399498169     0.167993553814     0.839029460421
    H            2.473186284703     1.212782216736    -0.426943271429
    H           -2.728175801607     0.306149449463     0.922506071545

gradient() will perform analytic gradient computation.

*** tstart() called on daniele-Precision-5750
*** at Thu May 27 11:25:07 2021

   => Loading Basis Set <=

    Name: 6-311G
    Role: ORBITAL
    Keyword: BASIS
    atoms 1    entry O          line   126 file /home/daniele/anaconda3/envs/poltype/share/psi4/basis/6-311g.gbs 
    atoms 2-5  entry C          line    92 file /home/daniele/anaconda3/envs/poltype/share/psi4/basis/6-311g.gbs 
    atoms 6-15 entry H          line    21 file /home/daniele/anaconda3/envs/poltype/share/psi4/basis/6-311g.gbs 


         ---------------------------------------------------------
                                   SCF
               by Justin Turney, Rob Parrish, Andy Simmonett
                          and Daniel G. A. Smith
                              RKS Reference
                        8 Threads,    667 MiB Core
         ---------------------------------------------------------

  ==> Geometry <==

    Molecular point group: c1
    Full point group: C1

    Geometry (in Angstrom), charge = 0, multiplicity = 1:

       Center              X                  Y                   Z               Mass       
    ------------   -----------------  -----------------  -----------------  -----------------
         O           -1.825837474347     0.488466777172     0.629518151279    15.994914619570
         C            0.025688666289    -0.115994044994    -0.760273276304    12.000000000000
         C            1.011312160826    -0.160579104833     0.409878354761    12.000000000000
         C           -1.396756243214    -0.469762548849    -0.365348920300    12.000000000000
         C            2.437513475351     0.203384125948    -0.010283582675    12.000000000000
         H            0.025380266921     0.885795102301    -1.199669605985     1.007825032230
         H            0.347058638827    -0.811124877589    -1.543500062122     1.007825032230
         H            1.003048010512    -1.165528285308     0.846718819977     1.007825032230
         H            0.660129355037     0.520254579785     1.186201371089     1.007825032230
         H           -2.050950829278    -0.431457986540    -1.244301473940     1.007825032230
         H           -1.426206123833    -1.487104621379     0.045848201265     1.007825032230
         H            2.811987137722    -0.485249996404    -0.772115238082     1.007825032230
         H            3.122399498169     0.167993553814     0.839029460421     1.007825032230
         H            2.473186284703     1.212782216736    -0.426943271429     1.007825032230
         H           -2.728175801607     0.306149449463     0.922506071545     1.007825032230

  Running in c1 symmetry.

  Rotational constants: A =      0.40847  B =      0.07996  C =      0.07318 [cm^-1]
  Rotational constants: A =  12245.70883  B =   2397.20584  C =   2193.89595 [MHz]
  Nuclear repulsion =  187.758911346179076

  Charge       = 0
  Multiplicity = 1
  Electrons    = 42
  Nalpha       = 21
  Nbeta        = 21

  ==> Algorithm <==

  SCF Algorithm Type is DF.
  DIIS enabled.
  MOM disabled.
  Fractional occupation disabled.
  Guess Type is READ.
  Energy threshold   = 1.00e-08
  Density threshold  = 1.00e-08
  Integral threshold = 0.00e+00

  ==> Primary Basis <==

  Basis Set: 6-311G
    Blend: 6-311G
    Number of shells: 65
    Number of basis function: 95
    Number of Cartesian functions: 95
    Spherical Harmonics?: true
    Max angular momentum: 1

  ==> DFT Potential <==

   => Composite Functional: WB97X-D <= 

    wB97X-D Hyb-GGA Exchange-Correlation Functional

    J.-D. Chai and M. Head-Gordon, Phys. Chem. Chem. Phys. 10, 6615 (2008)

    Deriv               =              1
    GGA                 =           TRUE
    Meta                =          FALSE

    Exchange Hybrid     =           TRUE
    MP2 Hybrid          =          FALSE

   => Exchange-Correlation Functionals <=

    1.0000   wB97D range-separated functional

   => Exact (HF) Exchange <=

    0.7780            HF,LR [omega = 0.2000]
    0.2220               HF 

   => Molecular Quadrature <=

    Radial Scheme          =       TREUTLER
    Pruning Scheme         =           FLAT
    Nuclear Scheme         =       TREUTLER

    BS radius alpha        =              1
    Pruning alpha          =              1
    Radial Points          =             75
    Spherical Points       =            302
    Total Points           =         336143
    Total Blocks           =           2549
    Max Points             =            256
    Max Functions          =             91

   => WB97X-D: Empirical Dispersion <=

    Chai and Head-Gordon Dispersion Correction
    Chai, J.-D.; Head-Gordon, M. (2010), J. Chem. Phys., 132: 6615-6620

        s6 =       1.000000

   => Loading Basis Set <=

    Name: (6-311G AUX)
    Role: JKFIT
    Keyword: DF_BASIS_SCF
    atoms 1    entry O          line   229 file /home/daniele/anaconda3/envs/poltype/share/psi4/basis/cc-pvtz-jkfit.gbs 
    atoms 2-5  entry C          line   125 file /home/daniele/anaconda3/envs/poltype/share/psi4/basis/cc-pvtz-jkfit.gbs 
    atoms 6-15 entry H          line    51 file /home/daniele/anaconda3/envs/poltype/share/psi4/basis/cc-pvtz-jkfit.gbs 

   => Loading Basis Set <=

    Name: 6-311G
    Role: ORBITAL
    Keyword: BASIS
    atoms 1    entry O          line   126 file /home/daniele/anaconda3/envs/poltype/share/psi4/basis/6-311g.gbs 
    atoms 2-5  entry C          line    92 file /home/daniele/anaconda3/envs/poltype/share/psi4/basis/6-311g.gbs 
    atoms 6-15 entry H          line    21 file /home/daniele/anaconda3/envs/poltype/share/psi4/basis/6-311g.gbs 

  Reading orbitals from file 180, no projection.

  ==> Pre-Iterations <==

   -------------------------------------------------------
    Irrep   Nso     Nmo     Nalpha   Nbeta   Ndocc  Nsocc
   -------------------------------------------------------
     A         95      95       0       0       0       0
   -------------------------------------------------------
    Total      95      95      21      21      21       0
   -------------------------------------------------------

  ==> Integral Setup <==

  ==> DiskDFJK: Density-Fitted J/K Matrices <==

    J tasked:                  Yes
    K tasked:                  Yes
    wK tasked:                 Yes
    Omega:               2.000E-01
    OpenMP threads:              8
    Integrals threads:           8
    Memory [MiB]:               34
    Algorithm:                Disk
    Integral Cache:           NONE
    Schwarz Cutoff:          1E-12
    Fitting Condition:       1E-10

   => Auxiliary Basis Set <=

  Basis Set: (6-311G AUX)
    Blend: CC-PVTZ-JKFIT
    Number of shells: 225
    Number of basis function: 695
    Number of Cartesian functions: 830
    Spherical Harmonics?: true
    Max angular momentum: 4

  Cached 100.0% of DFT collocation blocks in 0.670 [GiB].

  Minimum eigenvalue in the overlap matrix is 2.4514315895E-03.
  Using Symmetric Orthogonalization.

  SCF Guess: Orbitals guess was supplied from a previous computation.

  ==> Iterations <==

                           Total Energy        Delta E     RMS |[F,P]|

   @DF-RKS iter   0:  -233.58548700731231   -2.33585e+02   1.73530e-04 
   @DF-RKS iter   1:  -233.58295361715156    2.53339e-03   3.86674e-05 DIIS
   @DF-RKS iter   2:  -233.58295564633602   -2.02918e-06   3.96565e-05 DIIS
   @DF-RKS iter   3:  -233.58296074651525   -5.10018e-06   4.14476e-06 DIIS
   @DF-RKS iter   4:  -233.58296081407133   -6.75561e-08   1.97697e-06 DIIS
   @DF-RKS iter   5:  -233.58296083396522   -1.98939e-08   3.50989e-07 DIIS
   @DF-RKS iter   6:  -233.58296083491760   -9.52383e-10   6.67444e-08 DIIS
   @DF-RKS iter   7:  -233.58296083495247   -3.48734e-11   3.08052e-08 DIIS
   @DF-RKS iter   8:  -233.58296083495893   -6.45173e-12   4.15942e-09 DIIS
  Energy and wave function converged.


  ==> Post-Iterations <==

    Orbital Energies [Eh]
    ---------------------

    Doubly Occupied:                                                      

       1A    -19.235994     2A    -10.330629     3A    -10.275005  
       4A    -10.268238     5A    -10.263081     6A     -1.120640  
       7A     -0.893326     8A     -0.821354     9A     -0.725206  
      10A     -0.669939    11A     -0.607765    12A     -0.553128  
      13A     -0.527948    14A     -0.516411    15A     -0.470483  
      16A     -0.457578    17A     -0.434793    18A     -0.414008  
      19A     -0.404122    20A     -0.393327    21A     -0.351647  

    Virtual:                                                              

      22A      0.116595    23A      0.136989    24A      0.151293  
      25A      0.159847    26A      0.182354    27A      0.198032  
      28A      0.207226    29A      0.221535    30A      0.234644  
      31A      0.237884    32A      0.261348    33A      0.295206  
      34A      0.301874    35A      0.327887    36A      0.395836  
      37A      0.404383    38A      0.427657    39A      0.438124  
      40A      0.453556    41A      0.487845    42A      0.506332  
      43A      0.546887    44A      0.584475    45A      0.624140  
      46A      0.638919    47A      0.656004    48A      0.670139  
      49A      0.682254    50A      0.688073    51A      0.690129  
      52A      0.701708    53A      0.711622    54A      0.719436  
      55A      0.731477    56A      0.753988    57A      0.766000  
      58A      0.862564    59A      0.966400    60A      0.982178  
      61A      1.033889    62A      1.085023    63A      1.119821  
      64A      1.296105    65A      1.583996    66A      2.261708  
      67A      2.332645    68A      2.353634    69A      2.354938  
      70A      2.362448    71A      2.369462    72A      2.399241  
      73A      2.403345    74A      2.428663    75A      2.441454  
      76A      2.872948    77A      2.914834    78A      2.925435  
      79A      2.935120    80A      2.958433    81A      2.993410  
      82A      2.995905    83A      3.082915    84A      3.113697  
      85A      3.177802    86A      3.190786    87A      3.317878  
      88A      4.956773    89A      5.027799    90A      5.205944  
      91A     23.438068    92A     23.577197    93A     23.653753  
      94A     23.737020    95A     49.958413  

    Final Occupation by Irrep:
              A 
    DOCC [    21 ]

  @DF-RKS Final Energy:  -233.58296083495893

   => Energetics <=

[...]

  Basis Set: (6-311G AUX)
    Blend: CC-PVTZ-JKFIT
    Number of shells: 225
    Number of basis function: 695
    Number of Cartesian functions: 830
    Spherical Harmonics?: true
    Max angular momentum: 4

  ==> DFT Potential <==

   => Composite Functional: WB97X-D <= 

    wB97X-D Hyb-GGA Exchange-Correlation Functional

    J.-D. Chai and M. Head-Gordon, Phys. Chem. Chem. Phys. 10, 6615 (2008)

    Deriv               =              1
    GGA                 =           TRUE
    Meta                =          FALSE

    Exchange Hybrid     =           TRUE
    MP2 Hybrid          =          FALSE

   => Exchange-Correlation Functionals <=

    1.0000   wB97D range-separated functional

   => Exact (HF) Exchange <=

    0.7780            HF,LR [omega = 0.2000]
    0.2220               HF 

   => Molecular Quadrature <=

    Radial Scheme          =       TREUTLER
    Pruning Scheme         =           FLAT
    Nuclear Scheme         =       TREUTLER

    BS radius alpha        =              1
    Pruning alpha          =              1
    Radial Points          =             75
    Spherical Points       =            302
    Total Points           =         336143
    Total Blocks           =           2549
    Max Points             =            256
    Max Functions          =             91


  -Total Gradient:
     Atom            X                  Y                   Z
    ------   -----------------  -----------------  -----------------
       1        0.000664710355    -0.001791705788    -0.000564701606
       2        0.000686680050    -0.000502488105     0.000238421739
       3       -0.000496414721     0.000736829353    -0.000208589778
       4       -0.000714969926     0.001557967869     0.000542356065
       5        0.000391131556    -0.000011819427    -0.000187088959
       6       -0.000001338441    -0.000055457517     0.000088659097
       7       -0.000193794144     0.000010295554     0.000222965617
       8        0.000011659727     0.000095832280    -0.000095817857
       9        0.000033660583    -0.000064518657    -0.000114169365
      10       -0.000253347904     0.000009062611    -0.000338091904
      11        0.000036654652    -0.000152374190     0.000168782609
      12       -0.000090556901     0.000092377859     0.000122021570
      13        0.000017838323    -0.000006782121     0.000062830404
      14       -0.000139878515    -0.000195054677     0.000101961355
      15       -0.000004209987     0.000245271373    -0.000045285553


*** tstop() called on daniele-Precision-5750 at Thu May 27 11:25:12 2021
Module time:
	user time   =      13.14 seconds =       0.22 minutes
	system time =       0.13 seconds =       0.00 minutes
	total time  =          2 seconds =       0.03 minutes
Total time:
	user time   =     124.17 seconds =       2.07 minutes
	system time =       2.61 seconds =       0.04 minutes
	total time  =         17 seconds =       0.28 minutes

			-----------------------------------------
			 OPTKING 2.0: for geometry optimizations 
			  - R.A. King,  Bethel University        
			-----------------------------------------
	At level 1: Red. Int., RFO, no backsteps, dynamic trust

	Previous internal coordinate definitions found.
	---Fragment 1 Geometry and Gradient---
	 O          -3.4503327761        0.9230684302        1.1896168969
	 C           0.0485445438       -0.2191969772       -1.4367082727
	 C           1.9111030113       -0.3034505296        0.7745578353
	 C          -2.6394867637       -0.8877225613       -0.6904093996
	 C           4.6062328955        0.3843402963       -0.0194331548
	 H           0.0479617535        1.6739101466       -2.2670469963
	 H           0.6558457769       -1.5328038722       -2.9167923920
	 H           1.8954860306       -2.2025292507        1.6000666750
	 H           1.2474636884        0.9831386713        2.2415957210
	 H          -3.8757353641       -0.8153374292       -2.3513890032
	 H          -2.6951389725       -2.8102204543        0.0866405437
	 H           5.3138855586       -0.9169895956       -1.4590863373
	 H           5.9004799058        0.3174618076        1.5855358914
	 H           4.6736447353        2.2918262395       -0.8068058541
	 H          -5.1555050871        0.5785386129        1.7432838243
	             0.0006647104       -0.0017917058       -0.0005647016
	             0.0006866800       -0.0005024881        0.0002384217
	            -0.0004964147        0.0007368294       -0.0002085898
	            -0.0007149699        0.0015579679        0.0005423561
	             0.0003911316       -0.0000118194       -0.0001870890
	            -0.0000013384       -0.0000554575        0.0000886591
	            -0.0001937941        0.0000102956        0.0002229656
	             0.0000116597        0.0000958323       -0.0000958179
	             0.0000336606       -0.0000645187       -0.0001141694
	            -0.0002533479        0.0000090626       -0.0003380919
	             0.0000366547       -0.0001523742        0.0001687826
	            -0.0000905569        0.0000923779        0.0001220216
	             0.0000178383       -0.0000067821        0.0000628304
	            -0.0001398785       -0.0001950547        0.0001019614
	            -0.0000042100        0.0002452714       -0.0000452856

	---Fragment 1 Intrafragment Coordinates---
	 - Coordinate -           - BOHR/RAD -       - ANG/DEG -
	 R(1,4)           =         2.733301	       1.446401
	 R(1,15)          =         1.825612	       0.966072
	 R(2,3)           =         2.892390	       1.530587
	 R(2,4)           =         2.868693	       1.518047
	 R(2,6)           =         2.067200	       1.093915
	 R(2,7)           =         2.070031	       1.095413
	 R(3,5)           =         2.892612	       1.530704
	 R(3,8)           =         2.070799	       1.095820
	 R(3,9)           =         2.061050	       1.090661
	 R(4,10)          =         2.071812	       1.096355
	 R(4,11)          =         2.074344	       1.097695
	 R(5,12)          =         2.065631	       1.093085
	 R(5,13)          =         2.062880	       1.091629
	 R(5,14)          =         2.064704	       1.092594
	 B(1,4,2)         =         1.878135	     107.609184
	 B(1,4,10)        =         1.929724	     110.565038
	 B(1,4,11)        =         1.926638	     110.388209
	 B(2,3,5)         =         1.964067	     112.532754
	 B(2,3,8)         =         1.903526	     109.064021
	 B(2,3,9)         =         1.895094	     108.580860
	 B(2,4,10)        =         1.920281	     110.023973
	 B(2,4,11)        =         1.916199	     109.790101
	 B(3,2,4)         =         1.979826	     113.435650
	 B(3,2,6)         =         1.911278	     109.508185
	 B(3,2,7)         =         1.916888	     109.829620
	 B(3,5,12)        =         1.939821	     111.143573
	 B(3,5,13)        =         1.942601	     111.302824
	 B(3,5,14)        =         1.933460	     110.779123
	 B(4,1,15)        =         1.939771	     111.140666
	 B(4,2,6)         =         1.894044	     108.520748
	 B(4,2,7)         =         1.889176	     108.241819
	 B(5,3,8)         =         1.911879	     109.542586
	 B(5,3,9)         =         1.925123	     110.301406
	 B(6,2,7)         =         1.869231	     107.099067
	 B(8,3,9)         =         1.861155	     106.636331
	 B(10,4,11)       =         1.893035	     108.462893
	 B(12,5,13)       =         1.882717	     107.871713
	 B(12,5,14)       =         1.880789	     107.761280
	 B(13,5,14)       =         1.881959	     107.828293
	*D(1,4,2,3)       =         1.049070	      60.107300
	 D(1,4,2,6)       =        -1.079219	     -61.834668
	 D(1,4,2,7)       =        -3.102170	    -177.741271
	*D(2,3,5,12)      =        -1.045375	     -59.895581
	 D(2,3,5,13)      =         3.138819	     179.841090
	 D(2,3,5,14)      =         1.045067	      59.877942
	*D(2,4,1,15)      =        -3.135290	    -179.638880
	 D(3,2,4,10)      =        -3.130546	    -179.367057
	 D(3,2,4,11)      =        -1.048394	     -60.068530
	*D(4,2,3,5)       =        -3.138591	    -179.828007
	 D(4,2,3,8)       =         1.019268	      58.399762
	 D(4,2,3,9)       =        -1.002386	     -57.432505
	 D(5,3,2,6)       =        -1.019931	     -58.437739
	 D(5,3,2,7)       =         1.028127	      58.907339
	 D(6,2,3,8)       =         3.137928	     179.790030
	 D(6,2,3,9)       =         1.116274	      63.957763
	 D(6,2,4,10)      =         1.024351	      58.690974
	 D(6,2,4,11)      =         3.106503	     177.989501
	 D(7,2,3,8)       =        -1.097199	     -62.864891
	 D(7,2,3,9)       =        -3.118854	    -178.697158
	 D(7,2,4,10)      =        -0.998601	     -57.215629
	 D(7,2,4,11)      =         1.083551	      62.082898
	 D(8,3,5,12)      =         1.075203	      61.604568
	 D(8,3,5,13)      =        -1.023789	     -58.658761
	 D(8,3,5,14)      =        -3.117540	    -178.621910
	 D(9,3,5,12)      =         3.118630	     178.684321
	 D(9,3,5,13)      =         1.019639	      58.420992
	 D(9,3,5,14)      =        -1.074113	     -61.542157
	 D(10,4,1,15)     =         1.050289	      60.177135
	 D(11,4,1,15)     =        -1.044442	     -59.842144

	Current energy   :      -233.5829608350

	Energy change for the previous step:
		Projected    :        -0.0001828686
		Actual       :        -0.0001506519
	Energy ratio indicates good step: Trust radius increased to 1.000e+00.


	Performing BFGS update.
	Previous computed or guess Hessian on step 1.
	Steps to be used in Hessian update: 2 1
	Taking RFO optimization step.
	Going to follow RFO solution 1.
	Using RFO vector 1.
	Norm of target step-size    0.00802
	Projected energy change by RFO approximation:        -0.0000165132

	Back-transformation to cartesian coordinates...
	Successfully converged to displaced geometry.

	Back-transformation to cartesian coordinates to adjust frozen coordinates...
	Successfully converged to displaced geometry.

	--- Internal Coordinate Step in ANG or DEG, aJ/ANG or AJ/DEG ---
	 ---------------------------------------------------------------------------
	   Coordinate                Previous        Force       Change         New 
	   ----------                --------       ------       ------       ------
	    1 R(1,4)          =      1.446401     0.013290     0.002222     1.448623
	    2 R(1,15)         =      0.966072     0.000547    -0.000166     0.965906
	    3 R(2,3)          =      1.530587     0.003562     0.000857     1.531444
	    4 R(2,4)          =      1.518047    -0.001664    -0.000501     1.517546
	    5 R(2,6)          =      1.093915     0.000710     0.000086     1.094002
	    6 R(2,7)          =      1.095413     0.001840     0.000309     1.095722
	    7 R(3,5)          =      1.530704    -0.001041    -0.000311     1.530393
	    8 R(3,8)          =      1.095820     0.001045     0.000180     1.096000
	    9 R(3,9)          =      1.090661     0.001103     0.000080     1.090741
	   10 R(4,10)         =      1.096355    -0.003445    -0.000689     1.095666
	   11 R(4,11)         =      1.097695    -0.001612    -0.000339     1.097356
	   12 R(5,12)         =      1.093085     0.001343     0.000233     1.093319
	   13 R(5,13)         =      1.091629    -0.000495    -0.000120     1.091509
	   14 R(5,14)         =      1.092594     0.001898     0.000335     1.092929
	   15 B(1,4,2)        =    107.609184     0.000012     0.037550   107.646733
	   16 B(1,4,10)       =    110.565038    -0.000004    -0.071079   110.493959
	   17 B(1,4,11)       =    110.388209    -0.000000     0.022815   110.411024
	   18 B(2,3,5)        =    112.532754    -0.000018    -0.056607   112.476146
	   19 B(2,3,8)        =    109.064021     0.000006     0.018806   109.082826
	   20 B(2,3,9)        =    108.580860     0.000006     0.009480   108.590340
	   21 B(2,4,10)       =    110.023973    -0.000004     0.001413   110.025387
	   22 B(2,4,11)       =    109.790101    -0.000002     0.034230   109.824331
	   23 B(3,2,4)        =    113.435650    -0.000018    -0.042206   113.393444
	   24 B(3,2,6)        =    109.508185     0.000006    -0.012628   109.495557
	   25 B(3,2,7)        =    109.829620     0.000002     0.017988   109.847608
	   26 B(3,5,12)       =    111.143573     0.000002     0.005859   111.149432
	   27 B(3,5,13)       =    111.302824    -0.000001     0.015355   111.318179
	   28 B(3,5,14)       =    110.779123     0.000012     0.058425   110.837549
	   29 B(4,1,15)       =    111.140666    -0.000026    -0.123157   111.017509
	   30 B(4,2,6)        =    108.520748     0.000004    -0.014933   108.505815
	   31 B(4,2,7)        =    108.241819     0.000013     0.108255   108.350074
	   32 B(5,3,8)        =    109.542586     0.000004     0.013861   109.556447
	   33 B(5,3,9)        =    110.301406     0.000007     0.026519   110.327925
	   34 B(6,2,7)        =    107.099067    -0.000007    -0.057403   107.041664
	   35 B(8,3,9)        =    106.636331    -0.000004    -0.009665   106.626667
	   36 B(10,4,11)      =    108.462893    -0.000002    -0.023986   108.438907
	   37 B(12,5,13)      =    107.871713    -0.000002    -0.023090   107.848623
	   38 B(12,5,14)      =    107.761280    -0.000006    -0.027647   107.733633
	   39 B(13,5,14)      =    107.828293    -0.000006    -0.033410   107.794883
	   40 *D(1,4,2,3)     =     60.107300     0.000000    -0.000000    60.107300
	   41 D(1,4,2,6)      =    -61.834668     0.000000     0.054881   -61.779788
	   42 D(1,4,2,7)      =   -177.741271     0.000000     0.072876  -177.668395
	   43 *D(2,3,5,12)    =    -59.895581    -0.000000    -0.000000   -59.895581
	   44 D(2,3,5,13)     =    179.841090     0.000000     0.014945   179.856035
	   45 D(2,3,5,14)     =     59.877942     0.000000     0.007807    59.885749
	   46 *D(2,4,1,15)    =   -179.638880    -0.000000    -0.000000  -179.638880
	   47 D(3,2,4,10)     =   -179.367057     0.000000    -0.062538  -179.429595
	   48 D(3,2,4,11)     =    -60.068530    -0.000001    -0.069958   -60.138489
	   49 *D(4,2,3,5)     =   -179.828007    -0.000000    -0.000000  -179.828007
	   50 D(4,2,3,8)      =     58.399762     0.000001     0.006758    58.406520
	   51 D(4,2,3,9)      =    -57.432505     0.000000     0.002885   -57.429620
	   52 D(5,3,2,6)      =    -58.437739    -0.000001    -0.056945   -58.494685
	   53 D(5,3,2,7)      =     58.907339    -0.000002    -0.123512    58.783827
	   54 D(6,2,3,8)      =    179.790030     0.000000    -0.050188   179.739843
	   55 D(6,2,3,9)      =     63.957763    -0.000000    -0.054061    63.903702
	   56 D(6,2,4,10)     =     58.690974     0.000000    -0.007658    58.683317
	   57 D(6,2,4,11)     =    177.989501    -0.000001    -0.015078   177.974423
	   58 D(7,2,3,8)      =    -62.864891    -0.000001    -0.116754   -62.981646
	   59 D(7,2,3,9)      =   -178.697158    -0.000001    -0.120628  -178.817786
	   60 D(7,2,4,10)     =    -57.215629     0.000000     0.010338   -57.205291
	   61 D(7,2,4,11)     =     62.082898    -0.000001     0.002918    62.085816
	   62 D(8,3,5,12)     =     61.604568    -0.000000    -0.004251    61.600317
	   63 D(8,3,5,13)     =    -58.658761    -0.000000     0.010694   -58.648067
	   64 D(8,3,5,14)     =   -178.621910    -0.000000     0.003556  -178.618353
	   65 D(9,3,5,12)     =    178.684321    -0.000000     0.007858   178.692178
	   66 D(9,3,5,13)     =     58.420992     0.000000     0.022802    58.443794
	   67 D(9,3,5,14)     =    -61.542157     0.000000     0.015665   -61.526492
	   68 D(10,4,1,15)    =     60.177135    -0.000000     0.016678    60.193814
	   69 D(11,4,1,15)    =    -59.842144     0.000001     0.077726   -59.764418
	 ---------------------------------------------------------------------------
	Successfully symmetrized geometry.

  ==> Convergence Check <==

  Measures of convergence in internal coordinates in au.
  Criteria marked as inactive (o), active & met (*), and active & unmet ( ).
  ---------------------------------------------------------------------------------------------
   Step     Total Energy     Delta E     MAX Force     RMS Force      MAX Disp      RMS Disp   
  ---------------------------------------------------------------------------------------------
    Convergence Criteria             o    2.50e-03 *    1.70e-03 *    1.00e-02 *    6.70e-03 *
  ---------------------------------------------------------------------------------------------
      3    -233.58296083   -1.51e-04 o    1.61e-03 *    2.30e-04 *    4.20e-03 *    9.65e-04 *  ~
  ---------------------------------------------------------------------------------------------


  **** Optimization is complete! (in 3 steps) ****

  ==> Optimization Summary <==

  Measures of convergence in internal coordinates in au.
  --------------------------------------------------------------------------------------------------------------- ~
   Step         Total Energy             Delta E       MAX Force       RMS Force        MAX Disp        RMS Disp  ~
  --------------------------------------------------------------------------------------------------------------- ~
      1    -233.581163755841   -233.581163755841      0.01601343      0.00378423      0.06042813      0.01780782  ~
      2    -233.582810183086     -0.001646427244      0.00406695      0.00102720      0.01800384      0.00579518  ~
      3    -233.582960834959     -0.000150651873      0.00161315      0.00022976      0.00419891      0.00096516  ~
  --------------------------------------------------------------------------------------------------------------- ~

	Writing optimization data to binary file.
	Final energy is   -233.5829608349589
	Final (previous) structure:
	Cartesian Geometry (in Angstrom)
	    O    -1.8258374672   0.4884667753   0.6295181488
	    C     0.0256886662  -0.1159940445  -0.7602732733
	    C     1.0113121569  -0.1605791042   0.4098783532
	    C    -1.3967562377  -0.4697625470  -0.3653489189
	    C     2.4375134658   0.2033841251  -0.0102835826
	    H     0.0253802668   0.8857950988  -1.1996696013
	    H     0.3470586375  -0.8111248744  -1.5435000561
	    H     1.0030480066  -1.1655282807   0.8467188166
	    H     0.6601293524   0.5202545777   1.1862013664
	    H    -2.0509508212  -0.4314579848  -1.2443014690
	    H    -1.4262061182  -1.4871046155   0.0458482011
	    H     2.8119871267  -0.4852499945  -0.7721152350
	    H     3.1223994859   0.1679935532   0.8390294571
	    H     2.4731862750   1.2127822120  -0.4269432698
	    H    -2.7281757909   0.3061494483   0.9225060679
	Saving final (previous) structure.
			--------------------------
			 OPTKING Finished Execution 
			--------------------------

    Final optimized geometry and variables:
    Molecular point group: c1
    Full point group: C1

    Geometry (in Angstrom), charge = 0, multiplicity = 1:

    O           -1.825837474347     0.488466777172     0.629518151279
    C            0.025688666289    -0.115994044994    -0.760273276304
    C            1.011312160826    -0.160579104833     0.409878354761
    C           -1.396756243214    -0.469762548849    -0.365348920300
    C            2.437513475351     0.203384125948    -0.010283582675
    H            0.025380266921     0.885795102301    -1.199669605985
    H            0.347058638827    -0.811124877589    -1.543500062122
    H            1.003048010512    -1.165528285308     0.846718819977
    H            0.660129355037     0.520254579785     1.186201371089
    H           -2.050950829278    -0.431457986540    -1.244301473940
    H           -1.426206123833    -1.487104621379     0.045848201265
    H            2.811987137722    -0.485249996404    -0.772115238082
    H            3.122399498169     0.167993553814     0.839029460421
    H            2.473186284703     1.212782216736    -0.426943271429
    H           -2.728175801607     0.306149449463     0.922506071545

	Removing binary optimization data file.
	Cleaning optimization helper files.

    Psi4 stopped on: Thursday, 27 May 2021 11:25AM
    Psi4 wall time for execution: 0:00:16.78

*** Psi4 exiting successfully. Buy a developer a beer!
