
    -----------------------------------------------------------------------
          Psi4: An Open-Source Ab Initio Electronic Structure Package
                               Psi4 1.3.2 release

                         Git: Rev {HEAD} ecbda83 


    R. M. Parrish, L. A. Burns, D. G. A. Smith, A. C. Simmonett,
    A. E. DePrince III, E. G. Hohenstein, U. Bozkaya, A. Yu. Sokolov,
    R. Di Remigio, R. M. Richard, J. F. Gonthier, A. M. James,
    H. R. McAlexander, A. Kumar, M. Saitow, X. Wang, B. P. Pritchard,
    P. Verma, H. F. Schaefer III, K. Patkowski, R. A. King, E. F. Valeev,
    F. A. Evangelista, J. M. Turney, T. D. Crawford, and C. D. Sherrill,
    J. Chem. Theory Comput. 13(7) pp 3185--3197 (2017).
    (doi: 10.1021/acs.jctc.7b00174)


                         Additional Contributions by
    P. Kraus, H. Kruse, M. H. Lechner, M. C. Schieber, R. A. Shaw,
    A. Alenaizan, R. Galvelis, Z. L. Glick, S. Lehtola, and J. P. Misiewicz

    -----------------------------------------------------------------------


    Psi4 started on: Thursday, 27 May 2021 11:18AM

    Process ID: 227049
    Host:       daniele-Precision-5750
    PSIDATADIR: /home/daniele/anaconda3/envs/poltype/share/psi4
    Memory:     500.0 MiB
    Threads:    1
    
  ==> Input File <==

--------------------------------------------------------------------------
molecule { 
0 1
 O   -2.120466   -0.350940   -0.819662
 C    0.049419    0.403538   -0.068087
 C    1.226200   -0.480308    0.421934
 C   -1.358792   -0.090983    0.362473
 C    2.613640    0.033249   -0.014215
 H    0.177967    1.427606    0.306893
 H    0.080937    0.483341   -1.162795
 H    1.092388   -1.503473    0.046092
 H    1.200603   -0.551384    1.517444
 H   -1.286798   -0.990967    0.985770
 H   -1.849158    0.670874    0.981660
 H    2.694045    0.077773   -1.105784
 H    3.405117   -0.629129    0.352287
 H    2.807199    1.035848    0.381938
 H   -3.007227   -0.656137   -0.550528
}
set optking { 
  frozen_dihedral = ("
    3 2 4 1
    2 4 1 15
    4 2 3 5
    12 5 3 2
  ")
}
set {
  geom_maxiter 400
  g_convergence GAU_LOOSE
  dynamic_level 1
}
memory 700MB
set_num_threads(8)
psi4_io.set_default_path("/home/daniele/PSI4_sctatch/Psi4-1butanol_3D")
for _ in range(1):
  try:
    set opt_coordinates both
    optimize('wb97x-d/6-311G')
    break
  except OptimizationConvergenceError:
    break
  else:
    try:
      set opt_coordinates cartesian
      optimize('wb97x-d/6-311G')
      break
    except OptimizationConvergenceError:
      pass
clean()
--------------------------------------------------------------------------

  Memory set to 667.572 MiB by Python driver.
  Threads set to 8 by Python driver.
gradient() will perform analytic gradient computation.

*** tstart() called on daniele-Precision-5750
*** at Thu May 27 11:18:33 2021

   => Loading Basis Set <=

    Name: 6-311G
    Role: ORBITAL
    Keyword: BASIS
    atoms 1    entry O          line   126 file /home/daniele/anaconda3/envs/poltype/share/psi4/basis/6-311g.gbs 
    atoms 2-5  entry C          line    92 file /home/daniele/anaconda3/envs/poltype/share/psi4/basis/6-311g.gbs 
    atoms 6-15 entry H          line    21 file /home/daniele/anaconda3/envs/poltype/share/psi4/basis/6-311g.gbs 


         ---------------------------------------------------------
                                   SCF
               by Justin Turney, Rob Parrish, Andy Simmonett
                          and Daniel G. A. Smith
                              RKS Reference
                        8 Threads,    667 MiB Core
         ---------------------------------------------------------

  ==> Geometry <==

    Molecular point group: c1
    Full point group: C1

    Geometry (in Angstrom), charge = 0, multiplicity = 1:

       Center              X                  Y                   Z               Mass       
    ------------   -----------------  -----------------  -----------------  -----------------
         O           -2.144841831588    -0.244721704766    -0.780262176762    15.994914619570
         C            0.025043168412     0.509756295234    -0.028687176762    12.000000000000
         C            1.201824168412    -0.374089704766     0.461333823238    12.000000000000
         C           -1.383167831588     0.015235295234     0.401872823238    12.000000000000
         C            2.589264168412     0.139467295234     0.025184823238    12.000000000000
         H            0.153591168412     1.533824295234     0.346292823238     1.007825032230
         H            0.056561168412     0.589559295234    -1.123395176762     1.007825032230
         H            1.068012168412    -1.397254704766     0.085491823238     1.007825032230
         H            1.176227168412    -0.445165704766     1.556843823238     1.007825032230
         H           -1.311173831588    -0.884748704766     1.025169823238     1.007825032230
         H           -1.873533831588     0.777092295234     1.021059823238     1.007825032230
         H            2.669669168412     0.183991295234    -1.066384176762     1.007825032230
         H            3.380741168412    -0.522910704766     0.391686823238     1.007825032230
         H            2.782823168412     1.142066295234     0.421337823238     1.007825032230
         H           -3.031602831588    -0.549918704766    -0.511128176762     1.007825032230

  Running in c1 symmetry.

  Rotational constants: A =      0.52032  B =      0.06600  C =      0.06474 [cm^-1]
  Rotational constants: A =  15598.90071  B =   1978.70433  C =   1940.96261 [MHz]
  Nuclear repulsion =  183.512446309425712

  Charge       = 0
  Multiplicity = 1
  Electrons    = 42
  Nalpha       = 21
  Nbeta        = 21

  ==> Algorithm <==

  SCF Algorithm Type is DF.
  DIIS enabled.
  MOM disabled.
  Fractional occupation disabled.
  Guess Type is SAD.
  Energy threshold   = 1.00e-08
  Density threshold  = 1.00e-08
  Integral threshold = 0.00e+00

  ==> Primary Basis <==

  Basis Set: 6-311G
    Blend: 6-311G
    Number of shells: 65
    Number of basis function: 95
    Number of Cartesian functions: 95
    Spherical Harmonics?: true
    Max angular momentum: 1

  ==> DFT Potential <==

   => Composite Functional: WB97X-D <= 

    wB97X-D Hyb-GGA Exchange-Correlation Functional

    J.-D. Chai and M. Head-Gordon, Phys. Chem. Chem. Phys. 10, 6615 (2008)

    Deriv               =              1
    GGA                 =           TRUE
    Meta                =          FALSE

    Exchange Hybrid     =           TRUE
    MP2 Hybrid          =          FALSE

   => Exchange-Correlation Functionals <=

    1.0000   wB97D range-separated functional

   => Exact (HF) Exchange <=

    0.7780            HF,LR [omega = 0.2000]
    0.2220               HF 

   => Molecular Quadrature <=

    Radial Scheme          =       TREUTLER
    Pruning Scheme         =           FLAT
    Nuclear Scheme         =       TREUTLER

    BS radius alpha        =              1
    Pruning alpha          =              1
    Radial Points          =             75
    Spherical Points       =            302
    Total Points           =         336139
    Total Blocks           =           2557
    Max Points             =            256
    Max Functions          =             91

   => WB97X-D: Empirical Dispersion <=

    Chai and Head-Gordon Dispersion Correction
    Chai, J.-D.; Head-Gordon, M. (2010), J. Chem. Phys., 132: 6615-6620

        s6 =       1.000000

   => Loading Basis Set <=

    Name: (6-311G AUX)
    Role: JKFIT
    Keyword: DF_BASIS_SCF
    atoms 1    entry O          line   229 file /home/daniele/anaconda3/envs/poltype/share/psi4/basis/cc-pvtz-jkfit.gbs 
    atoms 2-5  entry C          line   125 file /home/daniele/anaconda3/envs/poltype/share/psi4/basis/cc-pvtz-jkfit.gbs 
    atoms 6-15 entry H          line    51 file /home/daniele/anaconda3/envs/poltype/share/psi4/basis/cc-pvtz-jkfit.gbs 

  ==> Pre-Iterations <==

   -------------------------------------------------------
    Irrep   Nso     Nmo     Nalpha   Nbeta   Ndocc  Nsocc
   -------------------------------------------------------
     A         95      95       0       0       0       0
   -------------------------------------------------------
    Total      95      95      21      21      21       0
   -------------------------------------------------------

  ==> Integral Setup <==

  ==> DiskDFJK: Density-Fitted J/K Matrices <==

    J tasked:                  Yes
    K tasked:                  Yes
    wK tasked:                 Yes
    Omega:               2.000E-01
    OpenMP threads:              8
    Integrals threads:           8
    Memory [MiB]:               34
    Algorithm:                Disk
    Integral Cache:           NONE
    Schwarz Cutoff:          1E-12
    Fitting Condition:       1E-10

   => Auxiliary Basis Set <=

  Basis Set: (6-311G AUX)
    Blend: CC-PVTZ-JKFIT
    Number of shells: 225
    Number of basis function: 695
    Number of Cartesian functions: 830
    Spherical Harmonics?: true
    Max angular momentum: 4

  Cached 100.0% of DFT collocation blocks in 0.660 [GiB].

  Minimum eigenvalue in the overlap matrix is 2.5912672446E-03.
  Using Symmetric Orthogonalization.

  SCF Guess: Superposition of Atomic Densities via on-the-fly atomic UHF.

  ==> Iterations <==

                           Total Energy        Delta E     RMS |[F,P]|

   @DF-RKS iter SAD:  -232.82790192290372   -2.32828e+02   0.00000e+00 
   @DF-RKS iter   1:  -233.27401156883687   -4.46110e-01   8.27530e-03 DIIS
   @DF-RKS iter   2:  -233.36734642436127   -9.33349e-02   7.43240e-03 DIIS
   @DF-RKS iter   3:  -233.57303610798758   -2.05690e-01   8.66841e-04 DIIS
   @DF-RKS iter   4:  -233.57534863631480   -2.31253e-03   3.26136e-04 DIIS
   @DF-RKS iter   5:  -233.57577846921640   -4.29833e-04   3.31612e-05 DIIS
   @DF-RKS iter   6:  -233.57578482721661   -6.35800e-06   1.58345e-05 DIIS
   @DF-RKS iter   7:  -233.57578596559540   -1.13838e-06   2.05311e-06 DIIS
   @DF-RKS iter   8:  -233.57578600179255   -3.61972e-08   3.45946e-07 DIIS
   @DF-RKS iter   9:  -233.57578600296074   -1.16819e-09   9.76086e-08 DIIS
   @DF-RKS iter  10:  -233.57578600302918   -6.84395e-11   4.09564e-08 DIIS
   @DF-RKS iter  11:  -233.57578600304006   -1.08855e-11   6.47920e-09 DIIS
  Energy and wave function converged.


  ==> Post-Iterations <==

    Orbital Energies [Eh]
    ---------------------

    Doubly Occupied:                                                      

       1A    -19.237328     2A    -10.330602     3A    -10.280774  
       4A    -10.277968     5A    -10.269707     6A     -1.124945  
       7A     -0.889104     8A     -0.817680     9A     -0.726119  
      10A     -0.676180    11A     -0.604683    12A     -0.550831  
      13A     -0.531105    14A     -0.514386    15A     -0.475918  
      16A     -0.456005    17A     -0.437851    18A     -0.414070  
      19A     -0.406820    20A     -0.399286    21A     -0.348499  

    Virtual:                                                              

      22A      0.116607    23A      0.128517    24A      0.152103  
      25A      0.157304    26A      0.176039    27A      0.197486  
      28A      0.205284    29A      0.213841    30A      0.216252  
      31A      0.237608    32A      0.273351    33A      0.291690  
      34A      0.296559    35A      0.331358    36A      0.393565  
      37A      0.404443    38A      0.420474    39A      0.441401  
      40A      0.452781    41A      0.475955    42A      0.517312  
      43A      0.552632    44A      0.581858    45A      0.610607  
      46A      0.624605    47A      0.640190    48A      0.664026  
      49A      0.669157    50A      0.678577    51A      0.688330  
      52A      0.689484    53A      0.694553    54A      0.709339  
      55A      0.724709    56A      0.729829    57A      0.764392  
      58A      0.847504    59A      0.959773    60A      0.991472  
      61A      1.052902    62A      1.064260    63A      1.090535  
      64A      1.226515    65A      1.591966    66A      2.261282  
      67A      2.325959    68A      2.345539    69A      2.351489  
      70A      2.355842    71A      2.365213    72A      2.374971  
      73A      2.406666    74A      2.418489    75A      2.429912  
      76A      2.852408    77A      2.891840    78A      2.917005  
      79A      2.944216    80A      2.950294    81A      2.953026  
      82A      2.982557    83A      3.085683    84A      3.097315  
      85A      3.171521    86A      3.191673    87A      3.294390  
      88A      4.951417    89A      5.012532    90A      5.150636  
      91A     23.431992    92A     23.553586    93A     23.643382  
      94A     23.715894    95A     49.959993  

    Final Occupation by Irrep:
              A 
    DOCC [    21 ]

  @DF-RKS Final Energy:  -233.57578600304006

   => Energetics <=

    Nuclear Repulsion Energy =            183.5124463094257123
    One-Electron Energy =                -678.9360548270736899
    Two-Electron Energy =                 285.0721856862502364
    DFT Exchange-Correlation Energy =     -23.2175923128253530
    Empirical Dispersion Energy =          -0.0067708588170287
    VV10 Nonlocal Energy =                  0.0000000000000000
    Total Energy =                       -233.5757860030400934

Computation Completed


Properties will be evaluated at   0.000000,   0.000000,   0.000000 [a0]

Properties computed using the SCF density matrix

  Nuclear Dipole Moment: [e a0]
     X:     4.7439      Y:     0.3987      Z:     2.0090

  Electronic Dipole Moment: [e a0]
     X:    -4.9917      Y:    -0.4951      Z:    -1.3096

  Dipole Moment: [e a0]
     X:    -0.2478      Y:    -0.0964      Z:     0.6994     Total:     0.7482

  Dipole Moment: [D]
     X:    -0.6297      Y:    -0.2450      Z:     1.7777     Total:     1.9018


*** tstop() called on daniele-Precision-5750 at Thu May 27 11:18:38 2021
Module time:
	user time   =      29.68 seconds =       0.49 minutes
	system time =       0.72 seconds =       0.01 minutes
	total time  =          5 seconds =       0.08 minutes
Total time:
	user time   =      29.68 seconds =       0.49 minutes
	system time =       0.72 seconds =       0.01 minutes
	total time  =          5 seconds =       0.08 minutes

*** tstart() called on daniele-Precision-5750
*** at Thu May 27 11:18:38 2021


         ------------------------------------------------------------
                                   SCF GRAD                          
                          Rob Parrish, Justin Turney,                
                       Andy Simmonett, and Alex Sokolov              
         ------------------------------------------------------------

  ==> Geometry <==

    Molecular point group: c1
    Full point group: C1

    Geometry (in Angstrom), charge = 0, multiplicity = 1:

       Center              X                  Y                   Z               Mass       
    ------------   -----------------  -----------------  -----------------  -----------------
         O           -2.144841831588    -0.244721704766    -0.780262176762    15.994914619570
         C            0.025043168412     0.509756295234    -0.028687176762    12.000000000000
         C            1.201824168412    -0.374089704766     0.461333823238    12.000000000000
         C           -1.383167831588     0.015235295234     0.401872823238    12.000000000000
         C            2.589264168412     0.139467295234     0.025184823238    12.000000000000
         H            0.153591168412     1.533824295234     0.346292823238     1.007825032230
         H            0.056561168412     0.589559295234    -1.123395176762     1.007825032230
         H            1.068012168412    -1.397254704766     0.085491823238     1.007825032230
         H            1.176227168412    -0.445165704766     1.556843823238     1.007825032230
         H           -1.311173831588    -0.884748704766     1.025169823238     1.007825032230
         H           -1.873533831588     0.777092295234     1.021059823238     1.007825032230
         H            2.669669168412     0.183991295234    -1.066384176762     1.007825032230
         H            3.380741168412    -0.522910704766     0.391686823238     1.007825032230
         H            2.782823168412     1.142066295234     0.421337823238     1.007825032230
         H           -3.031602831588    -0.549918704766    -0.511128176762     1.007825032230

  Nuclear repulsion =  183.512446309425712

  ==> Basis Set <==

  Basis Set: 6-311G
    Blend: 6-311G
    Number of shells: 65
    Number of basis function: 95
    Number of Cartesian functions: 95
    Spherical Harmonics?: true
    Max angular momentum: 1

  ==> DFJKGrad: Density-Fitted SCF Gradients <==

    Gradient:                    1
    J tasked:                  Yes
    K tasked:                  Yes
    wK tasked:                 Yes
    Omega:               2.000E-01
    OpenMP threads:              8
    Integrals threads:           8
    Memory [MiB]:              500
    Schwarz Cutoff:          0E+00
    Fitting Condition:       1E-10

   => Auxiliary Basis Set <=

  Basis Set: (6-311G AUX)
    Blend: CC-PVTZ-JKFIT
    Number of shells: 225
    Number of basis function: 695
    Number of Cartesian functions: 830
    Spherical Harmonics?: true
    Max angular momentum: 4

  ==> DFT Potential <==

   => Composite Functional: WB97X-D <= 

    wB97X-D Hyb-GGA Exchange-Correlation Functional

    J.-D. Chai and M. Head-Gordon, Phys. Chem. Chem. Phys. 10, 6615 (2008)

    Deriv               =              1
    GGA                 =           TRUE
    Meta                =          FALSE

    Exchange Hybrid     =           TRUE
    MP2 Hybrid          =          FALSE

   => Exchange-Correlation Functionals <=

    1.0000   wB97D range-separated functional

   => Exact (HF) Exchange <=

    0.7780            HF,LR [omega = 0.2000]
    0.2220               HF 

   => Molecular Quadrature <=

    Radial Scheme          =       TREUTLER
    Pruning Scheme         =           FLAT
    Nuclear Scheme         =       TREUTLER

    BS radius alpha        =              1
    Pruning alpha          =              1
    Radial Points          =             75
    Spherical Points       =            302
    Total Points           =         336139
    Total Blocks           =           2557
    Max Points             =            256
    Max Functions          =             91


  -Total Gradient:
     Atom            X                  Y                   Z
    ------   -----------------  -----------------  -----------------
       1        0.015320508735     0.005773985240     0.002523289921
       2        0.000040828349    -0.000156847374    -0.005285726090
       3        0.002541276417    -0.001879199551     0.001509006450
       4       -0.019016590232    -0.005907567236    -0.006511719743
       5        0.003911591064     0.000710461317    -0.000972946724
       6       -0.003378058080     0.002498051846     0.000360785367
       7        0.003350091390     0.003313989691    -0.003570885483
       8        0.001388165676    -0.002436200948    -0.000156638793
       9        0.000610514129    -0.000741972218     0.001692626032
      10       -0.003070739694     0.001795693114     0.001837557011
      11       -0.000142808658    -0.000993861128     0.001844446058
      12        0.000827074932    -0.000236382498    -0.001975456823
      13        0.001756233959    -0.001347576527     0.000676081803
      14        0.000765250645     0.001279514188     0.000987238708
      15       -0.004965070507    -0.001759273610     0.007068310460


*** tstop() called on daniele-Precision-5750 at Thu May 27 11:18:39 2021
Module time:
	user time   =      13.72 seconds =       0.23 minutes
	system time =       0.13 seconds =       0.00 minutes
	total time  =          1 seconds =       0.02 minutes
Total time:
	user time   =      43.41 seconds =       0.72 minutes
	system time =       0.85 seconds =       0.01 minutes
	total time  =          6 seconds =       0.10 minutes

			-----------------------------------------
			 OPTKING 2.0: for geometry optimizations 
			  - R.A. King,  Bethel University        
			-----------------------------------------
	At level 1: Red. Int., RFO, no backsteps, dynamic trust

	Internal coordinates to be generated automatically.
	Detected frag 1 with atoms:  1 2 3 4 5 6 7 8 9 10 11 12 13 14 15
	---Fragment 1 Bond Connectivity---
	 1 : 4 15
	 2 : 3 4 6 7
	 3 : 2 5 8 9
	 4 : 1 2 10 11
	 5 : 3 12 13 14
	 6 : 2
	 7 : 2
	 8 : 3
	 9 : 3
	 10 : 4
	 11 : 4
	 12 : 5
	 13 : 5
	 14 : 5
	 15 : 1

	Assuming in current code that numbering for constraints corresponds to unified fragment.
	Frozen dihedral atom list: 
	     3     2     4     1
	     2     4     1    15
	     4     2     3     5
	    12     5     3     2
	---Fragment 1 Geometry and Gradient---
	 O          -4.0531636441       -0.4624569990       -1.4744818201
	 C           0.0473247296        0.9632997887       -0.0542109074
	 C           2.2711185293       -0.7069270884        0.8717945783
	 C          -2.6138083872        0.0287905354        0.7594295732
	 C           4.8930001448        0.2635549914        0.0475924184
	 H           0.2902452436        2.8985078426        0.6543985951
	 H           0.1068851176        1.1141056027       -2.1229092147
	 H           2.0182504970       -2.6404287195        0.1615561319
	 H           2.2227472096       -0.8412412625        2.9420084460
	 H          -2.4777594446       -1.6719327419        1.9372901980
	 H          -3.5404658285        1.4684916122        1.9295234236
	 H           5.0449435739        0.3476931575       -2.0151740386
	 H           6.3886749094       -0.9881580201        0.7401808229
	 H           5.2587736439        2.1581925151        0.7962130922
	 H          -5.7288990729       -1.0391957433       -0.9658922691
	             0.0153205087        0.0057739852        0.0025232899
	             0.0000408283       -0.0001568474       -0.0052857261
	             0.0025412764       -0.0018791996        0.0015090064
	            -0.0190165902       -0.0059075672       -0.0065117197
	             0.0039115911        0.0007104613       -0.0009729467
	            -0.0033780581        0.0024980518        0.0003607854
	             0.0033500914        0.0033139897       -0.0035708855
	             0.0013881657       -0.0024362009       -0.0001566388
	             0.0006105141       -0.0007419722        0.0016926260
	            -0.0030707397        0.0017956931        0.0018375570
	            -0.0001428087       -0.0009938611        0.0018444461
	             0.0008270749       -0.0002363825       -0.0019754568
	             0.0017562340       -0.0013475765        0.0006760818
	             0.0007652506        0.0012795142        0.0009872387
	            -0.0049650705       -0.0017592736        0.0070683105

	Previous optimization step data not found.  Starting new optimization.

	---Fragment 1 Intrafragment Coordinates---
	 - Coordinate -           - BOHR/RAD -       - ANG/DEG -
	 R(1,4)           =         2.702485	       1.430094
	 R(1,15)          =         1.843741	       0.975666
	 R(2,3)           =         2.931280	       1.551167
	 R(2,4)           =         2.935464	       1.553381
	 R(2,6)           =         2.075131	       1.098112
	 R(2,7)           =         2.075043	       1.098065
	 R(3,5)           =         2.914688	       1.542387
	 R(3,8)           =         2.075285	       1.098194
	 R(3,9)           =         2.075130	       1.098112
	 R(4,10)          =         2.073240	       1.097111
	 R(4,11)          =         2.073777	       1.097396
	 R(5,12)          =         2.070066	       1.095432
	 R(5,13)          =         2.069664	       1.095219
	 R(5,14)          =         2.069752	       1.095266
	 B(1,4,2)         =         1.887653	     108.154561
	 B(1,4,10)        =         1.934198	     110.821372
	 B(1,4,11)        =         1.933291	     110.769397
	 B(2,3,5)         =         1.986004	     113.789635
	 B(2,3,8)         =         1.907432	     109.287786
	 B(2,3,9)         =         1.911715	     109.533182
	 B(2,4,10)        =         1.938135	     111.046932
	 B(2,4,11)        =         1.918208	     109.905210
	 B(3,2,4)         =         2.002907	     114.758109
	 B(3,2,6)         =         1.912074	     109.553750
	 B(3,2,7)         =         1.911949	     109.546625
	 B(3,5,12)        =         1.940499	     111.182404
	 B(3,5,13)        =         1.932713	     110.736294
	 B(3,5,14)        =         1.940654	     111.191295
	 B(4,1,15)        =         1.889057	     108.234989
	 B(4,2,6)         =         1.884264	     107.960366
	 B(4,2,7)         =         1.902322	     108.995019
	 B(5,3,8)         =         1.899742	     108.847182
	 B(5,3,9)         =         1.901412	     108.942857
	 B(6,2,7)         =         1.843460	     105.622456
	 B(8,3,9)         =         1.852801	     106.157686
	 B(10,4,11)       =         1.852787	     106.156864
	 B(12,5,13)       =         1.880731	     107.757933
	 B(12,5,14)       =         1.886245	     108.073849
	 B(13,5,14)       =         1.880601	     107.750475
	*D(1,4,2,3)       =        -2.093975	    -119.975949
	 D(1,4,2,6)       =         2.051606	     117.548347
	 D(1,4,2,7)       =         0.057281	       3.281972
	*D(2,3,5,12)      =        -1.045277	     -59.889976
	 D(2,3,5,13)      =        -3.135597	    -179.656455
	 D(2,3,5,14)      =         1.057331	      60.580600
	*D(2,4,1,15)      =        -3.135281	    -179.638362
	 D(3,2,4,10)      =         0.031883	       1.826789
	 D(3,2,4,11)      =         2.076671	     118.984459
	*D(4,2,3,5)       =        -3.138451	    -179.820008
	 D(4,2,3,8)       =         1.017329	      58.288680
	 D(4,2,3,9)       =        -1.005715	     -57.623210
	 D(5,3,2,6)       =        -1.015936	     -58.208826
	 D(5,3,2,7)       =         0.998639	      57.217797
	 D(6,2,3,8)       =         3.139845	     179.899863
	 D(6,2,3,9)       =         1.116801	      63.987973
	 D(6,2,4,10)      =        -2.105721	    -120.648915
	 D(6,2,4,11)      =        -0.060934	      -3.491244
	 D(7,2,3,8)       =        -1.128766	     -64.673515
	 D(7,2,3,9)       =         3.131375	     179.414596
	 D(7,2,4,10)      =         2.183140	     125.084710
	 D(7,2,4,11)      =        -2.055258	    -117.757620
	 D(8,3,5,12)      =         1.086379	      62.244931
	 D(8,3,5,13)      =        -1.003940	     -57.521548
	 D(8,3,5,14)      =        -3.094198	    -177.284493
	 D(9,3,5,12)      =         3.099497	     177.588090
	 D(9,3,5,13)      =         1.009177	      57.821611
	 D(9,3,5,14)      =        -1.081080	     -61.941334
	 D(10,4,1,15)     =         1.019624	      58.420124
	 D(11,4,1,15)     =        -1.032131	     -59.136733

	Current energy   :      -233.5757860030

	Generating empirical Hessian (Schlegel '84) for each fragment.
	Taking RFO optimization step.
	Going to follow RFO solution 1.
	Using RFO vector 1.
	Norm of target step-size    0.18858
	Projected energy change by RFO approximation:        -0.0066086915

	Back-transformation to cartesian coordinates...
	Successfully converged to displaced geometry.

	Back-transformation to cartesian coordinates to adjust frozen coordinates...
	Successfully converged to displaced geometry.

	--- Internal Coordinate Step in ANG or DEG, aJ/ANG or AJ/DEG ---
	 ---------------------------------------------------------------------------
	   Coordinate                Previous        Force       Change         New 
	   ----------                --------       ------       ------       ------
	    1 R(1,4)          =      1.430094     0.116670     0.018115     1.448208
	    2 R(1,15)         =      0.975666    -0.057674    -0.007039     0.968627
	    3 R(2,3)          =      1.551167    -0.100333    -0.023061     1.528106
	    4 R(2,4)          =      1.553381    -0.106602    -0.024667     1.528714
	    5 R(2,6)          =      1.098112    -0.016981    -0.003181     1.094931
	    6 R(2,7)          =      1.098065    -0.032158    -0.006024     1.092042
	    7 R(3,5)          =      1.542387    -0.057997    -0.012979     1.529407
	    8 R(3,8)          =      1.098194    -0.017687    -0.003314     1.094879
	    9 R(3,9)          =      1.098112    -0.014223    -0.002665     1.095447
	   10 R(4,10)         =      1.097111     0.005307     0.000991     1.098102
	   11 R(4,11)         =      1.097396    -0.003414    -0.000638     1.096758
	   12 R(5,12)         =      1.095432    -0.016573    -0.003078     1.092354
	   13 R(5,13)         =      1.095219    -0.019079    -0.003541     1.091678
	   14 R(5,14)         =      1.095266    -0.013751    -0.002552     1.092713
	   15 B(1,4,2)        =    108.154561     0.000095     0.045274   108.199835
	   16 B(1,4,10)       =    110.821372     0.000009    -0.130211   110.691161
	   17 B(1,4,11)       =    110.769397    -0.000030    -0.078439   110.690958
	   18 B(2,3,5)        =    113.789635    -0.000323    -1.264350   112.525286
	   19 B(2,3,8)        =    109.287786     0.000002    -0.341163   108.946623
	   20 B(2,3,9)        =    109.533182     0.000068    -0.162943   109.370240
	   21 B(2,4,10)       =    111.046932    -0.000217    -1.552923   109.494008
	   22 B(2,4,11)       =    109.905210    -0.000045     0.120085   110.025296
	   23 B(3,2,4)        =    114.758109    -0.000358    -1.549872   113.208237
	   24 B(3,2,6)        =    109.553750    -0.000091    -0.447313   109.106437
	   25 B(3,2,7)        =    109.546625     0.000228     0.271620   109.818245
	   26 B(3,5,12)       =    111.182404    -0.000060    -0.365502   110.816902
	   27 B(3,5,13)       =    110.736294     0.000013     0.182852   110.919146
	   28 B(3,5,14)       =    111.191295    -0.000021    -0.152220   111.039075
	   29 B(4,1,15)       =    108.234989     0.000748     3.410967   111.645956
	   30 B(4,2,6)        =    107.960366     0.000329     2.434190   110.394557
	   31 B(4,2,7)        =    108.995019    -0.000101    -1.832358   107.162661
	   32 B(5,3,8)        =    108.847182     0.000239     1.051360   109.898542
	   33 B(5,3,9)        =    108.942857     0.000061     0.324103   109.266959
	   34 B(6,2,7)        =    105.622456     0.000023     1.328303   106.950760
	   35 B(8,3,9)        =    106.157686    -0.000025     0.502326   106.660012
	   36 B(10,4,11)      =    106.156864     0.000184     1.580531   107.737396
	   37 B(12,5,13)      =    107.757933     0.000036     0.278738   108.036671
	   38 B(12,5,14)      =    108.073849     0.000010    -0.187094   107.886755
	   39 B(13,5,14)      =    107.750475     0.000026     0.263270   108.013745
	   40 *D(1,4,2,3)     =   -119.975949    -0.000000    -0.000000  -119.975949
	   41 D(1,4,2,6)      =    117.548347     0.000026    -0.165301   117.383046
	   42 D(1,4,2,7)      =      3.281972    -0.000008    -2.026177     1.255795
	   43 *D(2,3,5,12)    =    -59.889976    -0.000000    -0.000000   -59.889976
	   44 D(2,3,5,13)     =   -179.656455    -0.000003    -0.230536  -179.886991
	   45 D(2,3,5,14)     =     60.580600    -0.000010    -0.583021    59.997579
	   46 *D(2,4,1,15)    =   -179.638362     0.000000    -0.000000  -179.638362
	   47 D(3,2,4,10)     =      1.826789    -0.000014    -1.076061     0.750727
	   48 D(3,2,4,11)     =    118.984459     0.000001    -0.004536   118.979923
	   49 *D(4,2,3,5)     =   -179.820008    -0.000000    -0.000000  -179.820008
	   50 D(4,2,3,8)      =     58.288680    -0.000020    -0.245539    58.043141
	   51 D(4,2,3,9)      =    -57.623210    -0.000022    -0.564643   -58.187853
	   52 D(5,3,2,6)      =    -58.208826     0.000025     1.742100   -56.466726
	   53 D(5,3,2,7)      =     57.217797     0.000049     3.239626    60.457422
	   54 D(6,2,3,8)      =    179.899863     0.000005     1.496561   181.396424
	   55 D(6,2,3,9)      =     63.987973     0.000003     1.177457    65.165430
	   56 D(6,2,4,10)     =   -120.648915     0.000012    -1.241363  -121.890277
	   57 D(6,2,4,11)     =     -3.491244     0.000027    -0.169837    -3.661081
	   58 D(7,2,3,8)      =    -64.673515     0.000029     2.994087   -61.679428
	   59 D(7,2,3,9)      =    179.414596     0.000027     2.674982   182.089578
	   60 D(7,2,4,10)     =    125.084710    -0.000022    -3.102239   121.982471
	   61 D(7,2,4,11)     =   -117.757620    -0.000007    -2.030713  -119.788333
	   62 D(8,3,5,12)     =     62.244931    -0.000010    -0.537998    61.706933
	   63 D(8,3,5,13)     =    -57.521548    -0.000013    -0.768534   -58.290082
	   64 D(8,3,5,14)     =   -177.284493    -0.000019    -1.121019  -178.405512
	   65 D(9,3,5,12)     =    177.588090     0.000021     0.831068   178.419158
	   66 D(9,3,5,13)     =     57.821611     0.000017     0.600532    58.422143
	   67 D(9,3,5,14)     =    -61.941334     0.000011     0.248047   -61.693287
	   68 D(10,4,1,15)    =     58.420124     0.000046     1.962683    60.382807
	   69 D(11,4,1,15)    =    -59.136733    -0.000003     0.128754   -59.007978
	 ---------------------------------------------------------------------------
	Successfully symmetrized geometry.

  ==> Convergence Check <==

  Measures of convergence in internal coordinates in au.
  Criteria marked as inactive (o), active & met (*), and active & unmet ( ).
  --------------------------------------------------------------------------------------------- ~
   Step     Total Energy     Delta E     MAX Force     RMS Force      MAX Disp      RMS Disp    ~
  --------------------------------------------------------------------------------------------- ~
    Convergence Criteria             o    2.50e-03 *    1.70e-03 *    1.00e-02 *    6.70e-03 *  ~
  --------------------------------------------------------------------------------------------- ~
      1    -233.57578600   -2.34e+02 o    1.42e-02      3.59e-03      5.95e-02      2.27e-02    ~
  ---------------------------------------------------------------------------------------------

	Writing optimization data to binary file.
	Structure for next step:
	Cartesian Geometry (in Angstrom)
	    O    -2.1308495119  -0.1939734236  -0.7661568652
	    C     0.0432582927   0.5245818103  -0.0084309309
	    C     1.1771898297  -0.3897061457   0.4535033857
	    C    -1.3390192118   0.0358074085   0.4244365932
	    C     2.5526923012   0.1159521394   0.0160220961
	    H     0.2243742477   1.5374186904   0.3660440077
	    H     0.0369428587   0.5846615374  -1.0988003409
	    H     1.0065760260  -1.3958565049   0.0568764317
	    H     1.1537043171  -0.4744079022   1.5454183593
	    H    -1.2348857005  -0.8899414187   1.0057921363
	    H    -1.8167741588   0.7833505706   1.0692672465
	    H     2.6133183038   0.1833796257  -1.0725615743
	    H     3.3419230085  -0.5565555141   0.3575029312
	    H     2.7541226737   1.1088094353   0.4255130000
	    H    -3.0231367709  -0.5013378820  -0.5480091368
			--------------------------
			 OPTKING Finished Execution 
			--------------------------

    Structure for next step:
    Molecular point group: c1
    Full point group: C1

    Geometry (in Angstrom), charge = 0, multiplicity = 1:

    O           -2.133852334987    -0.203687125700    -0.772843376430
    C            0.040255478144     0.514868110987    -0.015117439184
    C            1.174187019591    -0.399419848616     0.446816879274
    C           -1.342022031788     0.026093707302     0.417750086642
    C            2.549689496487     0.106238438516     0.009335587871
    H            0.221371433860     1.527704995045     0.359357500904
    H            0.033940044147     0.574947838317    -1.105486853443
    H            1.003573215267    -1.405570211739     0.050189923717
    H            1.150701506911    -0.484121605390     1.538731857140
    H           -1.237888520014    -0.899655123588     0.999105632011
    H           -1.819776980663     0.773636872301     1.062580742404
    H            2.610315499417     0.173665925091    -1.079248086771
    H            3.338920206919    -0.566269217627     0.350816424373
    H            2.751119869852     1.099095738330     0.418826493463
    H           -3.026139597508    -0.511051585298    -0.554695647239

gradient() will perform analytic gradient computation.

*** tstart() called on daniele-Precision-5750
*** at Thu May 27 11:18:39 2021

   => Loading Basis Set <=

    Name: 6-311G
    Role: ORBITAL
    Keyword: BASIS
    atoms 1    entry O          line   126 file /home/daniele/anaconda3/envs/poltype/share/psi4/basis/6-311g.gbs 
    atoms 2-5  entry C          line    92 file /home/daniele/anaconda3/envs/poltype/share/psi4/basis/6-311g.gbs 
    atoms 6-15 entry H          line    21 file /home/daniele/anaconda3/envs/poltype/share/psi4/basis/6-311g.gbs 


         ---------------------------------------------------------
                                   SCF
               by Justin Turney, Rob Parrish, Andy Simmonett
                          and Daniel G. A. Smith
                              RKS Reference
                        8 Threads,    667 MiB Core
         ---------------------------------------------------------

  ==> Geometry <==

    Molecular point group: c1
    Full point group: C1

    Geometry (in Angstrom), charge = 0, multiplicity = 1:

       Center              X                  Y                   Z               Mass       
    ------------   -----------------  -----------------  -----------------  -----------------
         O           -2.133852334987    -0.203687125700    -0.772843376430    15.994914619570
         C            0.040255478144     0.514868110987    -0.015117439184    12.000000000000
         C            1.174187019591    -0.399419848616     0.446816879274    12.000000000000
         C           -1.342022031788     0.026093707302     0.417750086642    12.000000000000
         C            2.549689496487     0.106238438516     0.009335587871    12.000000000000
         H            0.221371433860     1.527704995045     0.359357500904     1.007825032230
         H            0.033940044147     0.574947838317    -1.105486853443     1.007825032230
         H            1.003573215267    -1.405570211739     0.050189923717     1.007825032230
         H            1.150701506911    -0.484121605390     1.538731857140     1.007825032230
         H           -1.237888520014    -0.899655123588     0.999105632011     1.007825032230
         H           -1.819776980663     0.773636872301     1.062580742404     1.007825032230
         H            2.610315499417     0.173665925091    -1.079248086771     1.007825032230
         H            3.338920206919    -0.566269217627     0.350816424373     1.007825032230
         H            2.751119869852     1.099095738330     0.418826493463     1.007825032230
         H           -3.026139597508    -0.511051585298    -0.554695647239     1.007825032230

  Running in c1 symmetry.

  Rotational constants: A =      0.51947  B =      0.06787  C =      0.06655 [cm^-1]
  Rotational constants: A =  15573.24828  B =   2034.82257  C =   1995.24819 [MHz]
  Nuclear repulsion =  185.024676548753575

  Charge       = 0
  Multiplicity = 1
  Electrons    = 42
  Nalpha       = 21
  Nbeta        = 21

  ==> Algorithm <==

  SCF Algorithm Type is DF.
  DIIS enabled.
  MOM disabled.
  Fractional occupation disabled.
  Guess Type is READ.
  Energy threshold   = 1.00e-08
  Density threshold  = 1.00e-08
  Integral threshold = 0.00e+00

  ==> Primary Basis <==

  Basis Set: 6-311G
    Blend: 6-311G
    Number of shells: 65
    Number of basis function: 95
    Number of Cartesian functions: 95
    Spherical Harmonics?: true
    Max angular momentum: 1

  ==> DFT Potential <==

   => Composite Functional: WB97X-D <= 

    wB97X-D Hyb-GGA Exchange-Correlation Functional

    J.-D. Chai and M. Head-Gordon, Phys. Chem. Chem. Phys. 10, 6615 (2008)

    Deriv               =              1
    GGA                 =           TRUE
    Meta                =          FALSE

    Exchange Hybrid     =           TRUE
    MP2 Hybrid          =          FALSE

   => Exchange-Correlation Functionals <=

    1.0000   wB97D range-separated functional

   => Exact (HF) Exchange <=

    0.7780            HF,LR [omega = 0.2000]
    0.2220               HF 

   => Molecular Quadrature <=

    Radial Scheme          =       TREUTLER
    Pruning Scheme         =           FLAT
    Nuclear Scheme         =       TREUTLER

    BS radius alpha        =              1
    Pruning alpha          =              1
    Radial Points          =             75
    Spherical Points       =            302
    Total Points           =         336131
    Total Blocks           =           2539
    Max Points             =            256
    Max Functions          =             91

   => WB97X-D: Empirical Dispersion <=

    Chai and Head-Gordon Dispersion Correction
    Chai, J.-D.; Head-Gordon, M. (2010), J. Chem. Phys., 132: 6615-6620

        s6 =       1.000000

   => Loading Basis Set <=

    Name: (6-311G AUX)
    Role: JKFIT
    Keyword: DF_BASIS_SCF
    atoms 1    entry O          line   229 file /home/daniele/anaconda3/envs/poltype/share/psi4/basis/cc-pvtz-jkfit.gbs 
    atoms 2-5  entry C          line   125 file /home/daniele/anaconda3/envs/poltype/share/psi4/basis/cc-pvtz-jkfit.gbs 
    atoms 6-15 entry H          line    51 file /home/daniele/anaconda3/envs/poltype/share/psi4/basis/cc-pvtz-jkfit.gbs 

   => Loading Basis Set <=

    Name: 6-311G
    Role: ORBITAL
    Keyword: BASIS
    atoms 1    entry O          line   126 file /home/daniele/anaconda3/envs/poltype/share/psi4/basis/6-311g.gbs 
    atoms 2-5  entry C          line    92 file /home/daniele/anaconda3/envs/poltype/share/psi4/basis/6-311g.gbs 
    atoms 6-15 entry H          line    21 file /home/daniele/anaconda3/envs/poltype/share/psi4/basis/6-311g.gbs 

  Reading orbitals from file 180, no projection.

  ==> Pre-Iterations <==

   -------------------------------------------------------
    Irrep   Nso     Nmo     Nalpha   Nbeta   Ndocc  Nsocc
   -------------------------------------------------------
     A         95      95       0       0       0       0
   -------------------------------------------------------
    Total      95      95      21      21      21       0
   -------------------------------------------------------

  ==> Integral Setup <==

  ==> DiskDFJK: Density-Fitted J/K Matrices <==

    J tasked:                  Yes
    K tasked:                  Yes
    wK tasked:                 Yes
    Omega:               2.000E-01
    OpenMP threads:              8
    Integrals threads:           8
    Memory [MiB]:               34
    Algorithm:                Disk
    Integral Cache:           NONE
    Schwarz Cutoff:          1E-12
    Fitting Condition:       1E-10

   => Auxiliary Basis Set <=

  Basis Set: (6-311G AUX)
    Blend: CC-PVTZ-JKFIT
    Number of shells: 225
    Number of basis function: 695
    Number of Cartesian functions: 830
    Spherical Harmonics?: true
    Max angular momentum: 4

  Cached 100.0% of DFT collocation blocks in 0.666 [GiB].

  Minimum eigenvalue in the overlap matrix is 2.3003377090E-03.
  Using Symmetric Orthogonalization.

  SCF Guess: Orbitals guess was supplied from a previous computation.

  ==> Iterations <==

                           Total Energy        Delta E     RMS |[F,P]|

   @DF-RKS iter   0:  -233.58983967139960   -2.33590e+02   9.68887e-04 
   @DF-RKS iter   1:  -233.57740300267145    1.24367e-02   1.43697e-04 DIIS
   @DF-RKS iter   2:  -233.57750176582692   -9.87632e-05   1.01881e-04 DIIS
   @DF-RKS iter   3:  -233.57753742835769   -3.56625e-05   3.00552e-05 DIIS
   @DF-RKS iter   4:  -233.57754105300168   -3.62464e-06   9.82002e-06 DIIS
   @DF-RKS iter   5:  -233.57754150249531   -4.49494e-07   2.33155e-06 DIIS
   @DF-RKS iter   6:  -233.57754153408320   -3.15879e-08   2.97843e-07 DIIS
   @DF-RKS iter   7:  -233.57754153493366   -8.50463e-10   1.52819e-07 DIIS
   @DF-RKS iter   8:  -233.57754153507435   -1.40687e-10   2.70555e-08 DIIS
   @DF-RKS iter   9:  -233.57754153508159   -7.24754e-12   5.12683e-09 DIIS
  Energy and wave function converged.


  ==> Post-Iterations <==

    Orbital Energies [Eh]
    ---------------------

    Doubly Occupied:                                                      

       1A    -19.234324     2A    -10.329483     3A    -10.277277  
       4A    -10.273156     5A    -10.267316     6A     -1.117326  
       7A     -0.897545     8A     -0.821391     9A     -0.726074  
      10A     -0.676632    11A     -0.604531    12A     -0.553794  
      13A     -0.532327    14A     -0.517792    15A     -0.474521  
      16A     -0.456528    17A     -0.435067    18A     -0.415619  
      19A     -0.407106    20A     -0.397994    21A     -0.349034  

    Virtual:                                                              

      22A      0.119032    23A      0.129353    24A      0.152094  
      25A      0.156376    26A      0.175644    27A      0.198111  
      28A      0.207598    29A      0.213588    30A      0.219420  
      31A      0.238321    32A      0.274509    33A      0.297594  
      34A      0.300748    35A      0.334254    36A      0.392983  
      37A      0.408580    38A      0.422087    39A      0.444424  
      40A      0.457865    41A      0.478729    42A      0.516941  
      43A      0.551246    44A      0.581911    45A      0.613518  
      46A      0.630660    47A      0.652360    48A      0.670984  
      49A      0.673000    50A      0.680166    51A      0.688448  
      52A      0.693385    53A      0.697132    54A      0.716508  
      55A      0.726721    56A      0.730410    57A      0.767527  
      58A      0.851949    59A      0.962564    60A      0.993379  
      61A      1.053330    62A      1.065928    63A      1.101243  
      64A      1.226989    65A      1.586020    66A      2.261204  
      67A      2.325190    68A      2.347905    69A      2.350263  
      70A      2.360804    71A      2.368109    72A      2.376571  
      73A      2.406075    74A      2.423761    75A      2.433143  
      76A      2.840961    77A      2.896609    78A      2.921247  
      79A      2.930746    80A      2.948311    81A      2.970454  
      82A      2.989505    83A      3.085831    84A      3.101482  
      85A      3.174836    86A      3.203267    87A      3.313053  
      88A      4.953207    89A      5.016455    90A      5.166193  
      91A     23.430215    92A     23.555799    93A     23.653888  
      94A     23.737715    95A     49.959033  

    Final Occupation by Irrep:
              A 
    DOCC [    21 ]

  @DF-RKS Final Energy:  -233.57754153508159

   => Energetics <=

    Nuclear Repulsion Energy =            185.0246765487535754
    One-Electron Energy =                -681.9592391097260133
    Two-Electron Energy =                 286.6037816036813410
    DFT Exchange-Correlation Energy =     -23.2398964189744461
    Empirical Dispersion Energy =          -0.0068641588160126
    VV10 Nonlocal Energy =                  0.0000000000000000
    Total Energy =                       -233.5775415350815365

Computation Completed


Properties will be evaluated at   0.000000,   0.000000,   0.000000 [a0]

Properties computed using the SCF density matrix

  Nuclear Dipole Moment: [e a0]
     X:     4.7016      Y:     0.2637      Z:     1.9089

  Electronic Dipole Moment: [e a0]
     X:    -4.9442      Y:    -0.3766      Z:    -1.2294

  Dipole Moment: [e a0]
     X:    -0.2426      Y:    -0.1129      Z:     0.6795     Total:     0.7303

  Dipole Moment: [D]
     X:    -0.6166      Y:    -0.2869      Z:     1.7271     Total:     1.8562


*** tstop() called on daniele-Precision-5750 at Thu May 27 11:18:43 2021
Module time:
	user time   =      24.21 seconds =       0.40 minutes
	system time =       0.32 seconds =       0.01 minutes
	total time  =          4 seconds =       0.07 minutes
Total time:
	user time   =      68.17 seconds =       1.14 minutes
	system time =       1.18 seconds =       0.02 minutes
	total time  =         10 seconds =       0.17 minutes

*** tstart() called on daniele-Precision-5750
*** at Thu May 27 11:18:43 2021


         ------------------------------------------------------------
                                   SCF GRAD                          
                          Rob Parrish, Justin Turney,                
                       Andy Simmonett, and Alex Sokolov              
         ------------------------------------------------------------

  ==> Geometry <==

    Molecular point group: c1
    Full point group: C1

    Geometry (in Angstrom), charge = 0, multiplicity = 1:

       Center              X                  Y                   Z               Mass       
    ------------   -----------------  -----------------  -----------------  -----------------
         O           -2.133852334987    -0.203687125700    -0.772843376430    15.994914619570
         C            0.040255478144     0.514868110987    -0.015117439184    12.000000000000
         C            1.174187019591    -0.399419848616     0.446816879274    12.000000000000
         C           -1.342022031788     0.026093707302     0.417750086642    12.000000000000
         C            2.549689496487     0.106238438516     0.009335587871    12.000000000000
         H            0.221371433860     1.527704995045     0.359357500904     1.007825032230
         H            0.033940044147     0.574947838317    -1.105486853443     1.007825032230
         H            1.003573215267    -1.405570211739     0.050189923717     1.007825032230
         H            1.150701506911    -0.484121605390     1.538731857140     1.007825032230
         H           -1.237888520014    -0.899655123588     0.999105632011     1.007825032230
         H           -1.819776980663     0.773636872301     1.062580742404     1.007825032230
         H            2.610315499417     0.173665925091    -1.079248086771     1.007825032230
         H            3.338920206919    -0.566269217627     0.350816424373     1.007825032230
         H            2.751119869852     1.099095738330     0.418826493463     1.007825032230
         H           -3.026139597508    -0.511051585298    -0.554695647239     1.007825032230

  Nuclear repulsion =  185.024676548753575

  ==> Basis Set <==

  Basis Set: 6-311G
    Blend: 6-311G
    Number of shells: 65
    Number of basis function: 95
    Number of Cartesian functions: 95
    Spherical Harmonics?: true
    Max angular momentum: 1

  ==> DFJKGrad: Density-Fitted SCF Gradients <==

    Gradient:                    1
    J tasked:                  Yes
    K tasked:                  Yes
    wK tasked:                 Yes
    Omega:               2.000E-01
    OpenMP threads:              8
    Integrals threads:           8
    Memory [MiB]:              500
    Schwarz Cutoff:          0E+00
    Fitting Condition:       1E-10

   => Auxiliary Basis Set <=

  Basis Set: (6-311G AUX)
    Blend: CC-PVTZ-JKFIT
    Number of shells: 225
    Number of basis function: 695
    Number of Cartesian functions: 830
    Spherical Harmonics?: true
    Max angular momentum: 4

  ==> DFT Potential <==

   => Composite Functional: WB97X-D <= 

    wB97X-D Hyb-GGA Exchange-Correlation Functional

    J.-D. Chai and M. Head-Gordon, Phys. Chem. Chem. Phys. 10, 6615 (2008)

    Deriv               =              1
    GGA                 =           TRUE
    Meta                =          FALSE

    Exchange Hybrid     =           TRUE
    MP2 Hybrid          =          FALSE

   => Exchange-Correlation Functionals <=

    1.0000   wB97D range-separated functional

   => Exact (HF) Exchange <=

    0.7780            HF,LR [omega = 0.2000]
    0.2220               HF 

   => Molecular Quadrature <=

    Radial Scheme          =       TREUTLER
    Pruning Scheme         =           FLAT
    Nuclear Scheme         =       TREUTLER

    BS radius alpha        =              1
    Pruning alpha          =              1
    Radial Points          =             75
    Spherical Points       =            302
    Total Points           =         336131
    Total Blocks           =           2539
    Max Points             =            256
    Max Functions          =             91


  -Total Gradient:
     Atom            X                  Y                   Z
    ------   -----------------  -----------------  -----------------
       1        0.001218210746     0.000602909402     0.001291806689
       2        0.001473423945    -0.001525606429     0.000600940143
       3       -0.001612862696    -0.000238910452    -0.000331223516
       4       -0.000903864771    -0.001411431909    -0.003903206807
       5       -0.000397843817     0.001812325200    -0.000272448052
       6       -0.000010170509     0.000455862390     0.000807228451
       7        0.000020876293    -0.000075381359     0.000247373283
       8       -0.000180667722    -0.000062617196    -0.000189380740
       9        0.000044266500     0.000449991309    -0.000123697461
      10        0.001549385972     0.000152366251     0.001423743964
      11        0.001559725035     0.001197676623     0.001057510318
      12       -0.000143693754    -0.000141700459     0.000049906728
      13       -0.000563989484    -0.000559053036     0.000353175968
      14        0.000013074197    -0.000069311761     0.000058469036
      15       -0.002107735552    -0.000666213076    -0.000985641786


*** tstop() called on daniele-Precision-5750 at Thu May 27 11:18:44 2021
Module time:
	user time   =      13.85 seconds =       0.23 minutes
	system time =       0.16 seconds =       0.00 minutes
	total time  =          1 seconds =       0.02 minutes
Total time:
	user time   =      82.03 seconds =       1.37 minutes
	system time =       1.34 seconds =       0.02 minutes
	total time  =         11 seconds =       0.18 minutes

			-----------------------------------------
			 OPTKING 2.0: for geometry optimizations 
			  - R.A. King,  Bethel University        
			-----------------------------------------
	At level 1: Red. Int., RFO, no backsteps, dynamic trust

	Previous internal coordinate definitions found.
	---Fragment 1 Geometry and Gradient---
	 O          -4.0323965053       -0.3849128829       -1.4604623193
	 C           0.0760718287        0.9729597205       -0.0285678198
	 C           2.2188918871       -0.7547941230        0.8443615301
	 C          -2.5360540944        0.0493099604        0.7894332526
	 C           4.8182148533        0.2007615528        0.0176417043
	 H           0.4183313820        2.8869440411        0.6790872578
	 H           0.0641373881        1.0864939508       -2.0890673883
	 H           1.8964785237       -2.6561427503        0.0948452101
	 H           2.1745107002       -0.9148572456        2.9077817905
	 H          -2.3392702767       -1.7001017909        1.8880360149
	 H          -3.4388801029        1.4619618092        2.0079865893
	 H           4.9327813949        0.3281810357       -2.0394833054
	 H           6.3096447458       -1.0700937346        0.6629469624
	 H           5.1988630923        2.0769899311        0.7914673667
	 H          -5.7185750567       -0.9657475322       -1.0482228563
	             0.0012182107        0.0006029094        0.0012918067
	             0.0014734239       -0.0015256064        0.0006009401
	            -0.0016128627       -0.0002389105       -0.0003312235
	            -0.0009038648       -0.0014114319       -0.0039032068
	            -0.0003978438        0.0018123252       -0.0002724481
	            -0.0000101705        0.0004558624        0.0008072285
	             0.0000208763       -0.0000753814        0.0002473733
	            -0.0001806677       -0.0000626172       -0.0001893807
	             0.0000442665        0.0004499913       -0.0001236975
	             0.0015493860        0.0001523663        0.0014237440
	             0.0015597250        0.0011976766        0.0010575103
	            -0.0001436938       -0.0001417005        0.0000499067
	            -0.0005639895       -0.0005590530        0.0003531760
	             0.0000130742       -0.0000693118        0.0000584690
	            -0.0021077356       -0.0006662131       -0.0009856418

	---Fragment 1 Intrafragment Coordinates---
	 - Coordinate -           - BOHR/RAD -       - ANG/DEG -
	 R(1,4)           =         2.736717	       1.448208
	 R(1,15)          =         1.830439	       0.968627
	 R(2,3)           =         2.887701	       1.528106
	 R(2,4)           =         2.888850	       1.528714
	 R(2,6)           =         2.069119	       1.094931
	 R(2,7)           =         2.063660	       1.092042
	 R(3,5)           =         2.890161	       1.529407
	 R(3,8)           =         2.069022	       1.094879
	 R(3,9)           =         2.070095	       1.095447
	 R(4,10)          =         2.075113	       1.098102
	 R(4,11)          =         2.072571	       1.096758
	 R(5,12)          =         2.064249	       1.092354
	 R(5,13)          =         2.062972	       1.091678
	 R(5,14)          =         2.064929	       1.092713
	 B(1,4,2)         =         1.888443	     108.199835
	 B(1,4,10)        =         1.931925	     110.691161
	 B(1,4,11)        =         1.931922	     110.690958
	 B(2,3,5)         =         1.963937	     112.525286
	 B(2,3,8)         =         1.901477	     108.946623
	 B(2,3,9)         =         1.908871	     109.370240
	 B(2,4,10)        =         1.911031	     109.494008
	 B(2,4,11)        =         1.920304	     110.025296
	 B(3,2,4)         =         1.975856	     113.208237
	 B(3,2,6)         =         1.904267	     109.106437
	 B(3,2,7)         =         1.916690	     109.818245
	 B(3,5,12)        =         1.934120	     110.816902
	 B(3,5,13)        =         1.935904	     110.919146
	 B(3,5,14)        =         1.937997	     111.039075
	 B(4,1,15)        =         1.948590	     111.645956
	 B(4,2,6)         =         1.926748	     110.394557
	 B(4,2,7)         =         1.870341	     107.162661
	 B(5,3,8)         =         1.918091	     109.898542
	 B(5,3,9)         =         1.907068	     109.266959
	 B(6,2,7)         =         1.866643	     106.950760
	 B(8,3,9)         =         1.861568	     106.660012
	 B(10,4,11)       =         1.880372	     107.737396
	 B(12,5,13)       =         1.885596	     108.036671
	 B(12,5,14)       =         1.882979	     107.886755
	 B(13,5,14)       =         1.885195	     108.013745
	*D(1,4,2,3)       =        -2.093975	    -119.975949
	 D(1,4,2,6)       =         2.048721	     117.383046
	 D(1,4,2,7)       =         0.021918	       1.255795
	*D(2,3,5,12)      =        -1.045277	     -59.889976
	 D(2,3,5,13)      =        -3.139620	    -179.886991
	 D(2,3,5,14)      =         1.047155	      59.997579
	*D(2,4,1,15)      =        -3.135281	    -179.638362
	 D(3,2,4,10)      =         0.013103	       0.750727
	 D(3,2,4,11)      =         2.076591	     118.979923
	*D(4,2,3,5)       =        -3.138451	    -179.820008
	 D(4,2,3,8)       =         1.013044	      58.043141
	 D(4,2,3,9)       =        -1.015570	     -58.187853
	 D(5,3,2,6)       =        -0.985530	     -56.466726
	 D(5,3,2,7)       =         1.055181	      60.457422
	 D(6,2,3,8)       =        -3.117220	    -178.603576
	 D(6,2,3,9)       =         1.137351	      65.165430
	 D(6,2,4,10)      =        -2.127387	    -121.890277
	 D(6,2,4,11)      =        -0.063898	      -3.661081
	 D(7,2,3,8)       =        -1.076509	     -61.679428
	 D(7,2,3,9)       =        -3.105123	    -177.910422
	 D(7,2,4,10)      =         2.128996	     121.982471
	 D(7,2,4,11)      =        -2.090701	    -119.788333
	 D(8,3,5,12)      =         1.076989	      61.706933
	 D(8,3,5,13)      =        -1.017354	     -58.290082
	 D(8,3,5,14)      =        -3.113764	    -178.405512
	 D(9,3,5,12)      =         3.114002	     178.419158
	 D(9,3,5,13)      =         1.019659	      58.422143
	 D(9,3,5,14)      =        -1.076751	     -61.693287
	 D(10,4,1,15)     =         1.053879	      60.382807
	 D(11,4,1,15)     =        -1.029884	     -59.007978

	Current energy   :      -233.5775415351

	Energy change for the previous step:
		Projected    :        -0.0066086915
		Actual       :        -0.0017555320

	Performing BFGS update.
	Previous computed or guess Hessian on step 1.
	Steps to be used in Hessian update: 1
	Taking RFO optimization step.
	Going to follow RFO solution 1.
	Using RFO vector 1.
	Norm of target step-size    0.06407
	Projected energy change by RFO approximation:        -0.0000833432

	Back-transformation to cartesian coordinates...
	Successfully converged to displaced geometry.

	Back-transformation to cartesian coordinates to adjust frozen coordinates...
	Successfully converged to displaced geometry.

	--- Internal Coordinate Step in ANG or DEG, aJ/ANG or AJ/DEG ---
	 ---------------------------------------------------------------------------
	   Coordinate                Previous        Force       Change         New 
	   ----------                --------       ------       ------       ------
	    1 R(1,4)          =      1.448208    -0.002178     0.000627     1.448835
	    2 R(1,15)         =      0.968627    -0.015815    -0.002113     0.966514
	    3 R(2,3)          =      1.528106     0.024272     0.003893     1.531998
	    4 R(2,4)          =      1.528714     0.012484     0.001353     1.530067
	    5 R(2,6)          =      1.094931    -0.005749    -0.001146     1.093785
	    6 R(2,7)          =      1.092042     0.001980     0.000026     1.092067
	    7 R(3,5)          =      1.529407     0.005653     0.000480     1.529887
	    8 R(3,8)          =      1.094879    -0.001227    -0.000381     1.094498
	    9 R(3,9)          =      1.095447     0.001302     0.000084     1.095531
	   10 R(4,10)         =      1.098102    -0.006220    -0.001006     1.097096
	   11 R(4,11)         =      1.096758    -0.006245    -0.001096     1.095662
	   12 R(5,12)         =      1.092354     0.000583    -0.000061     1.092293
	   13 R(5,13)         =      1.091678    -0.000430    -0.000256     1.091422
	   14 R(5,14)         =      1.092713     0.000312    -0.000079     1.092634
	   15 B(1,4,2)        =    108.199835    -0.000089    -0.387803   107.812033
	   16 B(1,4,10)       =    110.691161    -0.000069    -0.869721   109.821440
	   17 B(1,4,11)       =    110.690958    -0.000075    -0.544715   110.146243
	   18 B(2,3,5)        =    112.525286     0.000076     0.231201   112.756487
	   19 B(2,3,8)        =    108.946623    -0.000011    -0.080074   108.866549
	   20 B(2,3,9)        =    109.370240    -0.000020     0.062951   109.433191
	   21 B(2,4,10)       =    109.494008     0.000120     0.475841   109.969849
	   22 B(2,4,11)       =    110.025296     0.000157     1.083972   111.109267
	   23 B(3,2,4)        =    113.208237     0.000066     0.174558   113.382795
	   24 B(3,2,6)        =    109.106437    -0.000021     0.076530   109.182968
	   25 B(3,2,7)        =    109.818245    -0.000014    -0.156266   109.661978
	   26 B(3,5,12)       =    110.816902     0.000002    -0.034960   110.781942
	   27 B(3,5,13)       =    110.919146     0.000095     0.486265   111.405411
	   28 B(3,5,14)       =    111.039075    -0.000018    -0.134491   110.904584
	   29 B(4,1,15)       =    111.645956    -0.000205    -0.688103   110.957854
	   30 B(4,2,6)        =    110.394557    -0.000009     0.317258   110.711815
	   31 B(4,2,7)        =    107.162661    -0.000023    -0.304645   106.858016
	   32 B(5,3,8)        =    109.898542    -0.000028    -0.124231   109.774311
	   33 B(5,3,9)        =    109.266959    -0.000021     0.067873   109.334832
	   34 B(6,2,7)        =    106.950760    -0.000003    -0.136512   106.814247
	   35 B(8,3,9)        =    106.660012    -0.000000    -0.180622   106.479390
	   36 B(10,4,11)      =    107.737396    -0.000038     0.246371   107.983767
	   37 B(12,5,13)      =    108.036671    -0.000045    -0.084379   107.952292
	   38 B(12,5,14)      =    107.886755    -0.000003    -0.161078   107.725677
	   39 B(13,5,14)      =    108.013745    -0.000034    -0.090287   107.923458
	   40 *D(1,4,2,3)     =   -119.975949     0.000000    -0.000000  -119.975949
	   41 D(1,4,2,6)      =    117.383046    -0.000003    -0.466126   116.916920
	   42 D(1,4,2,7)      =      1.255795     0.000002    -0.297225     0.958570
	   43 *D(2,3,5,12)    =    -59.889976     0.000000    -0.000000   -59.889976
	   44 D(2,3,5,13)     =   -179.886991    -0.000002    -0.192844  -180.079835
	   45 D(2,3,5,14)     =     59.997579    -0.000003    -0.313612    59.683967
	   46 *D(2,4,1,15)    =   -179.638362     0.000000    -0.000000  -179.638362
	   47 D(3,2,4,10)     =      0.750727    -0.000015    -1.010843    -0.260116
	   48 D(3,2,4,11)     =    118.979923     0.000012     0.259129   119.239053
	   49 *D(4,2,3,5)     =   -179.820008    -0.000000    -0.000000  -179.820008
	   50 D(4,2,3,8)      =     58.043141    -0.000002     0.060648    58.103789
	   51 D(4,2,3,9)      =    -58.187853     0.000002     0.286696   -57.901157
	   52 D(5,3,2,6)      =    -56.466726     0.000004     0.591371   -55.875355
	   53 D(5,3,2,7)      =     60.457422    -0.000001     0.381821    60.839243
	   54 D(6,2,3,8)      =   -178.603576     0.000002     0.652019  -177.951557
	   55 D(6,2,3,9)      =     65.165430     0.000007     0.878067    66.043497
	   56 D(6,2,4,10)     =   -121.890277    -0.000018    -1.476970  -123.367247
	   57 D(6,2,4,11)     =     -3.661081     0.000009    -0.206997    -3.868079
	   58 D(7,2,3,8)      =    -61.679428    -0.000003     0.442469   -61.236959
	   59 D(7,2,3,9)      =   -177.910422     0.000001     0.668517  -177.241906
	   60 D(7,2,4,10)     =    121.982471    -0.000013    -1.308068   120.674403
	   61 D(7,2,4,11)     =   -119.788333     0.000014    -0.038096  -119.826429
	   62 D(8,3,5,12)     =     61.706933     0.000004    -0.033616    61.673317
	   63 D(8,3,5,13)     =    -58.290082     0.000003    -0.226460   -58.516542
	   64 D(8,3,5,14)     =   -178.405512     0.000001    -0.347228  -178.752740
	   65 D(9,3,5,12)     =    178.419158    -0.000002    -0.283483   178.135675
	   66 D(9,3,5,13)     =     58.422143    -0.000004    -0.476326    57.945816
	   67 D(9,3,5,14)     =    -61.693287    -0.000006    -0.597095   -62.290382
	   68 D(10,4,1,15)    =     60.382807    -0.000011     0.169073    60.551879
	   69 D(11,4,1,15)    =    -59.007978     0.000021     0.755903   -58.252075
	 ---------------------------------------------------------------------------
	Successfully symmetrized geometry.

  ==> Convergence Check <==

  Measures of convergence in internal coordinates in au.
  Criteria marked as inactive (o), active & met (*), and active & unmet ( ).
  ---------------------------------------------------------------------------------------------
   Step     Total Energy     Delta E     MAX Force     RMS Force      MAX Disp      RMS Disp   
  ---------------------------------------------------------------------------------------------
    Convergence Criteria             o    2.50e-03 *    1.70e-03 *    1.00e-02 *    6.70e-03 *
  ---------------------------------------------------------------------------------------------
      2    -233.57754154   -1.76e-03 o    2.95e-03      8.09e-04 *    2.58e-02      7.71e-03    ~
  ---------------------------------------------------------------------------------------------

	Writing optimization data to binary file.
	Structure for next step:
	Cartesian Geometry (in Angstrom)
	    O    -2.1346698134  -0.1934411958  -0.7640988645
	    C     0.0377957731   0.5171054067  -0.0078098284
	    C     1.1794415420  -0.4000239296   0.4422317271
	    C    -1.3437990997   0.0263690312   0.4297733869
	    C     2.5541104161   0.1061570759   0.0010732615
	    H     0.2234626207   1.5297879440   0.3614701191
	    H     0.0221407434   0.5763740251  -1.0981553578
	    H     1.0074039107  -1.4030490074   0.0394041331
	    H     1.1612954230  -0.4960264201   1.5333975772
	    H    -1.2479529895  -0.9117459330   0.9904639353
	    H    -1.8357139861   0.7595169235   1.0786095955
	    H     2.6091787314   0.1793392156  -1.0873731356
	    H     3.3502968375  -0.5619994089   0.3340236751
	    H     2.7543355088   1.0986709257   0.4117743571
	    H    -3.0229313332  -0.5005577462  -0.5386648652
			--------------------------
			 OPTKING Finished Execution 
			--------------------------

    Structure for next step:
    Molecular point group: c1
    Full point group: C1

    Geometry (in Angstrom), charge = 0, multiplicity = 1:

    O           -2.135311500327    -0.195785382956    -0.766830245335
    C            0.037154094725     0.514761222318    -0.010541206282
    C            1.178799868089    -0.402368117610     0.439500351037
    C           -1.344440783456     0.024024844852     0.427042010758
    C            2.553468747616     0.103812889931    -0.001658116337
    H            0.222820943038     1.527443763570     0.358738742650
    H            0.021499064999     0.574029840895    -1.100886739907
    H            1.006762236168    -1.405393199365     0.036672755481
    H            1.160653749042    -0.498370608512     1.530666205369
    H           -1.248594672918    -0.914090123003     0.987732561381
    H           -1.836355671878     0.757172740073     1.075878221966
    H            2.608537063112     0.176995029892    -1.090104517663
    H            3.349655172164    -0.564343597499     0.331292298573
    H            2.753693841152     1.096326743634     0.409042980877
    H           -3.023573023611    -0.502901934612    -0.541396245142

gradient() will perform analytic gradient computation.

*** tstart() called on daniele-Precision-5750
*** at Thu May 27 11:18:44 2021

   => Loading Basis Set <=

    Name: 6-311G
    Role: ORBITAL
    Keyword: BASIS
    atoms 1    entry O          line   126 file /home/daniele/anaconda3/envs/poltype/share/psi4/basis/6-311g.gbs 
    atoms 2-5  entry C          line    92 file /home/daniele/anaconda3/envs/poltype/share/psi4/basis/6-311g.gbs 
    atoms 6-15 entry H          line    21 file /home/daniele/anaconda3/envs/poltype/share/psi4/basis/6-311g.gbs 


         ---------------------------------------------------------
                                   SCF
               by Justin Turney, Rob Parrish, Andy Simmonett
                          and Daniel G. A. Smith
                              RKS Reference
                        8 Threads,    667 MiB Core
         ---------------------------------------------------------

  ==> Geometry <==

    Molecular point group: c1
    Full point group: C1

    Geometry (in Angstrom), charge = 0, multiplicity = 1:

       Center              X                  Y                   Z               Mass       
    ------------   -----------------  -----------------  -----------------  -----------------
         O           -2.135311500327    -0.195785382956    -0.766830245335    15.994914619570
         C            0.037154094725     0.514761222318    -0.010541206282    12.000000000000
         C            1.178799868089    -0.402368117610     0.439500351037    12.000000000000
         C           -1.344440783456     0.024024844852     0.427042010758    12.000000000000
         C            2.553468747616     0.103812889931    -0.001658116337    12.000000000000
         H            0.222820943038     1.527443763570     0.358738742650     1.007825032230
         H            0.021499064999     0.574029840895    -1.100886739907     1.007825032230
         H            1.006762236168    -1.405393199365     0.036672755481     1.007825032230
         H            1.160653749042    -0.498370608512     1.530666205369     1.007825032230
         H           -1.248594672918    -0.914090123003     0.987732561381     1.007825032230
         H           -1.836355671878     0.757172740073     1.075878221966     1.007825032230
         H            2.608537063112     0.176995029892    -1.090104517663     1.007825032230
         H            3.349655172164    -0.564343597499     0.331292298573     1.007825032230
         H            2.753693841152     1.096326743634     0.409042980877     1.007825032230
         H           -3.023573023611    -0.502901934612    -0.541396245142     1.007825032230

  Running in c1 symmetry.

  Rotational constants: A =      0.51872  B =      0.06776  C =      0.06642 [cm^-1]
  Rotational constants: A =  15550.83303  B =   2031.29650  C =   1991.07446 [MHz]
  Nuclear repulsion =  184.915257044495490

  Charge       = 0
  Multiplicity = 1
  Electrons    = 42
  Nalpha       = 21
  Nbeta        = 21

  ==> Algorithm <==

  SCF Algorithm Type is DF.
  DIIS enabled.
  MOM disabled.
  Fractional occupation disabled.
  Guess Type is READ.
  Energy threshold   = 1.00e-08
  Density threshold  = 1.00e-08
  Integral threshold = 0.00e+00

  ==> Primary Basis <==

  Basis Set: 6-311G
    Blend: 6-311G
    Number of shells: 65
    Number of basis function: 95
    Number of Cartesian functions: 95
    Spherical Harmonics?: true
    Max angular momentum: 1

  ==> DFT Potential <==

   => Composite Functional: WB97X-D <= 

    wB97X-D Hyb-GGA Exchange-Correlation Functional

    J.-D. Chai and M. Head-Gordon, Phys. Chem. Chem. Phys. 10, 6615 (2008)

    Deriv               =              1
    GGA                 =           TRUE
    Meta                =          FALSE

    Exchange Hybrid     =           TRUE
    MP2 Hybrid          =          FALSE

   => Exchange-Correlation Functionals <=

    1.0000   wB97D range-separated functional

   => Exact (HF) Exchange <=

    0.7780            HF,LR [omega = 0.2000]
    0.2220               HF 

   => Molecular Quadrature <=

    Radial Scheme          =       TREUTLER
    Pruning Scheme         =           FLAT
    Nuclear Scheme         =       TREUTLER

    BS radius alpha        =              1
    Pruning alpha          =              1
    Radial Points          =             75
    Spherical Points       =            302
    Total Points           =         336132
    Total Blocks           =           2540
    Max Points             =            256
    Max Functions          =             91

   => WB97X-D: Empirical Dispersion <=

    Chai and Head-Gordon Dispersion Correction
    Chai, J.-D.; Head-Gordon, M. (2010), J. Chem. Phys., 132: 6615-6620

        s6 =       1.000000

   => Loading Basis Set <=

    Name: (6-311G AUX)
    Role: JKFIT
    Keyword: DF_BASIS_SCF
    atoms 1    entry O          line   229 file /home/daniele/anaconda3/envs/poltype/share/psi4/basis/cc-pvtz-jkfit.gbs 
    atoms 2-5  entry C          line   125 file /home/daniele/anaconda3/envs/poltype/share/psi4/basis/cc-pvtz-jkfit.gbs 
    atoms 6-15 entry H          line    51 file /home/daniele/anaconda3/envs/poltype/share/psi4/basis/cc-pvtz-jkfit.gbs 

   => Loading Basis Set <=

    Name: 6-311G
    Role: ORBITAL
    Keyword: BASIS
    atoms 1    entry O          line   126 file /home/daniele/anaconda3/envs/poltype/share/psi4/basis/6-311g.gbs 
    atoms 2-5  entry C          line    92 file /home/daniele/anaconda3/envs/poltype/share/psi4/basis/6-311g.gbs 
    atoms 6-15 entry H          line    21 file /home/daniele/anaconda3/envs/poltype/share/psi4/basis/6-311g.gbs 

  Reading orbitals from file 180, no projection.

  ==> Pre-Iterations <==

   -------------------------------------------------------
    Irrep   Nso     Nmo     Nalpha   Nbeta   Ndocc  Nsocc
   -------------------------------------------------------
     A         95      95       0       0       0       0
   -------------------------------------------------------
    Total      95      95      21      21      21       0
   -------------------------------------------------------

  ==> Integral Setup <==

  ==> DiskDFJK: Density-Fitted J/K Matrices <==

    J tasked:                  Yes
    K tasked:                  Yes
    wK tasked:                 Yes
    Omega:               2.000E-01
    OpenMP threads:              8
    Integrals threads:           8
    Memory [MiB]:               34
    Algorithm:                Disk
    Integral Cache:           NONE
    Schwarz Cutoff:          1E-12
    Fitting Condition:       1E-10

   => Auxiliary Basis Set <=

  Basis Set: (6-311G AUX)
    Blend: CC-PVTZ-JKFIT
    Number of shells: 225
    Number of basis function: 695
    Number of Cartesian functions: 830
    Spherical Harmonics?: true
    Max angular momentum: 4

  Cached 100.0% of DFT collocation blocks in 0.665 [GiB].

  Minimum eigenvalue in the overlap matrix is 2.3346688940E-03.
  Using Symmetric Orthogonalization.

  SCF Guess: Orbitals guess was supplied from a previous computation.

  ==> Iterations <==

                           Total Energy        Delta E     RMS |[F,P]|

   @DF-RKS iter   0:  -233.57879161362351   -2.33579e+02   1.89868e-04 
   @DF-RKS iter   1:  -233.57766175093997    1.12986e-03   3.95124e-05 DIIS
   @DF-RKS iter   2:  -233.57766851627790   -6.76534e-06   3.57944e-05 DIIS
   @DF-RKS iter   3:  -233.57767266803870   -4.15176e-06   6.73543e-06 DIIS
   @DF-RKS iter   4:  -233.57767293495908   -2.66920e-07   2.24970e-06 DIIS
   @DF-RKS iter   5:  -233.57767296223582   -2.72767e-08   5.65883e-07 DIIS
   @DF-RKS iter   6:  -233.57767296414659   -1.91076e-09   8.01377e-08 DIIS
   @DF-RKS iter   7:  -233.57767296421605   -6.94627e-11   2.70933e-08 DIIS
   @DF-RKS iter   8:  -233.57767296422116   -5.11591e-12   8.89341e-09 DIIS
  Energy and wave function converged.


  ==> Post-Iterations <==

    Orbital Energies [Eh]
    ---------------------

    Doubly Occupied:                                                      

       1A    -19.233627     2A    -10.329547     3A    -10.277616  
       4A    -10.273643     5A    -10.267425     6A     -1.118017  
       7A     -0.896558     8A     -0.821120     9A     -0.726361  
      10A     -0.677079    11A     -0.603784    12A     -0.553562  
      13A     -0.532475    14A     -0.517771    15A     -0.474587  
      16A     -0.456426    17A     -0.435323    18A     -0.415306  
      19A     -0.406908    20A     -0.399105    21A     -0.348909  

    Virtual:                                                              

      22A      0.119122    23A      0.129392    24A      0.152760  
      25A      0.156544    26A      0.175834    27A      0.198066  
      28A      0.207575    29A      0.213119    30A      0.218914  
      31A      0.237992    32A      0.274242    33A      0.297289  
      34A      0.299955    35A      0.334081    36A      0.392750  
      37A      0.407866    38A      0.421826    39A      0.443966  
      40A      0.457234    41A      0.479961    42A      0.516944  
      43A      0.551769    44A      0.583795    45A      0.614336  
      46A      0.629923    47A      0.651695    48A      0.670986  
      49A      0.673399    50A      0.680471    51A      0.688577  
      52A      0.693332    53A      0.696998    54A      0.715707  
      55A      0.726412    56A      0.731084    57A      0.767813  
      58A      0.851123    59A      0.962905    60A      0.991962  
      61A      1.052969    62A      1.065664    63A      1.100887  
      64A      1.224098    65A      1.589803    66A      2.261406  
      67A      2.325796    68A      2.347838    69A      2.350415  
      70A      2.359968    71A      2.368094    72A      2.376768  
      73A      2.405282    74A      2.423350    75A      2.433744  
      76A      2.840256    77A      2.897531    78A      2.920468  
      79A      2.932132    80A      2.947516    81A      2.971904  
      82A      2.990425    83A      3.084799    84A      3.099803  
      85A      3.175525    86A      3.202287    87A      3.311059  
      88A      4.952892    89A      5.017430    90A      5.166867  
      91A     23.430499    92A     23.555319    93A     23.653546  
      94A     23.734755    95A     49.960763  

    Final Occupation by Irrep:
              A 
    DOCC [    21 ]

  @DF-RKS Final Energy:  -233.57767296422116

   => Energetics <=

    Nuclear Repulsion Energy =            184.9152570444954904
[...]

  Basis Set: (6-311G AUX)
    Blend: CC-PVTZ-JKFIT
    Number of shells: 225
    Number of basis function: 695
    Number of Cartesian functions: 830
    Spherical Harmonics?: true
    Max angular momentum: 4

  ==> DFT Potential <==

   => Composite Functional: WB97X-D <= 

    wB97X-D Hyb-GGA Exchange-Correlation Functional

    J.-D. Chai and M. Head-Gordon, Phys. Chem. Chem. Phys. 10, 6615 (2008)

    Deriv               =              1
    GGA                 =           TRUE
    Meta                =          FALSE

    Exchange Hybrid     =           TRUE
    MP2 Hybrid          =          FALSE

   => Exchange-Correlation Functionals <=

    1.0000   wB97D range-separated functional

   => Exact (HF) Exchange <=

    0.7780            HF,LR [omega = 0.2000]
    0.2220               HF 

   => Molecular Quadrature <=

    Radial Scheme          =       TREUTLER
    Pruning Scheme         =           FLAT
    Nuclear Scheme         =       TREUTLER

    BS radius alpha        =              1
    Pruning alpha          =              1
    Radial Points          =             75
    Spherical Points       =            302
    Total Points           =         336132
    Total Blocks           =           2540
    Max Points             =            256
    Max Functions          =             91


  -Total Gradient:
     Atom            X                  Y                   Z
    ------   -----------------  -----------------  -----------------
       1        0.000590432083    -0.000154355039     0.002011111408
       2        0.000517139084    -0.000311279452    -0.000214466992
       3       -0.000517096610    -0.000062528999    -0.000596696806
       4       -0.001062161758     0.000110044757    -0.001423448986
       5        0.000278383610     0.000368807655     0.000219426960
       6        0.000158167922    -0.000026867213     0.000008482782
       7       -0.000033460105    -0.000028892455     0.000248593850
       8        0.000064529591     0.000159847932     0.000012177775
       9        0.000051585587     0.000046879777    -0.000101761623
      10       -0.000000161799    -0.000222345577    -0.000083429787
      11       -0.000251459186     0.000147731416     0.000133825755
      12       -0.000084712962    -0.000052516111     0.000192778506
      13       -0.000003807739    -0.000008964712    -0.000007712432
      14       -0.000133361556    -0.000198735206    -0.000059595459
      15        0.000342061919     0.000145005152    -0.000286800287


*** tstop() called on daniele-Precision-5750 at Thu May 27 11:18:49 2021
Module time:
	user time   =      13.60 seconds =       0.23 minutes
	system time =       0.12 seconds =       0.00 minutes
	total time  =          2 seconds =       0.03 minutes
Total time:
	user time   =     118.64 seconds =       1.98 minutes
	system time =       1.79 seconds =       0.03 minutes
	total time  =         16 seconds =       0.27 minutes

			-----------------------------------------
			 OPTKING 2.0: for geometry optimizations 
			  - R.A. King,  Bethel University        
			-----------------------------------------
	At level 1: Red. Int., RFO, no backsteps, dynamic trust

	Previous internal coordinate definitions found.
	---Fragment 1 Geometry and Gradient---
	 O          -4.0351539282       -0.3699807532       -1.4490991484
	 C           0.0702110635        0.9727577302       -0.0199199929
	 C           2.2276089074       -0.7603655439        0.8305352955
	 C          -2.5406248726        0.0454003770        0.8069924444
	 C           4.8253566029        0.1961779303       -0.0031333858
	 H           0.4210705574        2.8864503852        0.6779179742
	 H           0.0406273448        1.0847591871       -2.0803744336
	 H           1.9025048998       -2.6558082454        0.0693014641
	 H           2.1933177122       -0.9417839591        2.8925399176
	 H          -2.3595019735       -1.7273799865        1.8665440262
	 H          -3.4702092888        1.4308491084        2.0331151839
	 H           4.9294206374        0.3344721321       -2.0599989865
	 H           6.3299308901       -1.0664548399        0.6260517118
	 H           5.2037271931        2.0717572895        0.7729792074
	 H          -5.7137249349       -0.9503469244       -1.0230906287
	             0.0005904321       -0.0001543550        0.0020111114
	             0.0005171391       -0.0003112795       -0.0002144670
	            -0.0005170966       -0.0000625290       -0.0005966968
	            -0.0010621618        0.0001100448       -0.0014234490
	             0.0002783836        0.0003688077        0.0002194270
	             0.0001581679       -0.0000268672        0.0000084828
	            -0.0000334601       -0.0000288925        0.0002485938
	             0.0000645296        0.0001598479        0.0000121778
	             0.0000515856        0.0000468798       -0.0001017616
	            -0.0000001618       -0.0002223456       -0.0000834298
	            -0.0002514592        0.0001477314        0.0001338258
	            -0.0000847130       -0.0000525161        0.0001927785
	            -0.0000038077       -0.0000089647       -0.0000077124
	            -0.0001333616       -0.0001987352       -0.0000595955
	             0.0003420619        0.0001450052       -0.0002868003

	---Fragment 1 Intrafragment Coordinates---
	 - Coordinate -           - BOHR/RAD -       - ANG/DEG -
	 R(1,4)           =         2.737902	       1.448835
	 R(1,15)          =         1.826447	       0.966514
	 R(2,3)           =         2.895057	       1.531998
	 R(2,4)           =         2.891408	       1.530067
	 R(2,6)           =         2.066954	       1.093785
	 R(2,7)           =         2.063708	       1.092067
	 R(3,5)           =         2.891068	       1.529887
	 R(3,8)           =         2.068302	       1.094498
	 R(3,9)           =         2.070254	       1.095531
	 R(4,10)          =         2.073211	       1.097096
	 R(4,11)          =         2.070501	       1.095662
	 R(5,12)          =         2.064134	       1.092293
	 R(5,13)          =         2.062489	       1.091422
	 R(5,14)          =         2.064779	       1.092634
	 B(1,4,2)         =         1.881675	     107.812033
	 B(1,4,10)        =         1.916746	     109.821440
	 B(1,4,11)        =         1.922415	     110.146243
	 B(2,3,5)         =         1.967972	     112.756487
	 B(2,3,8)         =         1.900080	     108.866549
	 B(2,3,9)         =         1.909969	     109.433191
	 B(2,4,10)        =         1.919336	     109.969849
	 B(2,4,11)        =         1.939223	     111.109267
	 B(3,2,4)         =         1.978903	     113.382795
	 B(3,2,6)         =         1.905602	     109.182968
	 B(3,2,7)         =         1.913963	     109.661978
	 B(3,5,12)        =         1.933510	     110.781942
	 B(3,5,13)        =         1.944391	     111.405411
	 B(3,5,14)        =         1.935650	     110.904584
	 B(4,1,15)        =         1.936580	     110.957854
	 B(4,2,6)         =         1.932286	     110.711815
	 B(4,2,7)         =         1.865024	     106.858016
	 B(5,3,8)         =         1.915923	     109.774311
	 B(5,3,9)         =         1.908253	     109.334832
	 B(6,2,7)         =         1.864260	     106.814247
	 B(8,3,9)         =         1.858416	     106.479390
	 B(10,4,11)       =         1.884672	     107.983767
	 B(12,5,13)       =         1.884123	     107.952292
	 B(12,5,14)       =         1.880168	     107.725677
	 B(13,5,14)       =         1.883620	     107.923458
	*D(1,4,2,3)       =        -2.093975	    -119.975949
	 D(1,4,2,6)       =         2.040585	     116.916920
	 D(1,4,2,7)       =         0.016730	       0.958570
	*D(2,3,5,12)      =        -1.045277	     -59.889976
	 D(2,3,5,13)      =         3.140199	     179.920165
	 D(2,3,5,14)      =         1.041682	      59.683967
	*D(2,4,1,15)      =        -3.135281	    -179.638362
	 D(3,2,4,10)      =        -0.004540	      -0.260116
	 D(3,2,4,11)      =         2.081114	     119.239053
	*D(4,2,3,5)       =        -3.138451	    -179.820008
	 D(4,2,3,8)       =         1.014102	      58.103789
	 D(4,2,3,9)       =        -1.010566	     -57.901157
	 D(5,3,2,6)       =        -0.975209	     -55.875355
	 D(5,3,2,7)       =         1.061845	      60.839243
	 D(6,2,3,8)       =        -3.105841	    -177.951557
	 D(6,2,3,9)       =         1.152676	      66.043497
	 D(6,2,4,10)      =        -2.153165	    -123.367247
	 D(6,2,4,11)      =        -0.067511	      -3.868079
	 D(7,2,3,8)       =        -1.068787	     -61.236959
	 D(7,2,3,9)       =        -3.093455	    -177.241906
	 D(7,2,4,10)      =         2.106166	     120.674403
	 D(7,2,4,11)      =        -2.091366	    -119.826429
	 D(8,3,5,12)      =         1.076402	      61.673317
	 D(8,3,5,13)      =        -1.021306	     -58.516542
	 D(8,3,5,14)      =        -3.119824	    -178.752740
	 D(9,3,5,12)      =         3.109054	     178.135675
	 D(9,3,5,13)      =         1.011345	      57.945816
	 D(9,3,5,14)      =        -1.087172	     -62.290382
	 D(10,4,1,15)     =         1.056830	      60.551879
	 D(11,4,1,15)     =        -1.016691	     -58.252075

	Current energy   :      -233.5776729642

	Energy change for the previous step:
		Projected    :        -0.0000833432
		Actual       :        -0.0001314291
	Energy ratio indicates good step: Trust radius increased to 1.000e+00.


	Performing BFGS update.
	Previous computed or guess Hessian on step 1.
	Steps to be used in Hessian update: 2 1
	Taking RFO optimization step.
	Going to follow RFO solution 1.
	Using RFO vector 1.
	Norm of target step-size    0.00747
	Projected energy change by RFO approximation:        -0.0000146737

	Back-transformation to cartesian coordinates...
	Successfully converged to displaced geometry.

	Back-transformation to cartesian coordinates to adjust frozen coordinates...
	Successfully converged to displaced geometry.

	--- Internal Coordinate Step in ANG or DEG, aJ/ANG or AJ/DEG ---
	 ---------------------------------------------------------------------------
	   Coordinate                Previous        Force       Change         New 
	   ----------                --------       ------       ------       ------
	    1 R(1,4)          =      1.448835     0.015812     0.002608     1.451443
	    2 R(1,15)         =      0.966514     0.003624     0.000265     0.966779
	    3 R(2,3)          =      1.531998     0.003961     0.001016     1.533014
	    4 R(2,4)          =      1.530067    -0.003117    -0.000793     1.529275
	    5 R(2,6)          =      1.093785    -0.000070    -0.000105     1.093680
	    6 R(2,7)          =      1.092067     0.001982     0.000336     1.092404
	    7 R(3,5)          =      1.529887    -0.000024    -0.000056     1.529831
	    8 R(3,8)          =      1.094498     0.001384     0.000215     1.094714
	    9 R(3,9)          =      1.095531     0.000856     0.000150     1.095681
	   10 R(4,10)         =      1.097096    -0.001083    -0.000260     1.096836
	   11 R(4,11)         =      1.095662    -0.002403    -0.000523     1.095139
	   12 R(5,12)         =      1.092293     0.001682     0.000290     1.092583
	   13 R(5,13)         =      1.091422    -0.000061    -0.000049     1.091373
	   14 R(5,14)         =      1.092634     0.001862     0.000325     1.092960
	   15 B(1,4,2)        =    107.812033    -0.000008    -0.038675   107.773357
	   16 B(1,4,10)       =    109.821440     0.000009     0.045292   109.866732
	   17 B(1,4,11)       =    110.146243     0.000008    -0.011227   110.135016
	   18 B(2,3,5)        =    112.756487    -0.000009    -0.019492   112.736995
	   19 B(2,3,8)        =    108.866549     0.000001    -0.016330   108.850218
	   20 B(2,3,9)        =    109.433191     0.000002     0.007060   109.440251
	   21 B(2,4,10)       =    109.969849     0.000001     0.048949   110.018798
	   22 B(2,4,11)       =    111.109267    -0.000007    -0.020697   111.088571
	   23 B(3,2,4)        =    113.382795    -0.000003    -0.008338   113.374457
	   24 B(3,2,6)        =    109.182968     0.000010     0.063571   109.246539
	   25 B(3,2,7)        =    109.661978    -0.000002    -0.004702   109.657277
	   26 B(3,5,12)       =    110.781942     0.000007     0.032840   110.814782
	   27 B(3,5,13)       =    111.405411    -0.000003     0.010566   111.415977
	   28 B(3,5,14)       =    110.904584     0.000008     0.033796   110.938380
	   29 B(4,1,15)       =    110.957854    -0.000028    -0.154167   110.803687
	   30 B(4,2,6)        =    110.711815    -0.000009    -0.041571   110.670244
	   31 B(4,2,7)        =    106.858016     0.000003    -0.007594   106.850422
	   32 B(5,3,8)        =    109.774311     0.000004     0.019172   109.793482
	   33 B(5,3,9)        =    109.334832     0.000006     0.042180   109.377012
	   34 B(6,2,7)        =    106.814247    -0.000001    -0.002962   106.811286
	   35 B(8,3,9)        =    106.479390    -0.000003    -0.033772   106.445618
	   36 B(10,4,11)      =    107.983767    -0.000003    -0.021957   107.961810
	   37 B(12,5,13)      =    107.952292    -0.000003    -0.028795   107.923497
	   38 B(12,5,14)      =    107.725677    -0.000006    -0.021733   107.703944
	   39 B(13,5,14)      =    107.923458    -0.000004    -0.030872   107.892586
	   40 *D(1,4,2,3)     =   -119.975949    -0.000000     0.000000  -119.975949
	   41 D(1,4,2,6)      =    116.916920    -0.000001    -0.045660   116.871260
	   42 D(1,4,2,7)      =      0.958570    -0.000000    -0.016185     0.942384
	   43 *D(2,3,5,12)    =    -59.889976    -0.000000     0.000000   -59.889976
	   44 D(2,3,5,13)     =    179.920165     0.000000     0.007209   179.927374
	   45 D(2,3,5,14)     =     59.683967     0.000001     0.016350    59.700317
	   46 *D(2,4,1,15)    =   -179.638362    -0.000000     0.000000  -179.638362
	   47 D(3,2,4,10)     =     -0.260116     0.000002     0.059808    -0.200308
	   48 D(3,2,4,11)     =    119.239053    -0.000000     0.051042   119.290095
	   49 *D(4,2,3,5)     =   -179.820008     0.000000     0.000000  -179.820008
	   50 D(4,2,3,8)      =     58.103789     0.000000     0.000160    58.103949
	   51 D(4,2,3,9)      =    -57.901157     0.000001     0.045765   -57.855392
	   52 D(5,3,2,6)      =    -55.875355    -0.000001    -0.011974   -55.887329
	   53 D(5,3,2,7)      =     60.839243    -0.000000     0.018362    60.857606
	   54 D(6,2,3,8)      =   -177.951557    -0.000001    -0.011814  -177.963371
	   55 D(6,2,3,9)      =     66.043497    -0.000000     0.033791    66.077288
	   56 D(6,2,4,10)     =   -123.367247     0.000001     0.014148  -123.353099
	   57 D(6,2,4,11)     =     -3.868079    -0.000001     0.005383    -3.862696
	   58 D(7,2,3,8)      =    -61.236959    -0.000000     0.018522   -61.218437
	   59 D(7,2,3,9)      =   -177.241906     0.000000     0.064128  -177.177778
	   60 D(7,2,4,10)     =    120.674403     0.000001     0.043622   120.718026
	   61 D(7,2,4,11)     =   -119.826429    -0.000000     0.034857  -119.791571
	   62 D(8,3,5,12)     =     61.673317    -0.000001    -0.020477    61.652841
	   63 D(8,3,5,13)     =    -58.516542    -0.000000    -0.013268   -58.529809
	   64 D(8,3,5,14)     =   -178.752740     0.000000    -0.004126  -178.756866
	   65 D(9,3,5,12)     =    178.135675    -0.000000    -0.025949   178.109726
	   66 D(9,3,5,13)     =     57.945816     0.000000    -0.018740    57.927076
	   67 D(9,3,5,14)     =    -62.290382     0.000000    -0.009598   -62.299980
	   68 D(10,4,1,15)    =     60.551879    -0.000000    -0.062132    60.489747
	   69 D(11,4,1,15)    =    -58.252075    -0.000002    -0.056198   -58.308273
	 ---------------------------------------------------------------------------
	Successfully symmetrized geometry.

  ==> Convergence Check <==

  Measures of convergence in internal coordinates in au.
  Criteria marked as inactive (o), active & met (*), and active & unmet ( ).
  ---------------------------------------------------------------------------------------------
   Step     Total Energy     Delta E     MAX Force     RMS Force      MAX Disp      RMS Disp   
  ---------------------------------------------------------------------------------------------
    Convergence Criteria             o    2.50e-03 *    1.70e-03 *    1.00e-02 *    6.70e-03 *
  ---------------------------------------------------------------------------------------------
      3    -233.57767296   -1.31e-04 o    1.92e-03 *    2.66e-04 *    4.93e-03 *    8.99e-04 *  ~
  ---------------------------------------------------------------------------------------------


  **** Optimization is complete! (in 3 steps) ****

  ==> Optimization Summary <==

  Measures of convergence in internal coordinates in au.
  --------------------------------------------------------------------------------------------------------------- ~
   Step         Total Energy             Delta E       MAX Force       RMS Force        MAX Disp        RMS Disp  ~
  --------------------------------------------------------------------------------------------------------------- ~
      1    -233.575786003040   -233.575786003040      0.01416112      0.00358929      0.05953261      0.02268199  ~
      2    -233.577541535082     -0.001755532042      0.00294615      0.00080908      0.02577798      0.00770631  ~
      3    -233.577672964221     -0.000131429140      0.00191926      0.00026580      0.00492756      0.00089897  ~
  --------------------------------------------------------------------------------------------------------------- ~

	Writing optimization data to binary file.
	Final energy is   -233.5776729642212
	Final (previous) structure:
	Cartesian Geometry (in Angstrom)
	    O    -2.1353114919  -0.1957853822  -0.7668302423
	    C     0.0371540946   0.5147612203  -0.0105412062
	    C     1.1787998635  -0.4023681160   0.4395003493
	    C    -1.3444407782   0.0240248448   0.4270420091
	    C     2.5534687376   0.1038128895  -0.0016581163
	    H     0.2228209422   1.5274437576   0.3587387412
	    H     0.0214990649   0.5740298386  -1.1008867356
	    H     1.0067622322  -1.4053931938   0.0366727553
	    H     1.1606537445  -0.4983706066   1.5306661994
	    H    -1.2485946680  -0.9140901194   0.9877325575
	    H    -1.8363556647   0.7571727371   1.0758782177
	    H     2.6085370529   0.1769950292  -1.0901045134
	    H     3.3496551590  -0.5643435953   0.3312922973
	    H     2.7536938303   1.0963267393   0.4090429793
	    H    -3.0235730117  -0.5029019326  -0.5413962430
	Saving final (previous) structure.
			--------------------------
			 OPTKING Finished Execution 
			--------------------------

    Final optimized geometry and variables:
    Molecular point group: c1
    Full point group: C1

    Geometry (in Angstrom), charge = 0, multiplicity = 1:

    O           -2.135311500327    -0.195785382956    -0.766830245335
    C            0.037154094725     0.514761222318    -0.010541206282
    C            1.178799868089    -0.402368117610     0.439500351037
    C           -1.344440783456     0.024024844852     0.427042010758
    C            2.553468747616     0.103812889931    -0.001658116337
    H            0.222820943038     1.527443763570     0.358738742650
    H            0.021499064999     0.574029840895    -1.100886739907
    H            1.006762236168    -1.405393199365     0.036672755481
    H            1.160653749042    -0.498370608512     1.530666205369
    H           -1.248594672918    -0.914090123003     0.987732561381
    H           -1.836355671878     0.757172740073     1.075878221966
    H            2.608537063112     0.176995029892    -1.090104517663
    H            3.349655172164    -0.564343597499     0.331292298573
    H            2.753693841152     1.096326743634     0.409042980877
    H           -3.023573023611    -0.502901934612    -0.541396245142

	Removing binary optimization data file.
	Cleaning optimization helper files.

    Psi4 stopped on: Thursday, 27 May 2021 11:18AM
    Psi4 wall time for execution: 0:00:15.81

*** Psi4 exiting successfully. Buy a developer a beer!
