
    -----------------------------------------------------------------------
          Psi4: An Open-Source Ab Initio Electronic Structure Package
                               Psi4 1.3.2 release

                         Git: Rev {HEAD} ecbda83 


    R. M. Parrish, L. A. Burns, D. G. A. Smith, A. C. Simmonett,
    A. E. DePrince III, E. G. Hohenstein, U. Bozkaya, A. Yu. Sokolov,
    R. Di Remigio, R. M. Richard, J. F. Gonthier, A. M. James,
    H. R. McAlexander, A. Kumar, M. Saitow, X. Wang, B. P. Pritchard,
    P. Verma, H. F. Schaefer III, K. Patkowski, R. A. King, E. F. Valeev,
    F. A. Evangelista, J. M. Turney, T. D. Crawford, and C. D. Sherrill,
    J. Chem. Theory Comput. 13(7) pp 3185--3197 (2017).
    (doi: 10.1021/acs.jctc.7b00174)


                         Additional Contributions by
    P. Kraus, H. Kruse, M. H. Lechner, M. C. Schieber, R. A. Shaw,
    A. Alenaizan, R. Galvelis, Z. L. Glick, S. Lehtola, and J. P. Misiewicz

    -----------------------------------------------------------------------


    Psi4 started on: Thursday, 27 May 2021 11:08AM

    Process ID: 226227
    Host:       daniele-Precision-5750
    PSIDATADIR: /home/daniele/anaconda3/envs/poltype/share/psi4
    Memory:     500.0 MiB
    Threads:    1
    
  ==> Input File <==

--------------------------------------------------------------------------
molecule { 
0 1
 O   -2.315736    0.378481   -0.533314
 C    0.055660    0.028259   -0.379742
 C    1.271565   -0.558780    0.389690
 C   -1.311998   -0.208822    0.297809
 C    2.584836    0.222556    0.178054
 H    0.174203    1.114986   -0.484885
 H    0.028705   -0.375100   -1.400399
 H    1.412172   -1.611091    0.110342
 H    1.056096   -0.563043    1.466619
 H   -1.488756   -1.284314    0.424626
 H   -1.322100    0.239616    1.299343
 H    2.867857    0.238058   -0.879943
 H    3.405757   -0.239218    0.736848
 H    2.490209    1.258863    0.520108
 H   -3.183395    0.238459   -0.109735
}
set optking { 
  frozen_dihedral = ("
    4 2 3 5
    2 4 1 15
    3 2 4 1
    12 5 3 2
  ")
}
set {
  geom_maxiter 400
  g_convergence GAU_LOOSE
  dynamic_level 1
}
memory 700MB
set_num_threads(8)
psi4_io.set_default_path("/home/daniele/PSI4_sctatch/Psi4-1butanol_3D")
for _ in range(1):
  try:
    set opt_coordinates both
    optimize('wb97x-d/6-311G')
    break
  except OptimizationConvergenceError:
    break
  else:
    try:
      set opt_coordinates cartesian
      optimize('wb97x-d/6-311G')
      break
    except OptimizationConvergenceError:
      pass
clean()
--------------------------------------------------------------------------

  Memory set to 667.572 MiB by Python driver.
  Threads set to 8 by Python driver.
gradient() will perform analytic gradient computation.

*** tstart() called on daniele-Precision-5750
*** at Thu May 27 11:08:22 2021

   => Loading Basis Set <=

    Name: 6-311G
    Role: ORBITAL
    Keyword: BASIS
    atoms 1    entry O          line   126 file /home/daniele/anaconda3/envs/poltype/share/psi4/basis/6-311g.gbs 
    atoms 2-5  entry C          line    92 file /home/daniele/anaconda3/envs/poltype/share/psi4/basis/6-311g.gbs 
    atoms 6-15 entry H          line    21 file /home/daniele/anaconda3/envs/poltype/share/psi4/basis/6-311g.gbs 


         ---------------------------------------------------------
                                   SCF
               by Justin Turney, Rob Parrish, Andy Simmonett
                          and Daniel G. A. Smith
                              RKS Reference
                        8 Threads,    667 MiB Core
         ---------------------------------------------------------

  ==> Geometry <==

    Molecular point group: c1
    Full point group: C1

    Geometry (in Angstrom), charge = 0, multiplicity = 1:

       Center              X                  Y                   Z               Mass       
    ------------   -----------------  -----------------  -----------------  -----------------
         O           -2.310930999791     0.393846173572    -0.519753259593    15.994914619570
         C            0.060465000209     0.043624173572    -0.366181259593    12.000000000000
         C            1.276370000209    -0.543414826428     0.403250740407    12.000000000000
         C           -1.307192999791    -0.193456826428     0.311369740407    12.000000000000
         C            2.589641000209     0.237921173572     0.191614740407    12.000000000000
         H            0.179008000209     1.130351173572    -0.471324259593     1.007825032230
         H            0.033510000209    -0.359734826428    -1.386838259593     1.007825032230
         H            1.416977000209    -1.595725826428     0.123902740407     1.007825032230
         H            1.060901000209    -0.547677826428     1.480179740407     1.007825032230
         H           -1.483950999791    -1.268948826428     0.438186740407     1.007825032230
         H           -1.317294999791     0.254981173572     1.312903740407     1.007825032230
         H            2.872662000209     0.253423173572    -0.866382259593     1.007825032230
         H            3.410562000209    -0.223852826428     0.750408740407     1.007825032230
         H            2.495014000209     1.274228173572     0.533668740407     1.007825032230
         H           -3.178589999791     0.253824173572    -0.096174259593     1.007825032230

  Running in c1 symmetry.

  Rotational constants: A =      0.58817  B =      0.06440  C =      0.06160 [cm^-1]
  Rotational constants: A =  17632.97158  B =   1930.63247  C =   1846.83760 [MHz]
  Nuclear repulsion =  183.099168906003143

  Charge       = 0
  Multiplicity = 1
  Electrons    = 42
  Nalpha       = 21
  Nbeta        = 21

  ==> Algorithm <==

  SCF Algorithm Type is DF.
  DIIS enabled.
  MOM disabled.
  Fractional occupation disabled.
  Guess Type is SAD.
  Energy threshold   = 1.00e-08
  Density threshold  = 1.00e-08
  Integral threshold = 0.00e+00

  ==> Primary Basis <==

  Basis Set: 6-311G
    Blend: 6-311G
    Number of shells: 65
    Number of basis function: 95
    Number of Cartesian functions: 95
    Spherical Harmonics?: true
    Max angular momentum: 1

  ==> DFT Potential <==

   => Composite Functional: WB97X-D <= 

    wB97X-D Hyb-GGA Exchange-Correlation Functional

    J.-D. Chai and M. Head-Gordon, Phys. Chem. Chem. Phys. 10, 6615 (2008)

    Deriv               =              1
    GGA                 =           TRUE
    Meta                =          FALSE

    Exchange Hybrid     =           TRUE
    MP2 Hybrid          =          FALSE

   => Exchange-Correlation Functionals <=

    1.0000   wB97D range-separated functional

   => Exact (HF) Exchange <=

    0.7780            HF,LR [omega = 0.2000]
    0.2220               HF 

   => Molecular Quadrature <=

    Radial Scheme          =       TREUTLER
    Pruning Scheme         =           FLAT
    Nuclear Scheme         =       TREUTLER

    BS radius alpha        =              1
    Pruning alpha          =              1
    Radial Points          =             75
    Spherical Points       =            302
    Total Points           =         336127
    Total Blocks           =           2565
    Max Points             =            256
    Max Functions          =             89

   => WB97X-D: Empirical Dispersion <=

    Chai and Head-Gordon Dispersion Correction
    Chai, J.-D.; Head-Gordon, M. (2010), J. Chem. Phys., 132: 6615-6620

        s6 =       1.000000

   => Loading Basis Set <=

    Name: (6-311G AUX)
    Role: JKFIT
    Keyword: DF_BASIS_SCF
    atoms 1    entry O          line   229 file /home/daniele/anaconda3/envs/poltype/share/psi4/basis/cc-pvtz-jkfit.gbs 
    atoms 2-5  entry C          line   125 file /home/daniele/anaconda3/envs/poltype/share/psi4/basis/cc-pvtz-jkfit.gbs 
    atoms 6-15 entry H          line    51 file /home/daniele/anaconda3/envs/poltype/share/psi4/basis/cc-pvtz-jkfit.gbs 

  ==> Pre-Iterations <==

   -------------------------------------------------------
    Irrep   Nso     Nmo     Nalpha   Nbeta   Ndocc  Nsocc
   -------------------------------------------------------
     A         95      95       0       0       0       0
   -------------------------------------------------------
    Total      95      95      21      21      21       0
   -------------------------------------------------------

  ==> Integral Setup <==

  ==> DiskDFJK: Density-Fitted J/K Matrices <==

    J tasked:                  Yes
    K tasked:                  Yes
    wK tasked:                 Yes
    Omega:               2.000E-01
    OpenMP threads:              8
    Integrals threads:           8
    Memory [MiB]:               34
    Algorithm:                Disk
    Integral Cache:           NONE
    Schwarz Cutoff:          1E-12
    Fitting Condition:       1E-10

   => Auxiliary Basis Set <=

  Basis Set: (6-311G AUX)
    Blend: CC-PVTZ-JKFIT
    Number of shells: 225
    Number of basis function: 695
    Number of Cartesian functions: 830
    Spherical Harmonics?: true
    Max angular momentum: 4

  Cached 100.0% of DFT collocation blocks in 0.662 [GiB].

  Minimum eigenvalue in the overlap matrix is 2.6238925580E-03.
  Using Symmetric Orthogonalization.

  SCF Guess: Superposition of Atomic Densities via on-the-fly atomic UHF.

  ==> Iterations <==

                           Total Energy        Delta E     RMS |[F,P]|

   @DF-RKS iter SAD:  -232.83445635231234   -2.32834e+02   0.00000e+00 
   @DF-RKS iter   1:  -233.28160708285995   -4.47151e-01   8.20677e-03 DIIS
   @DF-RKS iter   2:  -233.37955730219926   -9.79502e-02   7.26917e-03 DIIS
   @DF-RKS iter   3:  -233.57622479531156   -1.96667e-01   8.46511e-04 DIIS
   @DF-RKS iter   4:  -233.57840580043359   -2.18101e-03   3.27112e-04 DIIS
   @DF-RKS iter   5:  -233.57883635316566   -4.30553e-04   3.25022e-05 DIIS
   @DF-RKS iter   6:  -233.57884238908153   -6.03592e-06   1.55997e-05 DIIS
   @DF-RKS iter   7:  -233.57884349224611   -1.10316e-06   1.99924e-06 DIIS
   @DF-RKS iter   8:  -233.57884352716647   -3.49204e-08   3.36554e-07 DIIS
   @DF-RKS iter   9:  -233.57884352827972   -1.11325e-09   1.05141e-07 DIIS
   @DF-RKS iter  10:  -233.57884352835305   -7.33280e-11   4.14427e-08 DIIS
   @DF-RKS iter  11:  -233.57884352836467   -1.16245e-11   5.85514e-09 DIIS
  Energy and wave function converged.


  ==> Post-Iterations <==

    Orbital Energies [Eh]
    ---------------------

    Doubly Occupied:                                                      

       1A    -19.238830     2A    -10.331135     3A    -10.283585  
       4A    -10.277886     5A    -10.271514     6A     -1.126264  
       7A     -0.890918     8A     -0.818996     9A     -0.726631  
      10A     -0.677426    11A     -0.597433    12A     -0.567516  
      13A     -0.526928    14A     -0.512604    15A     -0.482077  
      16A     -0.457723    17A     -0.432455    18A     -0.416513  
      19A     -0.407323    20A     -0.399750    21A     -0.352066  

    Virtual:                                                              

      22A      0.118038    23A      0.124203    24A      0.151989  
      25A      0.156903    26A      0.170767    27A      0.203255  
      28A      0.208066    29A      0.212796    30A      0.218960  
      31A      0.228553    32A      0.268763    33A      0.295395  
      34A      0.304470    35A      0.332649    36A      0.386315  
      37A      0.396777    38A      0.411932    39A      0.449229  
      40A      0.452684    41A      0.469496    42A      0.497936  
      43A      0.535911    44A      0.602727    45A      0.611797  
      46A      0.639665    47A      0.643297    48A      0.665135  
      49A      0.673816    50A      0.679306    51A      0.686850  
      52A      0.693531    53A      0.702628    54A      0.706519  
      55A      0.717261    56A      0.725953    57A      0.754148  
      58A      0.851184    59A      0.956923    60A      0.999265  
      61A      1.016042    62A      1.053133    63A      1.138289  
      64A      1.210024    65A      1.595304    66A      2.265827  
      67A      2.336330    68A      2.345443    69A      2.350563  
      70A      2.357554    71A      2.365491    72A      2.385671  
      73A      2.398989    74A      2.408234    75A      2.422066  
      76A      2.860364    77A      2.900048    78A      2.922220  
      79A      2.934270    80A      2.940646    81A      2.978154  
      82A      2.987364    83A      3.039399    84A      3.088632  
      85A      3.173301    86A      3.183678    87A      3.296165  
      88A      4.953421    89A      5.013994    90A      5.171481  
      91A     23.433624    92A     23.547273    93A     23.642232  
      94A     23.707992    95A     49.964401  

    Final Occupation by Irrep:
              A 
    DOCC [    21 ]

  @DF-RKS Final Energy:  -233.57884352836467

   => Energetics <=

    Nuclear Repulsion Energy =            183.0991689060031433
    One-Electron Energy =                -678.0643904256112364
    Two-Electron Energy =                 284.6103908030058847
    DFT Exchange-Correlation Energy =     -23.2171961230826511
    Empirical Dispersion Energy =          -0.0068166886797785
    VV10 Nonlocal Energy =                  0.0000000000000000
    Total Energy =                       -233.5788435283646720

Computation Completed


Properties will be evaluated at   0.000000,   0.000000,   0.000000 [a0]

Properties computed using the SCF density matrix

  Nuclear Dipole Moment: [e a0]
     X:     5.1345      Y:    -0.7754      Z:     1.7023

  Electronic Dipole Moment: [e a0]
     X:    -5.2561      Y:     0.4158      Z:    -1.0404

  Dipole Moment: [e a0]
     X:    -0.1217      Y:    -0.3595      Z:     0.6620     Total:     0.7631

  Dipole Moment: [D]
     X:    -0.3092      Y:    -0.9139      Z:     1.6825     Total:     1.9395


*** tstop() called on daniele-Precision-5750 at Thu May 27 11:08:27 2021
Module time:
	user time   =      29.35 seconds =       0.49 minutes
	system time =       0.76 seconds =       0.01 minutes
	total time  =          5 seconds =       0.08 minutes
Total time:
	user time   =      29.35 seconds =       0.49 minutes
	system time =       0.76 seconds =       0.01 minutes
	total time  =          5 seconds =       0.08 minutes

*** tstart() called on daniele-Precision-5750
*** at Thu May 27 11:08:27 2021


         ------------------------------------------------------------
                                   SCF GRAD                          
                          Rob Parrish, Justin Turney,                
                       Andy Simmonett, and Alex Sokolov              
         ------------------------------------------------------------

  ==> Geometry <==

    Molecular point group: c1
    Full point group: C1

    Geometry (in Angstrom), charge = 0, multiplicity = 1:

       Center              X                  Y                   Z               Mass       
    ------------   -----------------  -----------------  -----------------  -----------------
         O           -2.310930999791     0.393846173572    -0.519753259593    15.994914619570
         C            0.060465000209     0.043624173572    -0.366181259593    12.000000000000
         C            1.276370000209    -0.543414826428     0.403250740407    12.000000000000
         C           -1.307192999791    -0.193456826428     0.311369740407    12.000000000000
         C            2.589641000209     0.237921173572     0.191614740407    12.000000000000
         H            0.179008000209     1.130351173572    -0.471324259593     1.007825032230
         H            0.033510000209    -0.359734826428    -1.386838259593     1.007825032230
         H            1.416977000209    -1.595725826428     0.123902740407     1.007825032230
         H            1.060901000209    -0.547677826428     1.480179740407     1.007825032230
         H           -1.483950999791    -1.268948826428     0.438186740407     1.007825032230
         H           -1.317294999791     0.254981173572     1.312903740407     1.007825032230
         H            2.872662000209     0.253423173572    -0.866382259593     1.007825032230
         H            3.410562000209    -0.223852826428     0.750408740407     1.007825032230
         H            2.495014000209     1.274228173572     0.533668740407     1.007825032230
         H           -3.178589999791     0.253824173572    -0.096174259593     1.007825032230

  Nuclear repulsion =  183.099168906003143

  ==> Basis Set <==

  Basis Set: 6-311G
    Blend: 6-311G
    Number of shells: 65
    Number of basis function: 95
    Number of Cartesian functions: 95
    Spherical Harmonics?: true
    Max angular momentum: 1

  ==> DFJKGrad: Density-Fitted SCF Gradients <==

    Gradient:                    1
    J tasked:                  Yes
    K tasked:                  Yes
    wK tasked:                 Yes
    Omega:               2.000E-01
    OpenMP threads:              8
    Integrals threads:           8
    Memory [MiB]:              500
    Schwarz Cutoff:          0E+00
    Fitting Condition:       1E-10

   => Auxiliary Basis Set <=

  Basis Set: (6-311G AUX)
    Blend: CC-PVTZ-JKFIT
    Number of shells: 225
    Number of basis function: 695
    Number of Cartesian functions: 830
    Spherical Harmonics?: true
    Max angular momentum: 4

  ==> DFT Potential <==

   => Composite Functional: WB97X-D <= 

    wB97X-D Hyb-GGA Exchange-Correlation Functional

    J.-D. Chai and M. Head-Gordon, Phys. Chem. Chem. Phys. 10, 6615 (2008)

    Deriv               =              1
    GGA                 =           TRUE
    Meta                =          FALSE

    Exchange Hybrid     =           TRUE
    MP2 Hybrid          =          FALSE

   => Exchange-Correlation Functionals <=

    1.0000   wB97D range-separated functional

   => Exact (HF) Exchange <=

    0.7780            HF,LR [omega = 0.2000]
    0.2220               HF 

   => Molecular Quadrature <=

    Radial Scheme          =       TREUTLER
    Pruning Scheme         =           FLAT
    Nuclear Scheme         =       TREUTLER

    BS radius alpha        =              1
    Pruning alpha          =              1
    Radial Points          =             75
    Spherical Points       =            302
    Total Points           =         336127
    Total Blocks           =           2565
    Max Points             =            256
    Max Functions          =             89


  -Total Gradient:
     Atom            X                  Y                   Z
    ------   -----------------  -----------------  -----------------
       1        0.014903789887    -0.001078450458    -0.001338353869
       2        0.001241844254    -0.002940321451    -0.003762467366
       3        0.004701461845    -0.002176109795    -0.002791629704
       4       -0.021808986499     0.007527618867    -0.000518387337
       5        0.002804680200     0.003533676183     0.002462783009
       6        0.000015908656     0.002408676147    -0.000952706909
       7        0.001900173297    -0.000725925471    -0.003745625776
       8        0.000016740867    -0.002814991283    -0.000078598918
       9        0.000987807938    -0.000440018760     0.001215289018
      10       -0.001048636326     0.000927172145     0.001225403814
      11       -0.002617044143    -0.001592506501     0.000608882581
      12        0.000754530509    -0.000604740732    -0.001657408004
      13        0.001691671820    -0.000615033781     0.001299022743
      14        0.001098003006     0.002079756364     0.001035707242
      15       -0.004462285961    -0.003453612644     0.007136038326


*** tstop() called on daniele-Precision-5750 at Thu May 27 11:08:28 2021
Module time:
	user time   =      13.38 seconds =       0.22 minutes
	system time =       0.13 seconds =       0.00 minutes
	total time  =          1 seconds =       0.02 minutes
Total time:
	user time   =      42.74 seconds =       0.71 minutes
	system time =       0.89 seconds =       0.01 minutes
	total time  =          6 seconds =       0.10 minutes

			-----------------------------------------
			 OPTKING 2.0: for geometry optimizations 
			  - R.A. King,  Bethel University        
			-----------------------------------------
	At level 1: Red. Int., RFO, no backsteps, dynamic trust

	Internal coordinates to be generated automatically.
	Detected frag 1 with atoms:  1 2 3 4 5 6 7 8 9 10 11 12 13 14 15
	---Fragment 1 Bond Connectivity---
	 1 : 4 15
	 2 : 3 4 6 7
	 3 : 2 5 8 9
	 4 : 1 2 10 11
	 5 : 3 12 13 14
	 6 : 2
	 7 : 2
	 8 : 3
	 9 : 3
	 10 : 4
	 11 : 4
	 12 : 5
	 13 : 5
	 14 : 5
	 15 : 1

	Assuming in current code that numbering for constraints corresponds to unified fragment.
	Frozen dihedral atom list: 
	     4     2     3     5
	     2     4     1    15
	     3     2     4     1
	    12     5     3     2
	---Fragment 1 Geometry and Gradient---
	 O          -4.3670266844        0.7442614036       -0.9821913134
	 C           0.1142622906        0.0824377405       -0.6919822929
	 C           2.4119897351       -1.0269051945        0.7620334593
	 C          -2.4702367627       -0.3655804190        0.5884035331
	 C           4.8937122537        0.4496058575        0.3620993810
	 H           0.3382760947        2.1360541436       -0.8906737669
	 H           0.0633247229       -0.6798002997       -2.6207444909
	 H           2.6776984565       -3.0154847833        0.2341422456
	 H           2.0048123366       -1.0349610969        2.7971343258
	 H          -2.8042609732       -2.3979657492        0.8280529312
	 H          -2.4893267760        0.4818445852        2.4810284985
	 H           5.4285444314        0.4789003919       -1.6372251906
	 H           6.4450281143       -0.4230205344        1.4180670015
	 H           4.7148931396        2.4079422694        1.0084877611
	 H          -6.0066645647        0.4796581721       -0.1817430109
	             0.0149037899       -0.0010784505       -0.0013383539
	             0.0012418443       -0.0029403215       -0.0037624674
	             0.0047014618       -0.0021761098       -0.0027916297
	            -0.0218089865        0.0075276189       -0.0005183873
	             0.0028046802        0.0035336762        0.0024627830
	             0.0000159087        0.0024086761       -0.0009527069
	             0.0019001733       -0.0007259255       -0.0037456258
	             0.0000167409       -0.0028149913       -0.0000785989
	             0.0009878079       -0.0004400188        0.0012152890
	            -0.0010486363        0.0009271721        0.0012254038
	            -0.0026170441       -0.0015925065        0.0006088826
	             0.0007545305       -0.0006047407       -0.0016574080
	             0.0016916718       -0.0006150338        0.0012990227
	             0.0010980030        0.0020797564        0.0010357072
	            -0.0044622860       -0.0034536126        0.0071360383

	Previous optimization step data not found.  Starting new optimization.

	---Fragment 1 Intrafragment Coordinates---
	 - Coordinate -           - BOHR/RAD -       - ANG/DEG -
	 R(1,4)           =         2.701172	       1.429399
	 R(1,15)          =         1.843677	       0.975632
	 R(2,3)           =         2.936725	       1.554048
	 R(2,4)           =         2.918860	       1.544594
	 R(2,6)           =         2.075331	       1.098218
	 R(2,7)           =         2.074542	       1.097800
	 R(3,5)           =         2.915301	       1.542711
	 R(3,8)           =         2.074541	       1.097800
	 R(3,9)           =         2.075450	       1.098281
	 R(4,10)          =         2.073546	       1.097273
	 R(4,11)          =         2.073770	       1.097392
	 R(5,12)          =         2.069831	       1.095308
	 R(5,13)          =         2.069571	       1.095170
	 R(5,14)          =         2.069994	       1.095394
	 B(1,4,2)         =         1.879314	     107.676769
	 B(1,4,10)        =         1.935638	     110.903870
	 B(1,4,11)        =         1.935097	     110.872878
	 B(2,3,5)         =         1.989753	     114.004425
	 B(2,3,8)         =         1.913803	     109.652823
	 B(2,3,9)         =         1.910763	     109.478670
	 B(2,4,10)        =         1.921733	     110.107173
	 B(2,4,11)        =         1.923857	     110.228859
	 B(3,2,4)         =         2.001617	     114.684235
	 B(3,2,6)         =         1.914252	     109.678588
	 B(3,2,7)         =         1.918500	     109.921936
	 B(3,5,12)        =         1.938683	     111.078331
	 B(3,5,13)        =         1.933234	     110.766126
	 B(3,5,14)        =         1.942039	     111.270625
	 B(4,1,15)        =         1.889238	     108.245367
	 B(4,2,6)         =         1.864457	     106.825523
	 B(4,2,7)         =         1.906779	     109.250402
	 B(5,3,8)         =         1.919355	     109.970924
	 B(5,3,9)         =         1.879153	     107.667512
	 B(6,2,7)         =         1.851694	     106.094273
	 B(8,3,9)         =         1.845147	     105.719128
	 B(10,4,11)       =         1.868751	     107.071572
	 B(12,5,13)       =         1.880875	     107.766227
	 B(12,5,14)       =         1.886579	     108.093030
	 B(13,5,14)       =         1.880028	     107.717662
	*D(1,4,2,3)       =        -3.134478	    -179.592383
	 D(1,4,2,6)       =         1.023817	      58.660376
	 D(1,4,2,7)       =        -0.972040	     -55.693801
	*D(2,3,5,12)      =        -1.045116	     -59.880757
	 D(2,3,5,13)      =        -3.134768	    -179.609001
	 D(2,3,5,14)      =         1.057622	      60.597279
	*D(2,4,1,15)      =        -3.135261	    -179.637216
	 D(3,2,4,10)      =        -1.022139	     -58.564260
	 D(3,2,4,11)      =         1.035768	      59.345115
	*D(4,2,3,5)       =        -2.625147	    -150.409827
	 D(4,2,3,8)       =         1.497629	      85.807837
	 D(4,2,3,9)       =        -0.519276	     -29.752344
	 D(5,3,2,6)       =        -0.527631	     -30.231047
	 D(5,3,2,7)       =         1.501849	      86.049605
	 D(6,2,3,8)       =        -2.688041	    -154.013383
	 D(6,2,3,9)       =         1.578239	      90.426437
	 D(6,2,4,10)      =         3.136156	     179.688498
	 D(6,2,4,11)      =        -1.089123	     -62.402127
	 D(7,2,3,8)       =        -0.658560	     -37.732731
	 D(7,2,3,9)       =        -2.675466	    -153.292912
	 D(7,2,4,10)      =         1.140299	      65.334321
	 D(7,2,4,11)      =        -3.084979	    -176.756304
	 D(8,3,5,12)      =         1.112294	      63.729724
	 D(8,3,5,13)      =        -0.977359	     -55.998521
	 D(8,3,5,14)      =        -3.068153	    -175.792241
	 D(9,3,5,12)      =         3.114632	     178.455269
	 D(9,3,5,13)      =         1.024980	      58.727024
	 D(9,3,5,14)      =        -1.065815	     -61.066696
	 D(10,4,1,15)     =         1.044317	      59.834936
	 D(11,4,1,15)     =        -1.029374	     -58.978766

	Current energy   :      -233.5788435284

	Generating empirical Hessian (Schlegel '84) for each fragment.
	Taking RFO optimization step.
	Going to follow RFO solution 1.
	Using RFO vector 1.
	Norm of target step-size    0.13626
	Projected energy change by RFO approximation:        -0.0044413114

	Back-transformation to cartesian coordinates...
	Successfully converged to displaced geometry.

	Back-transformation to cartesian coordinates to adjust frozen coordinates...
	Successfully converged to displaced geometry.

	--- Internal Coordinate Step in ANG or DEG, aJ/ANG or AJ/DEG ---
	 ---------------------------------------------------------------------------
	   Coordinate                Previous        Force       Change         New 
	   ----------                --------       ------       ------       ------
	    1 R(1,4)          =      1.429399     0.103375     0.016028     1.445427
	    2 R(1,15)         =      0.975632    -0.062405    -0.007621     0.968010
	    3 R(2,3)          =      1.554048    -0.086191    -0.020015     1.534033
	    4 R(2,4)          =      1.544594    -0.132800    -0.029965     1.514629
	    5 R(2,6)          =      1.098218    -0.020426    -0.003833     1.094385
	    6 R(2,7)          =      1.097800    -0.030550    -0.005725     1.092076
	    7 R(3,5)          =      1.542711    -0.058960    -0.013228     1.529483
	    8 R(3,8)          =      1.097800    -0.022487    -0.004214     1.093586
	    9 R(3,9)          =      1.098281    -0.008114    -0.001523     1.096758
	   10 R(4,10)         =      1.097273     0.004891     0.000915     1.098188
	   11 R(4,11)         =      1.097392     0.000643     0.000120     1.097512
	   12 R(5,12)         =      1.095308    -0.014792    -0.002749     1.092558
	   13 R(5,13)         =      1.095170    -0.017941    -0.003333     1.091837
	   14 R(5,14)         =      1.095394    -0.018036    -0.003353     1.092040
	   15 B(1,4,2)        =    107.676769    -0.000056    -0.352372   107.324397
	   16 B(1,4,10)       =    110.903870     0.000053     0.501717   111.405586
	   17 B(1,4,11)       =    110.872878     0.000129     0.518672   111.391550
	   18 B(2,3,5)        =    114.004425    -0.000360    -1.404018   112.600407
	   19 B(2,3,8)        =    109.652823     0.000130     0.349995   110.002818
	   20 B(2,3,9)        =    109.478670     0.000031    -0.218170   109.260499
	   21 B(2,4,10)       =    110.107173    -0.000076    -0.400526   109.706647
	   22 B(2,4,11)       =    110.228859    -0.000183    -1.381349   108.847511
	   23 B(3,2,4)        =    114.684235    -0.000503    -1.961077   112.723158
	   24 B(3,2,6)        =    109.678588     0.000113     0.301281   109.979869
	   25 B(3,2,7)        =    109.921936     0.000240     0.968350   110.890286
	   26 B(3,5,12)       =    111.078331     0.000026     0.068487   111.146818
	   27 B(3,5,13)       =    110.766126     0.000012     0.163809   110.929935
	   28 B(3,5,14)       =    111.270625    -0.000127    -0.687344   110.583281
	   29 B(4,1,15)       =    108.245367     0.000709     3.260525   111.505891
	   30 B(4,2,6)        =    106.825523     0.000162     0.511105   107.336628
	   31 B(4,2,7)        =    109.250402     0.000059    -0.454965   108.795437
	   32 B(5,3,8)        =    109.970924     0.000102     0.167868   110.138791
	   33 B(5,3,9)        =    107.667512     0.000150     0.665177   108.332689
	   34 B(6,2,7)        =    106.094273    -0.000042     0.791539   106.885811
	   35 B(8,3,9)        =    105.719128    -0.000029     0.570827   106.289956
	   36 B(10,4,11)      =    107.071572     0.000130     1.060962   108.132534
	   37 B(12,5,13)      =    107.766227     0.000003     0.150120   107.916347
	   38 B(12,5,14)      =    108.093030     0.000019    -0.108284   107.984745
	   39 B(13,5,14)      =    107.717662     0.000073     0.439720   108.157382
	   40 *D(1,4,2,3)     =   -179.592383     0.000000    -0.000000  -179.592383
	   41 D(1,4,2,6)      =     58.660376     0.000014     0.495221    59.155597
	   42 D(1,4,2,7)      =    -55.693801    -0.000001    -0.470490   -56.164291
	   43 *D(2,3,5,12)    =    -59.880757    -0.000000    -0.000000   -59.880757
	   44 D(2,3,5,13)     =   -179.609001    -0.000007    -0.343207  -179.952208
	   45 D(2,3,5,14)     =     60.597279    -0.000010    -0.551114    60.046165
	   46 *D(2,4,1,15)    =   -179.637216    -0.000000    -0.000000  -179.637216
	   47 D(3,2,4,10)     =    -58.564260    -0.000003     0.158331   -58.405929
	   48 D(3,2,4,11)     =     59.345115    -0.000003     0.385452    59.730567
	   49 *D(4,2,3,5)     =   -150.409827     0.000000    -0.000000  -150.409827
	   50 D(4,2,3,8)      =     85.807837     0.000006     0.524505    86.332341
	   51 D(4,2,3,9)      =    -29.752344    -0.000006    -0.236480   -29.988824
	   52 D(5,3,2,6)      =    -30.231047    -0.000011    -0.442530   -30.673577
	   53 D(5,3,2,7)      =     86.049605     0.000024     1.283682    87.333287
	   54 D(6,2,3,8)      =   -154.013383    -0.000005     0.081975  -153.931408
	   55 D(6,2,3,9)      =     90.426437    -0.000018    -0.679010    89.747426
	   56 D(6,2,4,10)     =    179.688498     0.000011     0.653552   180.342051
	   57 D(6,2,4,11)     =    -62.402127     0.000011     0.880673   -61.521454
	   58 D(7,2,3,8)      =    -37.732731     0.000030     1.808187   -35.924544
	   59 D(7,2,3,9)      =   -153.292912     0.000017     1.047202  -152.245710
	   60 D(7,2,4,10)     =     65.334321    -0.000004    -0.312158    65.022163
	   61 D(7,2,4,11)     =   -176.756304    -0.000004    -0.085038  -176.841342
	   62 D(8,3,5,12)     =     63.729724    -0.000003    -0.428512    63.301212
	   63 D(8,3,5,13)     =    -55.998521    -0.000010    -0.771718   -56.770239
	   64 D(8,3,5,14)     =   -175.792241    -0.000013    -0.979625  -176.771866
	   65 D(9,3,5,12)     =    178.455269     0.000020     0.710837   179.166106
	   66 D(9,3,5,13)     =     58.727024     0.000013     0.367631    59.094655
	   67 D(9,3,5,14)     =    -61.066696     0.000010     0.159724   -60.906972
	   68 D(10,4,1,15)    =     59.834936     0.000022     0.416634    60.251570
	   69 D(11,4,1,15)    =    -58.978766    -0.000042    -1.604565   -60.583331
	 ---------------------------------------------------------------------------
	Successfully symmetrized geometry.

  ==> Convergence Check <==

  Measures of convergence in internal coordinates in au.
  Criteria marked as inactive (o), active & met (*), and active & unmet ( ).
  --------------------------------------------------------------------------------------------- ~
   Step     Total Energy     Delta E     MAX Force     RMS Force      MAX Disp      RMS Disp    ~
  --------------------------------------------------------------------------------------------- ~
    Convergence Criteria             o    2.50e-03 *    1.70e-03 *    1.00e-02 *    6.70e-03 *  ~
  --------------------------------------------------------------------------------------------- ~
      1    -233.57884353   -2.34e+02 o    1.61e-02      3.60e-03      5.69e-02      1.64e-02    ~
  ---------------------------------------------------------------------------------------------

	Writing optimization data to binary file.
	Structure for next step:
	Cartesian Geometry (in Angstrom)
	    O    -2.2657212481   0.3912513439  -0.5838915613
	    C     0.0835274343   0.0367284573  -0.3775898563
	    C     1.2456657230  -0.5470851723   0.4359542661
	    C    -1.2625680396  -0.1917982395   0.2780802688
	    C     2.5485251045   0.2299507304   0.2407840296
	    H     0.2119708150   1.1176717406  -0.4904744406
	    H     0.0611761031  -0.3868629128  -1.3839198999
	    H     1.3923697716  -1.5993097019   0.1766641450
	    H     0.9877426523  -0.5259465858   1.5017437026
	    H    -1.4293034247  -1.2684634106   0.4159543477
	    H    -1.2601165149   0.2829289939   1.2676060291
	    H     2.8568613897   0.2255263584  -0.8073537635
	    H     3.3561899329  -0.2084600622   0.8303441075
	    H     2.4257891963   1.2695567627   0.5517622449
	    H    -3.1549589150   0.2836993050  -0.2168315206
			--------------------------
			 OPTKING Finished Execution 
			--------------------------

    Structure for next step:
    Molecular point group: c1
    Full point group: C1

    Geometry (in Angstrom), charge = 0, multiplicity = 1:

    O           -2.274255175506     0.394280971287    -0.576431167266
    C            0.074993516139     0.039758083322    -0.370129461517
    C            1.237131809422    -0.544055548639     0.443414664055
    C           -1.271101963090    -0.188768614424     0.285540666135
    C            2.539991196013     0.232980357098     0.248244426865
    H            0.203436897336     1.120701370856    -0.483014046282
    H            0.052642184847    -0.383833288497    -1.376459509106
    H            1.383835858590    -1.596280082358     0.184124541968
    H            0.979208737701    -0.522916962075     1.509204104786
    H           -1.437837348793    -1.265433789712     0.423414745614
    H           -1.268650438383     0.285958620827     1.275066430360
    H            2.848327482466     0.228555985166    -0.799893370434
    H            3.347656027573    -0.205430437182     0.837804507014
    H            2.417255287336     1.272586393552     0.559222643332
    H           -3.163492845893     0.286728931906    -0.209371125173

gradient() will perform analytic gradient computation.

*** tstart() called on daniele-Precision-5750
*** at Thu May 27 11:08:28 2021

   => Loading Basis Set <=

    Name: 6-311G
    Role: ORBITAL
    Keyword: BASIS
    atoms 1    entry O          line   126 file /home/daniele/anaconda3/envs/poltype/share/psi4/basis/6-311g.gbs 
    atoms 2-5  entry C          line    92 file /home/daniele/anaconda3/envs/poltype/share/psi4/basis/6-311g.gbs 
    atoms 6-15 entry H          line    21 file /home/daniele/anaconda3/envs/poltype/share/psi4/basis/6-311g.gbs 


         ---------------------------------------------------------
                                   SCF
               by Justin Turney, Rob Parrish, Andy Simmonett
                          and Daniel G. A. Smith
                              RKS Reference
                        8 Threads,    667 MiB Core
         ---------------------------------------------------------

  ==> Geometry <==

    Molecular point group: c1
    Full point group: C1

    Geometry (in Angstrom), charge = 0, multiplicity = 1:

       Center              X                  Y                   Z               Mass       
    ------------   -----------------  -----------------  -----------------  -----------------
         O           -2.274255175506     0.394280971287    -0.576431167266    15.994914619570
         C            0.074993516139     0.039758083322    -0.370129461517    12.000000000000
         C            1.237131809422    -0.544055548639     0.443414664055    12.000000000000
         C           -1.271101963090    -0.188768614424     0.285540666135    12.000000000000
         C            2.539991196013     0.232980357098     0.248244426865    12.000000000000
         H            0.203436897336     1.120701370856    -0.483014046282     1.007825032230
         H            0.052642184847    -0.383833288497    -1.376459509106     1.007825032230
         H            1.383835858590    -1.596280082358     0.184124541968     1.007825032230
         H            0.979208737701    -0.522916962075     1.509204104786     1.007825032230
         H           -1.437837348793    -1.265433789712     0.423414745614     1.007825032230
         H           -1.268650438383     0.285958620827     1.275066430360     1.007825032230
         H            2.848327482466     0.228555985166    -0.799893370434     1.007825032230
         H            3.347656027573    -0.205430437182     0.837804507014     1.007825032230
         H            2.417255287336     1.272586393552     0.559222643332     1.007825032230
         H           -3.163492845893     0.286728931906    -0.209371125173     1.007825032230

  Running in c1 symmetry.

  Rotational constants: A =      0.58825  B =      0.06644  C =      0.06346 [cm^-1]
  Rotational constants: A =  17635.43489  B =   1991.81682  C =   1902.61498 [MHz]
  Nuclear repulsion =  184.771533790617354

  Charge       = 0
  Multiplicity = 1
  Electrons    = 42
  Nalpha       = 21
  Nbeta        = 21

  ==> Algorithm <==

  SCF Algorithm Type is DF.
  DIIS enabled.
  MOM disabled.
  Fractional occupation disabled.
  Guess Type is READ.
  Energy threshold   = 1.00e-08
  Density threshold  = 1.00e-08
  Integral threshold = 0.00e+00

  ==> Primary Basis <==

  Basis Set: 6-311G
    Blend: 6-311G
    Number of shells: 65
    Number of basis function: 95
    Number of Cartesian functions: 95
    Spherical Harmonics?: true
    Max angular momentum: 1

  ==> DFT Potential <==

   => Composite Functional: WB97X-D <= 

    wB97X-D Hyb-GGA Exchange-Correlation Functional

    J.-D. Chai and M. Head-Gordon, Phys. Chem. Chem. Phys. 10, 6615 (2008)

    Deriv               =              1
    GGA                 =           TRUE
    Meta                =          FALSE

    Exchange Hybrid     =           TRUE
    MP2 Hybrid          =          FALSE

   => Exchange-Correlation Functionals <=

    1.0000   wB97D range-separated functional

   => Exact (HF) Exchange <=

    0.7780            HF,LR [omega = 0.2000]
    0.2220               HF 

   => Molecular Quadrature <=

    Radial Scheme          =       TREUTLER
    Pruning Scheme         =           FLAT
    Nuclear Scheme         =       TREUTLER

    BS radius alpha        =              1
    Pruning alpha          =              1
    Radial Points          =             75
    Spherical Points       =            302
    Total Points           =         336125
    Total Blocks           =           2562
    Max Points             =            256
    Max Functions          =             89

   => WB97X-D: Empirical Dispersion <=

    Chai and Head-Gordon Dispersion Correction
    Chai, J.-D.; Head-Gordon, M. (2010), J. Chem. Phys., 132: 6615-6620

        s6 =       1.000000

   => Loading Basis Set <=

    Name: (6-311G AUX)
    Role: JKFIT
    Keyword: DF_BASIS_SCF
    atoms 1    entry O          line   229 file /home/daniele/anaconda3/envs/poltype/share/psi4/basis/cc-pvtz-jkfit.gbs 
    atoms 2-5  entry C          line   125 file /home/daniele/anaconda3/envs/poltype/share/psi4/basis/cc-pvtz-jkfit.gbs 
    atoms 6-15 entry H          line    51 file /home/daniele/anaconda3/envs/poltype/share/psi4/basis/cc-pvtz-jkfit.gbs 

   => Loading Basis Set <=

    Name: 6-311G
    Role: ORBITAL
    Keyword: BASIS
    atoms 1    entry O          line   126 file /home/daniele/anaconda3/envs/poltype/share/psi4/basis/6-311g.gbs 
    atoms 2-5  entry C          line    92 file /home/daniele/anaconda3/envs/poltype/share/psi4/basis/6-311g.gbs 
    atoms 6-15 entry H          line    21 file /home/daniele/anaconda3/envs/poltype/share/psi4/basis/6-311g.gbs 

  Reading orbitals from file 180, no projection.

  ==> Pre-Iterations <==

   -------------------------------------------------------
    Irrep   Nso     Nmo     Nalpha   Nbeta   Ndocc  Nsocc
   -------------------------------------------------------
     A         95      95       0       0       0       0
   -------------------------------------------------------
    Total      95      95      21      21      21       0
   -------------------------------------------------------

  ==> Integral Setup <==

  ==> DiskDFJK: Density-Fitted J/K Matrices <==

    J tasked:                  Yes
    K tasked:                  Yes
    wK tasked:                 Yes
    Omega:               2.000E-01
    OpenMP threads:              8
    Integrals threads:           8
    Memory [MiB]:               34
    Algorithm:                Disk
    Integral Cache:           NONE
    Schwarz Cutoff:          1E-12
    Fitting Condition:       1E-10

   => Auxiliary Basis Set <=

  Basis Set: (6-311G AUX)
    Blend: CC-PVTZ-JKFIT
    Number of shells: 225
    Number of basis function: 695
    Number of Cartesian functions: 830
    Spherical Harmonics?: true
    Max angular momentum: 4

  Cached 100.0% of DFT collocation blocks in 0.667 [GiB].

  Minimum eigenvalue in the overlap matrix is 2.3504207077E-03.
  Using Symmetric Orthogonalization.

  SCF Guess: Orbitals guess was supplied from a previous computation.

  ==> Iterations <==

                           Total Energy        Delta E     RMS |[F,P]|

   @DF-RKS iter   0:  -233.59240765271446   -2.33592e+02   1.00598e-03 
   @DF-RKS iter   1:  -233.58020135556902    1.22063e-02   1.40164e-04 DIIS
   @DF-RKS iter   2:  -233.58029761485258   -9.62593e-05   9.23839e-05 DIIS
   @DF-RKS iter   3:  -233.58032641550741   -2.88007e-05   3.11634e-05 DIIS
   @DF-RKS iter   4:  -233.58033004996352   -3.63446e-06   9.44832e-06 DIIS
   @DF-RKS iter   5:  -233.58033045795662   -4.07993e-07   2.23041e-06 DIIS
   @DF-RKS iter   6:  -233.58033048629090   -2.83343e-08   2.60025e-07 DIIS
   @DF-RKS iter   7:  -233.58033048697013   -6.79222e-10   1.37623e-07 DIIS
   @DF-RKS iter   8:  -233.58033048707574   -1.05615e-10   2.50719e-08 DIIS
   @DF-RKS iter   9:  -233.58033048708134   -5.59908e-12   4.39236e-09 DIIS
  Energy and wave function converged.


  ==> Post-Iterations <==

    Orbital Energies [Eh]
    ---------------------

    Doubly Occupied:                                                      

       1A    -19.235713     2A    -10.329673     3A    -10.280492  
       4A    -10.272772     5A    -10.269051     6A     -1.119162  
       7A     -0.899569     8A     -0.823724     9A     -0.725744  
      10A     -0.678055    11A     -0.596972    12A     -0.572295  
      13A     -0.527795    14A     -0.515239    15A     -0.482384  
      16A     -0.455645    17A     -0.429702    18A     -0.418665  
      19A     -0.407279    20A     -0.399591    21A     -0.352580  

    Virtual:                                                              

      22A      0.120649    23A      0.124810    24A      0.151980  
      25A      0.155390    26A      0.170533    27A      0.205042  
      28A      0.209330    29A      0.215042    30A      0.220435  
      31A      0.230873    32A      0.268004    33A      0.304764  
      34A      0.308099    35A      0.335358    36A      0.385116  
      37A      0.398446    38A      0.418176    39A      0.451090  
      40A      0.455566    41A      0.468579    42A      0.501694  
      43A      0.539144    44A      0.603901    45A      0.619295  
      46A      0.646168    47A      0.652900    48A      0.668275  
      49A      0.674984    50A      0.684776    51A      0.688042  
      52A      0.694679    53A      0.701703    54A      0.710142  
      55A      0.722552    56A      0.727370    57A      0.757984  
      58A      0.855242    59A      0.959330    60A      1.000397  
      61A      1.016460    62A      1.052964    63A      1.138293  
      64A      1.220321    65A      1.590653    66A      2.266161  
      67A      2.335103    68A      2.340509    69A      2.351349  
      70A      2.361069    71A      2.369139    72A      2.388642  
      73A      2.403994    74A      2.409493    75A      2.424029  
      76A      2.845596    77A      2.905482    78A      2.921946  
      79A      2.937468    80A      2.944831    81A      2.978958  
      82A      2.994060    83A      3.038615    84A      3.096095  
      85A      3.179523    86A      3.189023    87A      3.315827  
      88A      4.955860    89A      5.018972    90A      5.189749  
      91A     23.431569    92A     23.549664    93A     23.654193  
      94A     23.727987    95A     49.963564  

    Final Occupation by Irrep:
              A 
    DOCC [    21 ]

  @DF-RKS Final Energy:  -233.58033048708134

   => Energetics <=

    Nuclear Repulsion Energy =            184.7715337906173545
    One-Electron Energy =                -681.4029696284457032
    Two-Electron Energy =                 286.2993203871673700
    DFT Exchange-Correlation Energy =     -23.2412976752878002
    Empirical Dispersion Energy =          -0.0069173611325527
    VV10 Nonlocal Energy =                  0.0000000000000000
    Total Energy =                       -233.5803304870813406

Computation Completed


Properties will be evaluated at   0.000000,   0.000000,   0.000000 [a0]

Properties computed using the SCF density matrix

  Nuclear Dipole Moment: [e a0]
     X:     5.0161      Y:    -0.7287      Z:     1.7973

  Electronic Dipole Moment: [e a0]
     X:    -5.1545      Y:     0.3835      Z:    -1.1513

  Dipole Moment: [e a0]
     X:    -0.1384      Y:    -0.3453      Z:     0.6460     Total:     0.7454

  Dipole Moment: [D]
     X:    -0.3517      Y:    -0.8776      Z:     1.6420     Total:     1.8947


*** tstop() called on daniele-Precision-5750 at Thu May 27 11:08:31 2021
Module time:
	user time   =      23.74 seconds =       0.40 minutes
	system time =       0.32 seconds =       0.01 minutes
	total time  =          3 seconds =       0.05 minutes
Total time:
	user time   =      67.02 seconds =       1.12 minutes
	system time =       1.22 seconds =       0.02 minutes
	total time  =          9 seconds =       0.15 minutes

*** tstart() called on daniele-Precision-5750
*** at Thu May 27 11:08:31 2021


         ------------------------------------------------------------
                                   SCF GRAD                          
                          Rob Parrish, Justin Turney,                
                       Andy Simmonett, and Alex Sokolov              
         ------------------------------------------------------------

  ==> Geometry <==

    Molecular point group: c1
    Full point group: C1

    Geometry (in Angstrom), charge = 0, multiplicity = 1:

       Center              X                  Y                   Z               Mass       
    ------------   -----------------  -----------------  -----------------  -----------------
         O           -2.274255175506     0.394280971287    -0.576431167266    15.994914619570
         C            0.074993516139     0.039758083322    -0.370129461517    12.000000000000
         C            1.237131809422    -0.544055548639     0.443414664055    12.000000000000
         C           -1.271101963090    -0.188768614424     0.285540666135    12.000000000000
         C            2.539991196013     0.232980357098     0.248244426865    12.000000000000
         H            0.203436897336     1.120701370856    -0.483014046282     1.007825032230
         H            0.052642184847    -0.383833288497    -1.376459509106     1.007825032230
         H            1.383835858590    -1.596280082358     0.184124541968     1.007825032230
         H            0.979208737701    -0.522916962075     1.509204104786     1.007825032230
         H           -1.437837348793    -1.265433789712     0.423414745614     1.007825032230
         H           -1.268650438383     0.285958620827     1.275066430360     1.007825032230
         H            2.848327482466     0.228555985166    -0.799893370434     1.007825032230
         H            3.347656027573    -0.205430437182     0.837804507014     1.007825032230
         H            2.417255287336     1.272586393552     0.559222643332     1.007825032230
         H           -3.163492845893     0.286728931906    -0.209371125173     1.007825032230

  Nuclear repulsion =  184.771533790617354

  ==> Basis Set <==

  Basis Set: 6-311G
    Blend: 6-311G
    Number of shells: 65
    Number of basis function: 95
    Number of Cartesian functions: 95
    Spherical Harmonics?: true
    Max angular momentum: 1

  ==> DFJKGrad: Density-Fitted SCF Gradients <==

    Gradient:                    1
    J tasked:                  Yes
    K tasked:                  Yes
    wK tasked:                 Yes
    Omega:               2.000E-01
    OpenMP threads:              8
    Integrals threads:           8
    Memory [MiB]:              500
    Schwarz Cutoff:          0E+00
    Fitting Condition:       1E-10

   => Auxiliary Basis Set <=

  Basis Set: (6-311G AUX)
    Blend: CC-PVTZ-JKFIT
    Number of shells: 225
    Number of basis function: 695
    Number of Cartesian functions: 830
    Spherical Harmonics?: true
    Max angular momentum: 4

  ==> DFT Potential <==

   => Composite Functional: WB97X-D <= 

    wB97X-D Hyb-GGA Exchange-Correlation Functional

    J.-D. Chai and M. Head-Gordon, Phys. Chem. Chem. Phys. 10, 6615 (2008)

    Deriv               =              1
    GGA                 =           TRUE
    Meta                =          FALSE

    Exchange Hybrid     =           TRUE
    MP2 Hybrid          =          FALSE

   => Exchange-Correlation Functionals <=

    1.0000   wB97D range-separated functional

   => Exact (HF) Exchange <=

    0.7780            HF,LR [omega = 0.2000]
    0.2220               HF 

   => Molecular Quadrature <=

    Radial Scheme          =       TREUTLER
    Pruning Scheme         =           FLAT
    Nuclear Scheme         =       TREUTLER

    BS radius alpha        =              1
    Pruning alpha          =              1
    Radial Points          =             75
    Spherical Points       =            302
    Total Points           =         336125
    Total Blocks           =           2562
    Max Points             =            256
    Max Functions          =             89


  -Total Gradient:
     Atom            X                  Y                   Z
    ------   -----------------  -----------------  -----------------
       1        0.001791675011     0.000220413183    -0.000600295080
       2        0.000415201422    -0.003184058467     0.001288448453
       3        0.000717650797    -0.001125744144    -0.002432350425
       4       -0.001198771135     0.003006900548    -0.000392893315
       5       -0.001691597685     0.002698026851     0.000788818404
       6       -0.000349927704     0.000500781643     0.000374651623
       7       -0.000404393352    -0.000612279378     0.000164454610
       8        0.000007467819     0.000016311381    -0.000328792362
       9       -0.000180838565     0.000279141037     0.000106234015
      10        0.001438166841    -0.000731056033     0.000362220178
      11        0.001947131334    -0.000242190578     0.000416527022
      12        0.000224852198    -0.000404233516     0.000022637249
      13       -0.000551442753    -0.000556151115     0.000369174347
      14       -0.000224822544    -0.000119622333     0.000104491784
      15       -0.001836096139     0.000338411559    -0.000149691838


*** tstop() called on daniele-Precision-5750 at Thu May 27 11:08:33 2021
Module time:
	user time   =      13.10 seconds =       0.22 minutes
	system time =       0.13 seconds =       0.00 minutes
	total time  =          2 seconds =       0.03 minutes
Total time:
	user time   =      80.13 seconds =       1.34 minutes
	system time =       1.35 seconds =       0.02 minutes
	total time  =         11 seconds =       0.18 minutes

			-----------------------------------------
			 OPTKING 2.0: for geometry optimizations 
			  - R.A. King,  Bethel University        
			-----------------------------------------
	At level 1: Red. Int., RFO, no backsteps, dynamic trust

	Previous internal coordinate definitions found.
	---Fragment 1 Geometry and Gradient---
	 O          -4.2977194211        0.7450830522       -1.0892970363
	 C           0.1417172067        0.0751318888       -0.6994433132
	 C           2.3378403009       -1.0281159840        0.8379322751
	 C          -2.4020345878       -0.3567209823        0.5395936567
	 C           4.7998877215        0.4402690675        0.4691139789
	 H           0.3844400198        2.1178186593       -0.9127642622
	 H           0.0994793120       -0.7253397931       -2.6011314950
	 H           2.6150707753       -3.0165321752        0.3479449573
	 H           1.8504363339       -0.9881698447        2.8519824255
	 H          -2.7171188022       -2.3913232925        0.8001379067
	 H          -2.3974018775        0.5403834766        2.4095263451
	 H           5.3825588575        0.4319082163       -1.5115793997
	 H           6.3261530544       -0.3882072641        1.5832210649
	 H           4.5679504684        2.4048397548        1.0567776391
	 H          -5.9781350786        0.5418391535       -0.3956540852
	             0.0017916750        0.0002204132       -0.0006002951
	             0.0004152014       -0.0031840585        0.0012884485
	             0.0007176508       -0.0011257441       -0.0024323504
	            -0.0011987711        0.0030069005       -0.0003928933
	            -0.0016915977        0.0026980269        0.0007888184
	            -0.0003499277        0.0005007816        0.0003746516
	            -0.0004043934       -0.0006122794        0.0001644546
	             0.0000074678        0.0000163114       -0.0003287924
	            -0.0001808386        0.0002791410        0.0001062340
	             0.0014381668       -0.0007310560        0.0003622202
	             0.0019471313       -0.0002421906        0.0004165270
	             0.0002248522       -0.0004042335        0.0000226372
	            -0.0005514428       -0.0005561511        0.0003691743
	            -0.0002248225       -0.0001196223        0.0001044918
	            -0.0018360961        0.0003384116       -0.0001496918

	---Fragment 1 Intrafragment Coordinates---
	 - Coordinate -           - BOHR/RAD -       - ANG/DEG -
	 R(1,4)           =         2.731461	       1.445427
	 R(1,15)          =         1.829275	       0.968010
	 R(2,3)           =         2.898903	       1.534033
	 R(2,4)           =         2.862234	       1.514629
	 R(2,6)           =         2.068088	       1.094385
	 R(2,7)           =         2.063724	       1.092076
	 R(3,5)           =         2.890304	       1.529483
	 R(3,8)           =         2.066578	       1.093586
	 R(3,9)           =         2.072572	       1.096758
	 R(4,10)          =         2.075275	       1.098188
	 R(4,11)          =         2.073998	       1.097512
	 R(5,12)          =         2.064636	       1.092558
	 R(5,13)          =         2.063273	       1.091837
	 R(5,14)          =         2.063657	       1.092040
	 B(1,4,2)         =         1.873164	     107.324397
	 B(1,4,10)        =         1.944394	     111.405586
	 B(1,4,11)        =         1.944149	     111.391550
	 B(2,3,5)         =         1.965248	     112.600407
	 B(2,3,8)         =         1.919911	     110.002818
	 B(2,3,9)         =         1.906955	     109.260499
	 B(2,4,10)        =         1.914742	     109.706647
	 B(2,4,11)        =         1.899747	     108.847511
	 B(3,2,4)         =         1.967390	     112.723158
	 B(3,2,6)         =         1.919511	     109.979869
	 B(3,2,7)         =         1.935401	     110.890286
	 B(3,5,12)        =         1.939878	     111.146818
	 B(3,5,13)        =         1.936093	     110.929935
	 B(3,5,14)        =         1.930042	     110.583281
	 B(4,1,15)        =         1.946145	     111.505891
	 B(4,2,6)         =         1.873378	     107.336628
	 B(4,2,7)         =         1.898839	     108.795437
	 B(5,3,8)         =         1.922285	     110.138791
	 B(5,3,9)         =         1.890762	     108.332689
	 B(6,2,7)         =         1.865509	     106.885811
	 B(8,3,9)         =         1.855110	     106.289956
	 B(10,4,11)       =         1.887269	     108.132534
	 B(12,5,13)       =         1.883496	     107.916347
	 B(12,5,14)       =         1.884689	     107.984745
	 B(13,5,14)       =         1.887702	     108.157382
	*D(1,4,2,3)       =        -3.134478	    -179.592383
	 D(1,4,2,6)       =         1.032460	      59.155597
	 D(1,4,2,7)       =        -0.980252	     -56.164291
	*D(2,3,5,12)      =        -1.045116	     -59.880757
	 D(2,3,5,13)      =        -3.140759	    -179.952208
	 D(2,3,5,14)      =         1.048003	      60.046165
	*D(2,4,1,15)      =        -3.135261	    -179.637216
	 D(3,2,4,10)      =        -1.019376	     -58.405929
	 D(3,2,4,11)      =         1.042495	      59.730567
	*D(4,2,3,5)       =        -2.625147	    -150.409827
	 D(4,2,3,8)       =         1.506784	      86.332341
	 D(4,2,3,9)       =        -0.523404	     -29.988824
	 D(5,3,2,6)       =        -0.535355	     -30.673577
	 D(5,3,2,7)       =         1.524253	      87.333287
	 D(6,2,3,8)       =        -2.686610	    -153.931408
	 D(6,2,3,9)       =         1.566388	      89.747426
	 D(6,2,4,10)      =        -3.135623	    -179.657949
	 D(6,2,4,11)      =        -1.073752	     -61.521454
	 D(7,2,3,8)       =        -0.627002	     -35.924544
	 D(7,2,3,9)       =        -2.657189	    -152.245710
	 D(7,2,4,10)      =         1.134851	      65.022163
	 D(7,2,4,11)      =        -3.086464	    -176.841342
	 D(8,3,5,12)      =         1.104815	      63.301212
	 D(8,3,5,13)      =        -0.990828	     -56.770239
	 D(8,3,5,14)      =        -3.085251	    -176.771866
	 D(9,3,5,12)      =         3.127038	     179.166106
	 D(9,3,5,13)      =         1.031396	      59.094655
	 D(9,3,5,14)      =        -1.063027	     -60.906972
	 D(10,4,1,15)     =         1.051588	      60.251570
	 D(11,4,1,15)     =        -1.057379	     -60.583331

	Current energy   :      -233.5803304871

	Energy change for the previous step:
		Projected    :        -0.0044413114
		Actual       :        -0.0014869587

	Performing BFGS update.
	Previous computed or guess Hessian on step 1.
	Steps to be used in Hessian update: 1
	Taking RFO optimization step.
	Going to follow RFO solution 1.
	Using RFO vector 1.
	Norm of target step-size    0.03745
	Projected energy change by RFO approximation:        -0.0001697684

	Back-transformation to cartesian coordinates...
	Could not converge backtransformation.
	Using first guess instead.

	Back-transformation to cartesian coordinates to adjust frozen coordinates...
	Successfully converged to displaced geometry.

	--- Internal Coordinate Step in ANG or DEG, aJ/ANG or AJ/DEG ---
	 ---------------------------------------------------------------------------
	   Coordinate                Previous        Force       Change         New 
	   ----------                --------       ------       ------       ------
	    1 R(1,4)          =      1.445427    -0.005858    -0.000225     1.445202
	    2 R(1,15)         =      0.968010    -0.013192    -0.001591     0.966419
	    3 R(2,3)          =      1.534033     0.019420     0.003257     1.537290
	    4 R(2,4)          =      1.514629     0.019968     0.002906     1.517535
	    5 R(2,6)          =      1.094385    -0.003441    -0.000696     1.093690
	    6 R(2,7)          =      1.092076    -0.000798    -0.000319     1.091756
	    7 R(3,5)          =      1.529483     0.010640     0.001646     1.531129
	    8 R(3,8)          =      1.093586    -0.000640    -0.000247     1.093339
	    9 R(3,9)          =      1.096758    -0.001126    -0.000237     1.096521
	   10 R(4,10)         =      1.098188    -0.004538    -0.000666     1.097523
	   11 R(4,11)         =      1.097512    -0.002204    -0.000268     1.097245
	   12 R(5,12)         =      1.092558    -0.000387    -0.000157     1.092402
	   13 R(5,13)         =      1.091837    -0.000089    -0.000123     1.091714
	   14 R(5,14)         =      1.092040     0.000568    -0.000015     1.092026
	   15 B(1,4,2)        =    107.324397     0.000086     0.205925   107.530323
	   16 B(1,4,10)       =    111.405586    -0.000105    -0.622498   110.783088
	   17 B(1,4,11)       =    111.391550    -0.000122    -0.736196   110.655353
	   18 B(2,3,5)        =    112.600407     0.000081     0.249505   112.849911
	   19 B(2,3,8)        =    110.002818    -0.000015     0.033116   110.035934
	   20 B(2,3,9)        =    109.260499    -0.000017    -0.017573   109.242926
	   21 B(2,4,10)       =    109.706647     0.000069     0.491012   110.197660
	   22 B(2,4,11)       =    108.847511     0.000099     0.651332   109.498842
	   23 B(3,2,4)        =    112.723158    -0.000024    -0.082157   112.641000
	   24 B(3,2,6)        =    109.979869    -0.000006    -0.114584   109.865285
	   25 B(3,2,7)        =    110.890286    -0.000002     0.053478   110.943764
	   26 B(3,5,12)       =    111.146818    -0.000020    -0.123500   111.023318
	   27 B(3,5,13)       =    110.929935     0.000093     0.444841   111.374776
	   28 B(3,5,14)       =    110.583281     0.000015     0.026575   110.609856
	   29 B(4,1,15)       =    111.505891    -0.000137    -0.440860   111.065031
	   30 B(4,2,6)        =    107.336628     0.000030     0.167584   107.504212
	   31 B(4,2,7)        =    108.795437     0.000028     0.218133   109.013569
	   32 B(5,3,8)        =    110.138791    -0.000027    -0.036279   110.102513
	   33 B(5,3,9)        =    108.332689    -0.000027    -0.071277   108.261412
	   34 B(6,2,7)        =    106.885811    -0.000025    -0.247179   106.638633
	   35 B(8,3,9)        =    106.289956     0.000000    -0.185572   106.104384
	   36 B(10,4,11)      =    108.132534    -0.000020     0.043151   108.175685
	   37 B(12,5,13)      =    107.916347    -0.000040    -0.135474   107.780873
	   38 B(12,5,14)      =    107.984745    -0.000010    -0.153510   107.831235
	   39 B(13,5,14)      =    108.157382    -0.000043    -0.078392   108.078990
	   40 *D(1,4,2,3)     =   -179.592383    -0.000000    -0.000000  -179.592383
	   41 D(1,4,2,6)      =     59.155597     0.000000     0.080272    59.235869
	   42 D(1,4,2,7)      =    -56.164291     0.000000     0.170970   -55.993321
	   43 *D(2,3,5,12)    =    -59.880757     0.000000    -0.000000   -59.880757
	   44 D(2,3,5,13)     =   -179.952208     0.000000    -0.043881  -179.996089
	   45 D(2,3,5,14)     =     60.046165    -0.000003    -0.255955    59.790210
	   46 *D(2,4,1,15)    =   -179.637216     0.000000    -0.000000  -179.637216
	   47 D(3,2,4,10)     =    -58.405929    -0.000008    -0.342530   -58.748459
	   48 D(3,2,4,11)     =     59.730567     0.000009     0.393164    60.123730
	   49 *D(4,2,3,5)     =   -150.409827     0.000000    -0.000000  -150.409827
	   50 D(4,2,3,8)      =     86.332341    -0.000003    -0.155036    86.177305
	   51 D(4,2,3,9)      =    -29.988824     0.000001     0.060221   -29.928603
	   52 D(5,3,2,6)      =    -30.673577     0.000004     0.079483   -30.594094
	   53 D(5,3,2,7)      =     87.333287    -0.000004    -0.264025    87.069263
	   54 D(6,2,3,8)      =   -153.931408     0.000001    -0.075553  -154.006961
	   55 D(6,2,3,9)      =     89.747426     0.000006     0.139705    89.887131
	   56 D(6,2,4,10)     =   -179.657949    -0.000007    -0.262258  -179.920207
	   57 D(6,2,4,11)     =    -61.521454     0.000010     0.473435   -61.048018
	   58 D(7,2,3,8)      =    -35.924544    -0.000007    -0.419060   -36.343605
	   59 D(7,2,3,9)      =   -152.245710    -0.000003    -0.203803  -152.449513
	   60 D(7,2,4,10)     =     65.022163    -0.000007    -0.171560    64.850602
	   61 D(7,2,4,11)     =   -176.841342     0.000010     0.564133  -176.277208
	   62 D(8,3,5,12)     =     63.301212     0.000004     0.194002    63.495214
	   63 D(8,3,5,13)     =    -56.770239     0.000005     0.150121   -56.620118
	   64 D(8,3,5,14)     =   -176.771866     0.000001    -0.061954  -176.833820
	   65 D(9,3,5,12)     =    179.166106    -0.000003    -0.087942   179.078164
	   66 D(9,3,5,13)     =     59.094655    -0.000002    -0.131823    58.962832
	   67 D(9,3,5,14)     =    -60.906972    -0.000006    -0.343898   -61.250869
	   68 D(10,4,1,15)    =     60.251570    -0.000018    -0.363661    59.887909
	   69 D(11,4,1,15)    =    -60.583331     0.000024     0.495383   -60.087948
	 ---------------------------------------------------------------------------
	Successfully symmetrized geometry.

  ==> Convergence Check <==

  Measures of convergence in internal coordinates in au.
  Criteria marked as inactive (o), active & met (*), and active & unmet ( ).
  ---------------------------------------------------------------------------------------------
   Step     Total Energy     Delta E     MAX Force     RMS Force      MAX Disp      RMS Disp   
  ---------------------------------------------------------------------------------------------
    Convergence Criteria             o    2.50e-03 *    1.70e-03 *    1.00e-02 *    6.70e-03 *
  ---------------------------------------------------------------------------------------------
      2    -233.58033049   -1.49e-03 o    2.42e-03 *    7.39e-04 *    1.28e-02      4.51e-03 *  ~
  ---------------------------------------------------------------------------------------------

	Writing optimization data to binary file.
	Structure for next step:
	Cartesian Geometry (in Angstrom)
	    O    -2.2812241311   0.3917693195  -0.5735482358
	    C     0.0746653535   0.0415423115  -0.3739405969
	    C     1.2391138418  -0.5429366079   0.4419673788
	    C    -1.2732215032  -0.1885658279   0.2842109283
	    C     2.5463476646   0.2310296146   0.2509907420
	    H     0.2053908608   1.1214754020  -0.4871315762
	    H     0.0547772490  -0.3782519742  -1.3815660447
	    H     1.3848461355  -1.5957493208   0.1855736658
	    H     0.9801097891  -0.5223515817   1.5072614396
	    H    -1.4497292758  -1.2631645320   0.4207356875
	    H    -1.2845195870   0.2883914293   1.2723050503
	    H     2.8558291249   0.2250954461  -0.7966387617
	    H     3.3559615096  -0.2038632004   0.8402557179
	    H     2.4251146761   1.2719855704   0.5579656253
	    H    -3.1643205042   0.2784259459  -0.1977029773
			--------------------------
			 OPTKING Finished Execution 
			--------------------------

    Structure for next step:
    Molecular point group: c1
    Full point group: C1

    Geometry (in Angstrom), charge = 0, multiplicity = 1:

    O           -2.280688295575     0.392106069731    -0.573561421371
    C            0.075201198367     0.041879060415    -0.373953781684
    C            1.239649691168    -0.542599861267     0.441954197203
    C           -1.272685663693    -0.188229079934     0.284197746073
    C            2.546883519143     0.231366364259     0.250977559688
    H            0.205926706192     1.121812155115    -0.487144761480
    H            0.055313093785    -0.377915226937    -1.381579233441
    H            1.385381985430    -1.595412578379     0.185560483188
    H            0.980645637442    -0.522014835036     1.507248262207
    H           -1.449193436929    -1.262827788188     0.420722505796
    H           -1.283983747501     0.288728179163     1.272291871954
    H            2.856364980678     0.225432195760    -0.796651948172
    H            3.356497367298    -0.203526452468     0.840242537847
    H            2.425650530119     1.272322324136     0.557952444158
    H           -3.163784672130     0.278762695737    -0.197716161386

gradient() will perform analytic gradient computation.

*** tstart() called on daniele-Precision-5750
*** at Thu May 27 11:08:33 2021

   => Loading Basis Set <=

    Name: 6-311G
    Role: ORBITAL
    Keyword: BASIS
    atoms 1    entry O          line   126 file /home/daniele/anaconda3/envs/poltype/share/psi4/basis/6-311g.gbs 
    atoms 2-5  entry C          line    92 file /home/daniele/anaconda3/envs/poltype/share/psi4/basis/6-311g.gbs 
    atoms 6-15 entry H          line    21 file /home/daniele/anaconda3/envs/poltype/share/psi4/basis/6-311g.gbs 


         ---------------------------------------------------------
                                   SCF
               by Justin Turney, Rob Parrish, Andy Simmonett
                          and Daniel G. A. Smith
                              RKS Reference
                        8 Threads,    667 MiB Core
         ---------------------------------------------------------

  ==> Geometry <==

    Molecular point group: c1
    Full point group: C1

    Geometry (in Angstrom), charge = 0, multiplicity = 1:

       Center              X                  Y                   Z               Mass       
    ------------   -----------------  -----------------  -----------------  -----------------
         O           -2.280688295575     0.392106069731    -0.573561421371    15.994914619570
         C            0.075201198367     0.041879060415    -0.373953781684    12.000000000000
         C            1.239649691168    -0.542599861267     0.441954197203    12.000000000000
         C           -1.272685663693    -0.188229079934     0.284197746073    12.000000000000
         C            2.546883519143     0.231366364259     0.250977559688    12.000000000000
         H            0.205926706192     1.121812155115    -0.487144761480     1.007825032230
         H            0.055313093785    -0.377915226937    -1.381579233441     1.007825032230
         H            1.385381985430    -1.595412578379     0.185560483188     1.007825032230
         H            0.980645637442    -0.522014835036     1.507248262207     1.007825032230
         H           -1.449193436929    -1.262827788188     0.420722505796     1.007825032230
         H           -1.283983747501     0.288728179163     1.272291871954     1.007825032230
         H            2.856364980678     0.225432195760    -0.796651948172     1.007825032230
         H            3.356497367298    -0.203526452468     0.840242537847     1.007825032230
         H            2.425650530119     1.272322324136     0.557952444158     1.007825032230
         H           -3.163784672130     0.278762695737    -0.197716161386     1.007825032230

  Running in c1 symmetry.

  Rotational constants: A =      0.58982  B =      0.06612  C =      0.06319 [cm^-1]
  Rotational constants: A =  17682.29869  B =   1982.32508  C =   1894.50582 [MHz]
  Nuclear repulsion =  184.552757572802250

  Charge       = 0
  Multiplicity = 1
  Electrons    = 42
  Nalpha       = 21
  Nbeta        = 21

  ==> Algorithm <==

  SCF Algorithm Type is DF.
  DIIS enabled.
  MOM disabled.
  Fractional occupation disabled.
  Guess Type is READ.
  Energy threshold   = 1.00e-08
  Density threshold  = 1.00e-08
  Integral threshold = 0.00e+00

  ==> Primary Basis <==

  Basis Set: 6-311G
    Blend: 6-311G
    Number of shells: 65
    Number of basis function: 95
    Number of Cartesian functions: 95
    Spherical Harmonics?: true
    Max angular momentum: 1

  ==> DFT Potential <==

   => Composite Functional: WB97X-D <= 

    wB97X-D Hyb-GGA Exchange-Correlation Functional

    J.-D. Chai and M. Head-Gordon, Phys. Chem. Chem. Phys. 10, 6615 (2008)

    Deriv               =              1
    GGA                 =           TRUE
    Meta                =          FALSE

    Exchange Hybrid     =           TRUE
    MP2 Hybrid          =          FALSE

   => Exchange-Correlation Functionals <=

    1.0000   wB97D range-separated functional

   => Exact (HF) Exchange <=

    0.7780            HF,LR [omega = 0.2000]
    0.2220               HF 

   => Molecular Quadrature <=

    Radial Scheme          =       TREUTLER
    Pruning Scheme         =           FLAT
    Nuclear Scheme         =       TREUTLER

    BS radius alpha        =              1
    Pruning alpha          =              1
    Radial Points          =             75
    Spherical Points       =            302
    Total Points           =         336122
    Total Blocks           =           2560
    Max Points             =            256
    Max Functions          =             89

   => WB97X-D: Empirical Dispersion <=

    Chai and Head-Gordon Dispersion Correction
    Chai, J.-D.; Head-Gordon, M. (2010), J. Chem. Phys., 132: 6615-6620

        s6 =       1.000000

   => Loading Basis Set <=

    Name: (6-311G AUX)
    Role: JKFIT
    Keyword: DF_BASIS_SCF
    atoms 1    entry O          line   229 file /home/daniele/anaconda3/envs/poltype/share/psi4/basis/cc-pvtz-jkfit.gbs 
    atoms 2-5  entry C          line   125 file /home/daniele/anaconda3/envs/poltype/share/psi4/basis/cc-pvtz-jkfit.gbs 
    atoms 6-15 entry H          line    51 file /home/daniele/anaconda3/envs/poltype/share/psi4/basis/cc-pvtz-jkfit.gbs 

   => Loading Basis Set <=

    Name: 6-311G
    Role: ORBITAL
    Keyword: BASIS
    atoms 1    entry O          line   126 file /home/daniele/anaconda3/envs/poltype/share/psi4/basis/6-311g.gbs 
    atoms 2-5  entry C          line    92 file /home/daniele/anaconda3/envs/poltype/share/psi4/basis/6-311g.gbs 
    atoms 6-15 entry H          line    21 file /home/daniele/anaconda3/envs/poltype/share/psi4/basis/6-311g.gbs 

  Reading orbitals from file 180, no projection.

  ==> Pre-Iterations <==

   -------------------------------------------------------
    Irrep   Nso     Nmo     Nalpha   Nbeta   Ndocc  Nsocc
   -------------------------------------------------------
     A         95      95       0       0       0       0
   -------------------------------------------------------
    Total      95      95      21      21      21       0
   -------------------------------------------------------

  ==> Integral Setup <==

  ==> DiskDFJK: Density-Fitted J/K Matrices <==

    J tasked:                  Yes
    K tasked:                  Yes
    wK tasked:                 Yes
    Omega:               2.000E-01
    OpenMP threads:              8
    Integrals threads:           8
    Memory [MiB]:               34
    Algorithm:                Disk
    Integral Cache:           NONE
    Schwarz Cutoff:          1E-12
    Fitting Condition:       1E-10

   => Auxiliary Basis Set <=

  Basis Set: (6-311G AUX)
    Blend: CC-PVTZ-JKFIT
    Number of shells: 225
    Number of basis function: 695
    Number of Cartesian functions: 830
    Spherical Harmonics?: true
    Max angular momentum: 4

  Cached 100.0% of DFT collocation blocks in 0.666 [GiB].

  Minimum eigenvalue in the overlap matrix is 2.3833550836E-03.
  Using Symmetric Orthogonalization.

  SCF Guess: Orbitals guess was supplied from a previous computation.

  ==> Iterations <==

                           Total Energy        Delta E     RMS |[F,P]|

   @DF-RKS iter   0:  -233.58184682910630   -2.33582e+02   1.41496e-04 
   @DF-RKS iter   1:  -233.58041887858073    1.42795e-03   3.11732e-05 DIIS
   @DF-RKS iter   2:  -233.58042121991892   -2.34134e-06   2.89203e-05 DIIS
   @DF-RKS iter   3:  -233.58042418280633   -2.96289e-06   4.03712e-06 DIIS
   @DF-RKS iter   4:  -233.58042424342185   -6.06155e-08   2.24769e-06 DIIS
   @DF-RKS iter   5:  -233.58042426479474   -2.13729e-08   2.24129e-07 DIIS
   @DF-RKS iter   6:  -233.58042426518165   -3.86905e-10   5.49429e-08 DIIS
   @DF-RKS iter   7:  -233.58042426519876   -1.71099e-11   2.05312e-08 DIIS
   @DF-RKS iter   8:  -233.58042426520123   -2.47269e-12   2.12921e-09 DIIS
  Energy and wave function converged.


  ==> Post-Iterations <==

    Orbital Energies [Eh]
    ---------------------

    Doubly Occupied:                                                      

       1A    -19.234959     2A    -10.329874     3A    -10.280901  
       4A    -10.273662     5A    -10.269262     6A     -1.119598  
       7A     -0.898623     8A     -0.823219     9A     -0.726136  
      10A     -0.678650    11A     -0.596290    12A     -0.571741  
      13A     -0.527866    14A     -0.515215    15A     -0.482802  
      16A     -0.455928    17A     -0.429724    18A     -0.418595  
      19A     -0.407553    20A     -0.400054    21A     -0.351960  

    Virtual:                                                              

      22A      0.120470    23A      0.124937    24A      0.152220  
      25A      0.155648    26A      0.170649    27A      0.204788  
      28A      0.209188    29A      0.214627    30A      0.220376  
      31A      0.230435    32A      0.267853    33A      0.304053  
      34A      0.307023    35A      0.334995    36A      0.385265  
      37A      0.398321    38A      0.416508    39A      0.451171  
      40A      0.455401    41A      0.469313    42A      0.502797  
      43A      0.538851    44A      0.604472    45A      0.618467  
      46A      0.646391    47A      0.651750    48A      0.668277  
      49A      0.674984    50A      0.684524    51A      0.687965  
      52A      0.695112    53A      0.702527    54A      0.709647  
      55A      0.721910    56A      0.727575    57A      0.756894  
      58A      0.853981    59A      0.959224    60A      0.999399  
      61A      1.017123    62A      1.053494    63A      1.137692  
      64A      1.217794    65A      1.593908    66A      2.266858  
      67A      2.335112    68A      2.341843    69A      2.351109  
      70A      2.360580    71A      2.369093    72A      2.388355  
      73A      2.403347    74A      2.409684    75A      2.423986  
      76A      2.846531    77A      2.904486    78A      2.923235  
      79A      2.936359    80A      2.945305    81A      2.980308  
      82A      2.993081    83A      3.038310    84A      3.093869  
      85A      3.177687    86A      3.188533    87A      3.313641  
      88A      4.955669    89A      5.019176    90A      5.189227  
      91A     23.431925    92A     23.549147    93A     23.652918  
      94A     23.725100    95A     49.965370  

    Final Occupation by Irrep:
              A 
    DOCC [    21 ]

  @DF-RKS Final Energy:  -233.58042426520123

   => Energetics <=

[...]
    Fitting Condition:       1E-10

   => Auxiliary Basis Set <=

  Basis Set: (6-311G AUX)
    Blend: CC-PVTZ-JKFIT
    Number of shells: 225
    Number of basis function: 695
    Number of Cartesian functions: 830
    Spherical Harmonics?: true
    Max angular momentum: 4

  ==> DFT Potential <==

   => Composite Functional: WB97X-D <= 

    wB97X-D Hyb-GGA Exchange-Correlation Functional

    J.-D. Chai and M. Head-Gordon, Phys. Chem. Chem. Phys. 10, 6615 (2008)

    Deriv               =              1
    GGA                 =           TRUE
    Meta                =          FALSE

    Exchange Hybrid     =           TRUE
    MP2 Hybrid          =          FALSE

   => Exchange-Correlation Functionals <=

    1.0000   wB97D range-separated functional

   => Exact (HF) Exchange <=

    0.7780            HF,LR [omega = 0.2000]
    0.2220               HF 

   => Molecular Quadrature <=

    Radial Scheme          =       TREUTLER
    Pruning Scheme         =           FLAT
    Nuclear Scheme         =       TREUTLER

    BS radius alpha        =              1
    Pruning alpha          =              1
    Radial Points          =             75
    Spherical Points       =            302
    Total Points           =         336122
    Total Blocks           =           2560
    Max Points             =            256
    Max Functions          =             89


  -Total Gradient:
     Atom            X                  Y                   Z
    ------   -----------------  -----------------  -----------------
       1        0.000659066506    -0.000439552679     0.001025674107
       2        0.000072047633    -0.002469061597    -0.000858848681
       3        0.000716159457    -0.001294148864    -0.002551805879
       4       -0.000445627950     0.002356976329     0.000376089349
       5       -0.000735836602     0.002153819911     0.001782606370
       6       -0.000030037649    -0.000046039339    -0.000016410801
       7       -0.000026849031     0.000023652628     0.000042697532
       8        0.000034236008     0.000122892604     0.000049725786
       9        0.000064013086     0.000038251960     0.000010899516
      10       -0.000141315042    -0.000134460206     0.000068006940
      11       -0.000073231742     0.000113120294     0.000128473277
      12        0.000138267399    -0.000376189028     0.000247843413
      13        0.000019998768    -0.000005250314     0.000038073871
      14       -0.000057930218    -0.000142852552    -0.000054730057
      15       -0.000075377296     0.000182044031    -0.000192341248


*** tstop() called on daniele-Precision-5750 at Thu May 27 11:08:38 2021
Module time:
	user time   =      13.24 seconds =       0.22 minutes
	system time =       0.14 seconds =       0.00 minutes
	total time  =          2 seconds =       0.03 minutes
Total time:
	user time   =     116.30 seconds =       1.94 minutes
	system time =       1.83 seconds =       0.03 minutes
	total time  =         16 seconds =       0.27 minutes

			-----------------------------------------
			 OPTKING 2.0: for geometry optimizations 
			  - R.A. King,  Bethel University        
			-----------------------------------------
	At level 1: Red. Int., RFO, no backsteps, dynamic trust

	Previous internal coordinate definitions found.
	---Fragment 1 Geometry and Gradient---
	 O          -4.3098762562        0.7409730839       -1.0838740025
	 C           0.1421096692        0.0791399546       -0.7066702310
	 C           2.3425984078       -1.0253651335        0.8351723927
	 C          -2.4050273482       -0.3557014099        0.5370559056
	 C           4.8129123246        0.4372190631        0.4742788514
	 H           0.3891450766        2.1199177374       -0.9205701826
	 H           0.1045265984       -0.7141562776       -2.6108063718
	 H           2.6179925316       -3.0148928302        0.3506584929
	 H           1.8531516809       -0.9864650716        2.8482864186
	 H          -2.7385786986       -2.3863986633        0.7950503108
	 H          -2.4263776323        0.5456171833        2.4042831896
	 H           5.3977475278        0.4260051098       -1.5054539994
	 H           6.3428607650       -0.3846092545        1.5878282755
	 H           4.5838151780        2.4043407359        1.0543773105
	 H          -5.9786865502        0.5267851489       -0.3736293956
	             0.0006590665       -0.0004395527        0.0010256741
	             0.0000720476       -0.0024690616       -0.0008588487
	             0.0007161595       -0.0012941489       -0.0025518059
	            -0.0004456280        0.0023569763        0.0003760893
	            -0.0007358366        0.0021538199        0.0017826064
	            -0.0000300376       -0.0000460393       -0.0000164108
	            -0.0000268490        0.0000236526        0.0000426975
	             0.0000342360        0.0001228926        0.0000497258
	             0.0000640131        0.0000382520        0.0000108995
	            -0.0001413150       -0.0001344602        0.0000680069
	            -0.0000732317        0.0001131203        0.0001284733
	             0.0001382674       -0.0003761890        0.0002478434
	             0.0000199988       -0.0000052503        0.0000380739
	            -0.0000579302       -0.0001428526       -0.0000547301
	            -0.0000753773        0.0001820440       -0.0001923412

	---Fragment 1 Intrafragment Coordinates---
	 - Coordinate -           - BOHR/RAD -       - ANG/DEG -
	 R(1,4)           =         2.731036	       1.445202
	 R(1,15)          =         1.826267	       0.966419
	 R(2,3)           =         2.905058	       1.537290
	 R(2,4)           =         2.867725	       1.517535
	 R(2,6)           =         2.066774	       1.093690
	 R(2,7)           =         2.063120	       1.091756
	 R(3,5)           =         2.893415	       1.531129
	 R(3,8)           =         2.066111	       1.093339
	 R(3,9)           =         2.072124	       1.096521
	 R(4,10)          =         2.074018	       1.097523
	 R(4,11)          =         2.073492	       1.097245
	 R(5,12)          =         2.064340	       1.092402
	 R(5,13)          =         2.063041	       1.091714
	 R(5,14)          =         2.063630	       1.092026
	 B(1,4,2)         =         1.876758	     107.530323
	 B(1,4,10)        =         1.933530	     110.783088
	 B(1,4,11)        =         1.931300	     110.655353
	 B(2,3,5)         =         1.969603	     112.849911
	 B(2,3,8)         =         1.920489	     110.035934
	 B(2,3,9)         =         1.906649	     109.242926
	 B(2,4,10)        =         1.923312	     110.197660
	 B(2,4,11)        =         1.911115	     109.498842
	 B(3,2,4)         =         1.965956	     112.641000
	 B(3,2,6)         =         1.917511	     109.865285
	 B(3,2,7)         =         1.936334	     110.943764
	 B(3,5,12)        =         1.937722	     111.023318
	 B(3,5,13)        =         1.943857	     111.374776
	 B(3,5,14)        =         1.930506	     110.609856
	 B(4,1,15)        =         1.938450	     111.065031
	 B(4,2,6)         =         1.876302	     107.504212
	 B(4,2,7)         =         1.902646	     109.013569
	 B(5,3,8)         =         1.921651	     110.102513
	 B(5,3,9)         =         1.889518	     108.261412
	 B(6,2,7)         =         1.861195	     106.638633
	 B(8,3,9)         =         1.851871	     106.104384
	 B(10,4,11)       =         1.888022	     108.175685
	 B(12,5,13)       =         1.881131	     107.780873
	 B(12,5,14)       =         1.882010	     107.831235
	 B(13,5,14)       =         1.886334	     108.078990
	*D(1,4,2,3)       =        -3.134478	    -179.592383
	 D(1,4,2,6)       =         1.033861	      59.235869
	 D(1,4,2,7)       =        -0.977268	     -55.993321
	*D(2,3,5,12)      =        -1.045116	     -59.880757
	 D(2,3,5,13)      =        -3.141524	    -179.996089
	 D(2,3,5,14)      =         1.043536	      59.790210
	*D(2,4,1,15)      =        -3.135261	    -179.637216
	 D(3,2,4,10)      =        -1.025354	     -58.748459
	 D(3,2,4,11)      =         1.049357	      60.123730
	*D(4,2,3,5)       =        -2.625147	    -150.409827
	 D(4,2,3,8)       =         1.504078	      86.177305
	 D(4,2,3,9)       =        -0.522353	     -29.928603
	 D(5,3,2,6)       =        -0.533968	     -30.594094
	 D(5,3,2,7)       =         1.519645	      87.069263
	 D(6,2,3,8)       =        -2.687929	    -154.006961
	 D(6,2,3,9)       =         1.568826	      89.887131
	 D(6,2,4,10)      =        -3.140200	    -179.920207
	 D(6,2,4,11)      =        -1.065489	     -61.048018
	 D(7,2,3,8)       =        -0.634316	     -36.343605
	 D(7,2,3,9)       =        -2.660746	    -152.449513
	 D(7,2,4,10)      =         1.131857	      64.850602
	 D(7,2,4,11)      =        -3.076618	    -176.277208
	 D(8,3,5,12)      =         1.108201	      63.495214
	 D(8,3,5,13)      =        -0.988207	     -56.620118
	 D(8,3,5,14)      =        -3.086332	    -176.833820
	 D(9,3,5,12)      =         3.125504	     179.078164
	 D(9,3,5,13)      =         1.029096	      58.962832
	 D(9,3,5,14)      =        -1.069029	     -61.250869
	 D(10,4,1,15)     =         1.045241	      59.887909
	 D(11,4,1,15)     =        -1.048733	     -60.087948

	Current energy   :      -233.5804242652

	Energy change for the previous step:
		Projected    :        -0.0001697684
		Actual       :        -0.0000937781

	Performing BFGS update.
	Previous computed or guess Hessian on step 1.
	Steps to be used in Hessian update: 2 1
	Taking RFO optimization step.
	Going to follow RFO solution 1.
	Using RFO vector 1.
	Norm of target step-size    0.00544
	Projected energy change by RFO approximation:        -0.0000070487

	Back-transformation to cartesian coordinates...
	Successfully converged to displaced geometry.

	Back-transformation to cartesian coordinates to adjust frozen coordinates...
	Successfully converged to displaced geometry.

	--- Internal Coordinate Step in ANG or DEG, aJ/ANG or AJ/DEG ---
	 ---------------------------------------------------------------------------
	   Coordinate                Previous        Force       Change         New 
	   ----------                --------       ------       ------       ------
	    1 R(1,4)          =      1.445202     0.008199     0.001366     1.446568
	    2 R(1,15)         =      0.966419     0.000149    -0.000090     0.966329
	    3 R(2,3)          =      1.537290     0.002923     0.000711     1.538001
	    4 R(2,4)          =      1.517535    -0.003248    -0.000792     1.516743
	    5 R(2,6)          =      1.093690     0.000368     0.000020     1.093709
	    6 R(2,7)          =      1.091756     0.000373     0.000026     1.091782
	    7 R(3,5)          =      1.531129     0.000105     0.000018     1.531147
	    8 R(3,8)          =      1.093339     0.000916     0.000140     1.093479
	    9 R(3,9)          =      1.096521     0.000149     0.000010     1.096531
	   10 R(4,10)         =      1.097523    -0.001395    -0.000287     1.097236
	   11 R(4,11)         =      1.097245    -0.001303    -0.000257     1.096987
	   12 R(5,12)         =      1.092402     0.001590     0.000277     1.092679
	   13 R(5,13)         =      1.091714    -0.000273    -0.000075     1.091639
	   14 R(5,14)         =      1.092026     0.001283     0.000222     1.092248
	   15 B(1,4,2)        =    107.530323     0.000001     0.013296   107.543619
	   16 B(1,4,10)       =    110.783088     0.000005     0.010262   110.793350
	   17 B(1,4,11)       =    110.655353     0.000004     0.018372   110.673725
	   18 B(2,3,5)        =    112.849911     0.000001     0.007376   112.857287
	   19 B(2,3,8)        =    110.035934    -0.000002    -0.005539   110.030394
	   20 B(2,3,9)        =    109.242926    -0.000002    -0.028959   109.213967
	   21 B(2,4,10)       =    110.197660    -0.000009    -0.054182   110.143478
	   22 B(2,4,11)       =    109.498842    -0.000004    -0.002529   109.496313
	   23 B(3,2,4)        =    112.641000    -0.000003    -0.025470   112.615530
	   24 B(3,2,6)        =    109.865285    -0.000001    -0.009651   109.855634
	   25 B(3,2,7)        =    110.943764    -0.000001    -0.014294   110.929470
	   26 B(3,5,12)       =    111.023318     0.000003     0.010506   111.033824
	   27 B(3,5,13)       =    111.374776    -0.000000     0.009858   111.384634
	   28 B(3,5,14)       =    110.609856     0.000008     0.039616   110.649472
	   29 B(4,1,15)       =    111.065031    -0.000037    -0.175647   110.889384
	   30 B(4,2,6)        =    107.504212     0.000002     0.029475   107.533686
	   31 B(4,2,7)        =    109.013569     0.000003     0.018177   109.031746
	   32 B(5,3,8)        =    110.102513     0.000002     0.020351   110.122863
	   33 B(5,3,9)        =    108.261412     0.000002     0.018637   108.280049
	   34 B(6,2,7)        =    106.638633     0.000000     0.004819   106.643452
	   35 B(8,3,9)        =    106.104384    -0.000000    -0.013316   106.091068
	   36 B(10,4,11)      =    108.175685     0.000003     0.013838   108.189523
	   37 B(12,5,13)      =    107.780873    -0.000002    -0.025082   107.755791
	   38 B(12,5,14)      =    107.831235    -0.000005    -0.014351   107.816884
	   39 B(13,5,14)      =    108.078990    -0.000004    -0.023769   108.055221
	   40 *D(1,4,2,3)     =   -179.592383     0.000000    -0.000000  -179.592383
	   41 D(1,4,2,6)      =     59.235869     0.000000     0.007883    59.243752
	   42 D(1,4,2,7)      =    -55.993321    -0.000000    -0.022699   -56.016021
	   43 *D(2,3,5,12)    =    -59.880757    -0.000000    -0.000000   -59.880757
	   44 D(2,3,5,13)     =   -179.996089     0.000000     0.018051  -179.978038
	   45 D(2,3,5,14)     =     59.790210     0.000000     0.014881    59.805091
	   46 *D(2,4,1,15)    =   -179.637216    -0.000000    -0.000000  -179.637216
	   47 D(3,2,4,10)     =    -58.748459     0.000000    -0.011143   -58.759602
	   48 D(3,2,4,11)     =     60.123730    -0.000001    -0.028609    60.095122
	   49 *D(4,2,3,5)     =   -150.409827    -0.000000    -0.000000  -150.409827
	   50 D(4,2,3,8)      =     86.177305    -0.000000    -0.027592    86.149714
	   51 D(4,2,3,9)      =    -29.928603     0.000000     0.008309   -29.920293
	   52 D(5,3,2,6)      =    -30.594094     0.000000     0.013994   -30.580100
	   53 D(5,3,2,7)      =     87.069263    -0.000000     0.005237    87.074500
	   54 D(6,2,3,8)      =   -154.006961    -0.000000    -0.013598  -154.020559
	   55 D(6,2,3,9)      =     89.887131     0.000000     0.022303    89.909434
	   56 D(6,2,4,10)     =   -179.920207     0.000001    -0.003259  -179.923467
	   57 D(6,2,4,11)     =    -61.048018    -0.000000    -0.020725   -61.068743
	   58 D(7,2,3,8)      =    -36.343605    -0.000000    -0.022355   -36.365960
	   59 D(7,2,3,9)      =   -152.449513     0.000000     0.013546  -152.435966
	   60 D(7,2,4,10)     =     64.850602     0.000000    -0.033842    64.816760
	   61 D(7,2,4,11)     =   -176.277208    -0.000001    -0.051308  -176.328516
	   62 D(8,3,5,12)     =     63.495214    -0.000000     0.013263    63.508477
	   63 D(8,3,5,13)     =    -56.620118    -0.000000     0.031314   -56.588804
	   64 D(8,3,5,14)     =   -176.833820     0.000000     0.028144  -176.805675
	   65 D(9,3,5,12)     =    179.078164     0.000000     0.018886   179.097050
	   66 D(9,3,5,13)     =     58.962832     0.000000     0.036937    58.999769
	   67 D(9,3,5,14)     =    -61.250869     0.000000     0.033767   -61.217102
	   68 D(10,4,1,15)    =     59.887909     0.000002     0.051803    59.939712
	   69 D(11,4,1,15)    =    -60.087948    -0.000001     0.015680   -60.072268
	 ---------------------------------------------------------------------------
	Successfully symmetrized geometry.

  ==> Convergence Check <==

  Measures of convergence in internal coordinates in au.
  Criteria marked as inactive (o), active & met (*), and active & unmet ( ).
  ---------------------------------------------------------------------------------------------
   Step     Total Energy     Delta E     MAX Force     RMS Force      MAX Disp      RMS Disp   
  ---------------------------------------------------------------------------------------------
    Convergence Criteria             o    2.50e-03 *    1.70e-03 *    1.00e-02 *    6.70e-03 *
  ---------------------------------------------------------------------------------------------
      3    -233.58042427   -9.38e-05 o    9.95e-04 *    1.58e-04 *    3.07e-03 *    6.54e-04 *  ~
  ---------------------------------------------------------------------------------------------


  **** Optimization is complete! (in 3 steps) ****

  ==> Optimization Summary <==

  Measures of convergence in internal coordinates in au.
  --------------------------------------------------------------------------------------------------------------- ~
   Step         Total Energy             Delta E       MAX Force       RMS Force        MAX Disp        RMS Disp  ~
  --------------------------------------------------------------------------------------------------------------- ~
      1    -233.578843528365   -233.578843528365      0.01611902      0.00359929      0.05690689      0.01637780  ~
      2    -233.580330487081     -0.001486958717      0.00242365      0.00073858      0.01284905      0.00450946  ~
      3    -233.580424265201     -0.000093778120      0.00099519      0.00015780      0.00306562      0.00065445  ~
  --------------------------------------------------------------------------------------------------------------- ~

	Writing optimization data to binary file.
	Final energy is   -233.5804242652012
	Final (previous) structure:
	Cartesian Geometry (in Angstrom)
	    O    -2.2806882866   0.3921060682  -0.5735614191
	    C     0.0752011981   0.0418790602  -0.3739537802
	    C     1.2396496863  -0.5425998591   0.4419541955
	    C    -1.2726856587  -0.1882290792   0.2841977450
	    C     2.5468835091   0.2313663633   0.2509775587
	    H     0.2059267054   1.1218121507  -0.4871447596
	    H     0.0553130936  -0.3779152255  -1.3815792280
	    H     1.3853819800  -1.5954125721   0.1855604825
	    H     0.9806456336  -0.5220148330   1.5072482563
	    H    -1.4491934312  -1.2628277832   0.4207225041
	    H    -1.2839837425   0.2887281780   1.2722918670
	    H     2.8563649695   0.2254321949  -0.7966519450
	    H     3.3564973541  -0.2035264517   0.8402425345
	    H     2.4256505206   1.2723223191   0.5579524420
	    H    -3.1637846597   0.2787626946  -0.1977161606
	Saving final (previous) structure.
			--------------------------
			 OPTKING Finished Execution 
			--------------------------

    Final optimized geometry and variables:
    Molecular point group: c1
    Full point group: C1

    Geometry (in Angstrom), charge = 0, multiplicity = 1:

    O           -2.280688295575     0.392106069731    -0.573561421371
    C            0.075201198367     0.041879060415    -0.373953781684
    C            1.239649691168    -0.542599861267     0.441954197203
    C           -1.272685663693    -0.188229079934     0.284197746073
    C            2.546883519143     0.231366364259     0.250977559688
    H            0.205926706192     1.121812155115    -0.487144761480
    H            0.055313093785    -0.377915226937    -1.381579233441
    H            1.385381985430    -1.595412578379     0.185560483188
    H            0.980645637442    -0.522014835036     1.507248262207
    H           -1.449193436929    -1.262827788188     0.420722505796
    H           -1.283983747501     0.288728179163     1.272291871954
    H            2.856364980678     0.225432195760    -0.796651948172
    H            3.356497367298    -0.203526452468     0.840242537847
    H            2.425650530119     1.272322324136     0.557952444158
    H           -3.163784672130     0.278762695737    -0.197716161386

	Removing binary optimization data file.
	Cleaning optimization helper files.

    Psi4 stopped on: Thursday, 27 May 2021 11:08AM
    Psi4 wall time for execution: 0:00:15.54

*** Psi4 exiting successfully. Buy a developer a beer!
