
    -----------------------------------------------------------------------
          Psi4: An Open-Source Ab Initio Electronic Structure Package
                               Psi4 1.3.2 release

                         Git: Rev {HEAD} ecbda83 


    R. M. Parrish, L. A. Burns, D. G. A. Smith, A. C. Simmonett,
    A. E. DePrince III, E. G. Hohenstein, U. Bozkaya, A. Yu. Sokolov,
    R. Di Remigio, R. M. Richard, J. F. Gonthier, A. M. James,
    H. R. McAlexander, A. Kumar, M. Saitow, X. Wang, B. P. Pritchard,
    P. Verma, H. F. Schaefer III, K. Patkowski, R. A. King, E. F. Valeev,
    F. A. Evangelista, J. M. Turney, T. D. Crawford, and C. D. Sherrill,
    J. Chem. Theory Comput. 13(7) pp 3185--3197 (2017).
    (doi: 10.1021/acs.jctc.7b00174)


                         Additional Contributions by
    P. Kraus, H. Kruse, M. H. Lechner, M. C. Schieber, R. A. Shaw,
    A. Alenaizan, R. Galvelis, Z. L. Glick, S. Lehtola, and J. P. Misiewicz

    -----------------------------------------------------------------------


    Psi4 started on: Thursday, 27 May 2021 11:35AM

    Process ID: 228456
    Host:       daniele-Precision-5750
    PSIDATADIR: /home/daniele/anaconda3/envs/poltype/share/psi4
    Memory:     500.0 MiB
    Threads:    1
    
  ==> Input File <==

--------------------------------------------------------------------------
molecule { 
0 1
 O   -2.257701    0.444732   -0.504453
 C    0.063128   -0.125821   -0.500791
 C    1.271764   -0.672059    0.291070
 C   -1.201553   -0.068727    0.337190
 C    2.430562    0.325868    0.378474
 H    0.271348    0.882872   -0.865850
 H   -0.142169   -0.737282   -1.381169
 H    1.627948   -1.599465   -0.163398
 H    0.959875   -0.939394    1.307156
 H   -1.451798   -1.072189    0.703792
 H   -1.042610    0.583245    1.205703
 H    2.791943    0.586885   -0.618448
 H    3.269257   -0.082132    0.946001
 H    2.109915    1.249500    0.866326
 H   -3.090272    0.508229   -0.018253
}
memory 700MB
set_num_threads(8)
psi4_io.set_default_path("/home/daniele/PSI4_sctatch/Psi4-1butanol_3D")
set freeze_core True
E, wfn = energy('wb97x-d/6-311+G*',return_wfn=True)
oeprop(wfn,"WIBERG_LOWDIN_INDICES")
clean()
--------------------------------------------------------------------------

  Memory set to 667.572 MiB by Python driver.
  Threads set to 8 by Python driver.

*** tstart() called on daniele-Precision-5750
*** at Thu May 27 11:35:54 2021

   => Loading Basis Set <=

    Name: 6-311+G*
    Role: ORBITAL
    Keyword: BASIS
    atoms 1    entry O          line   172 file /home/daniele/anaconda3/envs/poltype/share/psi4/basis/6-311pgs.gbs 
    atoms 2-5  entry C          line   130 file /home/daniele/anaconda3/envs/poltype/share/psi4/basis/6-311pgs.gbs 
    atoms 6-15 entry H          line    47 file /home/daniele/anaconda3/envs/poltype/share/psi4/basis/6-311pgs.gbs 


         ---------------------------------------------------------
                                   SCF
               by Justin Turney, Rob Parrish, Andy Simmonett
                          and Daniel G. A. Smith
                              RKS Reference
                        8 Threads,    667 MiB Core
         ---------------------------------------------------------

  ==> Geometry <==

    Molecular point group: c1
    Full point group: C1

    Geometry (in Angstrom), charge = 0, multiplicity = 1:

       Center              X                  Y                   Z               Mass       
    ------------   -----------------  -----------------  -----------------  -----------------
         O           -2.257701186760     0.444731973627    -0.504453019626    15.994914619570
         C            0.063127813240    -0.125821026373    -0.500791019626    12.000000000000
         C            1.271763813240    -0.672059026373     0.291069980374    12.000000000000
         C           -1.201553186760    -0.068727026373     0.337189980374    12.000000000000
         C            2.430561813240     0.325867973627     0.378473980374    12.000000000000
         H            0.271347813240     0.882871973627    -0.865850019626     1.007825032230
         H           -0.142169186760    -0.737282026373    -1.381169019626     1.007825032230
         H            1.627947813240    -1.599465026373    -0.163398019626     1.007825032230
         H            0.959874813240    -0.939394026373     1.307155980374     1.007825032230
         H           -1.451798186760    -1.072189026373     0.703791980374     1.007825032230
         H           -1.042610186760     0.583244973627     1.205702980374     1.007825032230
         H            2.791942813240     0.586884973627    -0.618448019626     1.007825032230
         H            3.269256813240    -0.082132026373     0.946000980374     1.007825032230
         H            2.109914813240     1.249499973627     0.866325980374     1.007825032230
         H           -3.090272186760     0.508228973627    -0.018253019626     1.007825032230

  Running in c1 symmetry.

  Rotational constants: A =      0.51582  B =      0.06781  C =      0.06667 [cm^-1]
  Rotational constants: A =  15463.93830  B =   2032.95287  C =   1998.69390 [MHz]
  Nuclear repulsion =  185.054436835546255

  Charge       = 0
  Multiplicity = 1
  Electrons    = 42
  Nalpha       = 21
  Nbeta        = 21

  ==> Algorithm <==

  SCF Algorithm Type is DF.
  DIIS enabled.
  MOM disabled.
  Fractional occupation disabled.
  Guess Type is SAD.
  Energy threshold   = 1.00e-06
  Density threshold  = 1.00e-06
  Integral threshold = 0.00e+00

  ==> Primary Basis <==

  Basis Set: 6-311+G*
    Blend: 6-311+G*
    Number of shells: 80
    Number of basis function: 140
    Number of Cartesian functions: 145
    Spherical Harmonics?: true
    Max angular momentum: 2

  ==> DFT Potential <==

   => Composite Functional: WB97X-D <= 

    wB97X-D Hyb-GGA Exchange-Correlation Functional

    J.-D. Chai and M. Head-Gordon, Phys. Chem. Chem. Phys. 10, 6615 (2008)

    Deriv               =              1
    GGA                 =           TRUE
    Meta                =          FALSE

    Exchange Hybrid     =           TRUE
    MP2 Hybrid          =          FALSE

   => Exchange-Correlation Functionals <=

    1.0000   wB97D range-separated functional

   => Exact (HF) Exchange <=

    0.7780            HF,LR [omega = 0.2000]
    0.2220               HF 

   => Molecular Quadrature <=

    Radial Scheme          =       TREUTLER
    Pruning Scheme         =           FLAT
    Nuclear Scheme         =       TREUTLER

    BS radius alpha        =              1
    Pruning alpha          =              1
    Radial Points          =             75
    Spherical Points       =            302
    Total Points           =         339750
    Total Blocks           =           2581
    Max Points             =            256
    Max Functions          =            132

   => WB97X-D: Empirical Dispersion <=

    Chai and Head-Gordon Dispersion Correction
    Chai, J.-D.; Head-Gordon, M. (2010), J. Chem. Phys., 132: 6615-6620

        s6 =       1.000000

   => Loading Basis Set <=

    Name: (6-311+G* AUX)
    Role: JKFIT
    Keyword: DF_BASIS_SCF
    atoms 1    entry O          line   324 file /home/daniele/anaconda3/envs/poltype/share/psi4/basis/heavy-aug-cc-pvtz-jkfit.gbs 
    atoms 2-5  entry C          line   200 file /home/daniele/anaconda3/envs/poltype/share/psi4/basis/heavy-aug-cc-pvtz-jkfit.gbs 
    atoms 6-15 entry H          line   116 file /home/daniele/anaconda3/envs/poltype/share/psi4/basis/heavy-aug-cc-pvtz-jkfit.gbs 

  ==> Pre-Iterations <==

   -------------------------------------------------------
    Irrep   Nso     Nmo     Nalpha   Nbeta   Ndocc  Nsocc
   -------------------------------------------------------
     A        140     140       0       0       0       0
   -------------------------------------------------------
    Total     140     140      21      21      21       0
   -------------------------------------------------------

  ==> Integral Setup <==

  ==> DiskDFJK: Density-Fitted J/K Matrices <==

    J tasked:                  Yes
    K tasked:                  Yes
    wK tasked:                 Yes
    Omega:               2.000E-01
    OpenMP threads:              8
    Integrals threads:           8
    Memory [MiB]:               77
    Algorithm:                Disk
    Integral Cache:           NONE
    Schwarz Cutoff:          1E-12
    Fitting Condition:       1E-10

   => Auxiliary Basis Set <=

  Basis Set: (6-311+G* AUX)
    Blend: HEAVY-AUG-CC-PVTZ-JKFIT
    Number of shells: 250
    Number of basis function: 820
    Number of Cartesian functions: 1005
    Spherical Harmonics?: true
    Max angular momentum: 4

  Cached 50.0% of DFT collocation blocks in 0.529 [GiB].

  Minimum eigenvalue in the overlap matrix is 6.3258568781E-05.
  Using Symmetric Orthogonalization.

  SCF Guess: Superposition of Atomic Densities via on-the-fly atomic UHF.

  ==> Iterations <==

                           Total Energy        Delta E     RMS |[F,P]|

   @DF-RKS iter SAD:  -232.90849582756729   -2.32908e+02   0.00000e+00 
   @DF-RKS iter   1:  -233.25036567924454   -3.41870e-01   6.39157e-03 DIIS
   @DF-RKS iter   2:  -233.36322745806467   -1.12862e-01   5.76915e-03 DIIS
   @DF-RKS iter   3:  -233.63884743890651   -2.75620e-01   6.81701e-04 DIIS
   @DF-RKS iter   4:  -233.64175676653988   -2.90933e-03   2.89182e-04 DIIS
   @DF-RKS iter   5:  -233.64243273720106   -6.75971e-04   3.85161e-05 DIIS
   @DF-RKS iter   6:  -233.64245118861373   -1.84514e-05   1.25712e-05 DIIS
   @DF-RKS iter   7:  -233.64245275955159   -1.57094e-06   3.45246e-06 DIIS
   @DF-RKS iter   8:  -233.64245289720645   -1.37655e-07   6.52156e-07 DIIS
  Energy and wave function converged.


  ==> Post-Iterations <==

    Orbital Energies [Eh]
    ---------------------

    Doubly Occupied:                                                      

       1A    -19.245207     2A    -10.328439     3A    -10.279854  
       4A    -10.272739     5A    -10.269122     6A     -1.117111  
       7A     -0.895681     8A     -0.820345     9A     -0.725861  
      10A     -0.676147    11A     -0.601347    12A     -0.564803  
      13A     -0.535985    14A     -0.510492    15A     -0.480585  
      16A     -0.465212    17A     -0.430230    18A     -0.420569  
      19A     -0.410806    20A     -0.404388    21A     -0.360709  

    Virtual:                                                              

      22A      0.065312    23A      0.072222    24A      0.086741  
      25A      0.092443    26A      0.100978    27A      0.117604  
      28A      0.122163    29A      0.130302    30A      0.133227  
      31A      0.154776    32A      0.158806    33A      0.161382  
      34A      0.174468    35A      0.182082    36A      0.209795  
      37A      0.215155    38A      0.236129    39A      0.245058  
      40A      0.252125    41A      0.259828    42A      0.276242  
      43A      0.281534    44A      0.291256    45A      0.296250  
      46A      0.302394    47A      0.314417    48A      0.325171  
      49A      0.333484    50A      0.347376    51A      0.355649  
      52A      0.362048    53A      0.385517    54A      0.434628  
      55A      0.438411    56A      0.482418    57A      0.494454  
      58A      0.517485    59A      0.535519    60A      0.554298  
      61A      0.560316    62A      0.591348    63A      0.624049  
      64A      0.664452    65A      0.674922    66A      0.695743  
      67A      0.712883    68A      0.719525    69A      0.730167  
      70A      0.730932    71A      0.746027    72A      0.761947  
      73A      0.782577    74A      0.800319    75A      0.805287  
      76A      0.828504    77A      0.845502    78A      0.956569  
      79A      1.002870    80A      1.095003    81A      1.145827  
      82A      1.152628    83A      1.177486    84A      1.207741  
      85A      1.248476    86A      1.325100    87A      1.468529  
      88A      1.518361    89A      1.588913    90A      1.600723  
      91A      1.640834    92A      1.659502    93A      1.664739  
      94A      1.673428    95A      1.691002    96A      1.750060  
      97A      1.769935    98A      1.823311    99A      1.851348  
     100A      1.872219   101A      1.971807   102A      2.041696  
     103A      2.053781   104A      2.188118   105A      2.246090  
     106A      2.338462   107A      2.541960   108A      2.577562  
     109A      2.582504   110A      2.597587   111A      2.614997  
     112A      2.618464   113A      2.658158   114A      2.728112  
     115A      2.739470   116A      2.891946   117A      2.959103  
     118A      3.003499   119A      3.015739   120A      3.074685  
     121A      3.139673   122A      3.182182   123A      3.249425  
     124A      3.260882   125A      3.292055   126A      3.305769  
     127A      3.364191   128A      3.469385   129A      3.756274  
     130A      3.879849   131A      4.050897   132A      4.178569  
     133A      5.121881   134A      5.263134   135A      5.535754  
     136A     23.566750   137A     23.676708   138A     23.834159  
     139A     23.857629   140A     50.002875  

    Final Occupation by Irrep:
              A 
    DOCC [    21 ]

  @DF-RKS Final Energy:  -233.64245289720645

   => Energetics <=

    Nuclear Repulsion Energy =            185.0544368355462552
    One-Electron Energy =                -682.0469571919306873
    Two-Electron Energy =                 286.5962083438961372
    DFT Exchange-Correlation Energy =     -23.2392001041534826
    Empirical Dispersion Energy =          -0.0069407805646856
    VV10 Nonlocal Energy =                  0.0000000000000000
    Total Energy =                       -233.6424528972064820

Computation Completed


Properties will be evaluated at   0.000000,   0.000000,   0.000000 [a0]

Properties computed using the SCF density matrix

  Nuclear Dipole Moment: [e a0]
     X:     4.9610      Y:    -0.5788      Z:     1.8555

  Electronic Dipole Moment: [e a0]
     X:    -4.9932      Y:     0.3678      Z:    -1.1858

  Dipole Moment: [e a0]
     X:    -0.0322      Y:    -0.2110      Z:     0.6697     Total:     0.7029

  Dipole Moment: [D]
     X:    -0.0819      Y:    -0.5363      Z:     1.7023     Total:     1.7867


*** tstop() called on daniele-Precision-5750 at Thu May 27 11:36:01 2021
Module time:
	user time   =      53.18 seconds =       0.89 minutes
	system time =       1.82 seconds =       0.03 minutes
	total time  =          7 seconds =       0.12 minutes
Total time:
	user time   =      53.18 seconds =       0.89 minutes
	system time =       1.82 seconds =       0.03 minutes
	total time  =          7 seconds =       0.12 minutes


Properties will be evaluated at   0.000000,   0.000000,   0.000000 [a0]
OEProp: No title given, name of density matrix used for the following properties is 'SCF density'


  Wiberg Bond Indices using Orthogonal Lowdin Orbitals:

  Irrep: 1 Size: 15 x 15

                 1                   2                   3                   4                   5

    1     0.00000000000000     0.12591889194862     0.02197117616271     1.31937655130742     0.00304201535497
    2     0.12591889194862     0.00000000000000     1.12910516679688     1.15576340889609     0.11210474935570
    3     0.02197117616271     1.12910516679688     0.00000000000000     0.12142226611989     1.20723545430548
    4     1.31937655130742     1.15576340889609     0.12142226611989     0.00000000000000     0.02128353111567
    5     0.00304201535497     0.11210474935570     1.20723545430548     0.02128353111567     0.00000000000000
    6     0.01210577103413     0.85534997050919     0.03503872693133     0.03999648099560     0.02314602394032
    7     0.01272659402554     0.86182203071004     0.04049638960238     0.04004520828197     0.00751301831390
    8     0.00077267340864     0.04233378370491     0.87357194398719     0.00763008018460     0.03998959393751
    9     0.00197084972718     0.03711585464926     0.86414542718788     0.02675915512064     0.03984636344351
   10     0.05062527402934     0.04047591630350     0.01413926569676     0.86571263596768     0.00154198578605
   11     0.05020315177068     0.04010789755952     0.01383333442813     0.86401553146799     0.00332650614769
   12     0.00011288601882     0.01442863948963     0.04095196351258     0.00165491944326     0.91046435691604
   13     0.00033739368002     0.01241460987906     0.04735372259103     0.00098888179503     0.91525416521326
   14     0.00016477449431     0.01447629868723     0.04062981092937     0.00345836905402     0.90821249450491
   15     0.86278704438059     0.01154658300918     0.00187316942677     0.03774490133414     0.00035482786316

                 6                   7                   8                   9                  10

    1     0.01210577103413     0.01272659402554     0.00077267340864     0.00197084972718     0.05062527402934
    2     0.85534997050919     0.86182203071004     0.04233378370491     0.03711585464926     0.04047591630350
    3     0.03503872693133     0.04049638960238     0.87357194398719     0.86414542718788     0.01413926569676
    4     0.03999648099560     0.04004520828197     0.00763008018460     0.02675915512064     0.86571263596768
    5     0.02314602394032     0.00751301831390     0.03998959393751     0.03984636344351     0.00154198578605
    6     0.00000000000000     0.00752417366082     0.00176388095877     0.00171127845386     0.00884577441398
    7     0.00752417366082     0.00000000000000     0.00813057135053     0.00192179163757     0.00534942493492
    8     0.00176388095877     0.00813057135053     0.00000000000000     0.00783227374690     0.00005413271021
    9     0.00171127845386     0.00192179163757     0.00783227374690     0.00000000000000     0.00174066285530
   10     0.00884577441398     0.00534942493492     0.00005413271021     0.00174066285530     0.00000000000000
   11     0.00571542768651     0.00871217301747     0.00016325333008     0.00131754481823     0.00854401008948
   12     0.00152335995088     0.00005735067718     0.00410198172152     0.00983280004438     0.00022226276528
   13     0.00107995148074     0.00011190813314     0.00308052093790     0.00314366150960     0.00014997074458
   14     0.00129645499271     0.00011873640368     0.00993446550689     0.00430879329641     0.00001062018704
   15     0.00036451217436     0.00040201229450     0.00022130776480     0.00006656692710     0.00304168670334

                11                  12                  13                  14                  15

    1     0.05020315177068     0.00011288601882     0.00033739368002     0.00016477449431     0.86278704438059
    2     0.04010789755952     0.01442863948963     0.01241460987906     0.01447629868723     0.01154658300918
    3     0.01383333442813     0.04095196351258     0.04735372259103     0.04062981092937     0.00187316942677
    4     0.86401553146799     0.00165491944326     0.00098888179503     0.00345836905402     0.03774490133414
    5     0.00332650614769     0.91046435691604     0.91525416521326     0.90821249450491     0.00035482786316
    6     0.00571542768651     0.00152335995088     0.00107995148074     0.00129645499271     0.00036451217436
    7     0.00871217301747     0.00005735067718     0.00011190813314     0.00011873640368     0.00040201229450
    8     0.00016325333008     0.00410198172152     0.00308052093790     0.00993446550689     0.00022130776480
    9     0.00131754481823     0.00983280004438     0.00314366150960     0.00430879329641     0.00006656692710
   10     0.00854401008948     0.00022226276528     0.00014997074458     0.00001062018704     0.00304168670334
   11     0.00000000000000     0.00000979346611     0.00001785224418     0.00009348445512     0.00310015179914
   12     0.00000979346611     0.00000000000000     0.00966969397105     0.00801411818742     0.00003331101889
   13     0.00001785224418     0.00966969397105     0.00000000000000     0.00952947594550     0.00004149980356
   14     0.00009348445512     0.00801411818742     0.00952947594550     0.00000000000000     0.00003120355445
   15     0.00310015179914     0.00003331101889     0.00004149980356     0.00003120355445     0.00000000000000



  Atomic Valences: 

 #  #
 Irrep: 1
      1:  2.4621150
      2:  4.4529638
      3:  4.4517678
      4:  4.5058519
      5:  4.1933151
      6:  0.9954618
      7:  0.9949314
      8:  0.9995805
      9:  1.0017130
     10:  1.0004536
     11:  0.9991601
     12:  1.0010774
     13:  1.0031733
     14:  1.0002791
     15:  0.9216088


    Psi4 stopped on: Thursday, 27 May 2021 11:36AM
    Psi4 wall time for execution: 0:00:07.61

*** Psi4 exiting successfully. Buy a developer a beer!
