methanol Gaussian SP Calculation on bme-nova.bme.utexas.edu             
SP        RMP2-FC                                                     6-311++G(2d,2p)     
Number of atoms                            I                6
Info1-9                                    I   N=           9
          17          17           0           0           0         110
           1           2           1
Charge                                     I                0
Multiplicity                               I                1
Number of electrons                        I               18
Number of alpha electrons                  I                9
Number of beta electrons                   I                9
Number of basis functions                  I               94
Number of independent functions            I               94
Number of point charges in /Mol/           I                0
Number of translation vectors              I                0
Atomic numbers                             I   N=           6
           8           6           1           1           1           1
Nuclear charges                            R   N=           6
  8.00000000E+00  6.00000000E+00  1.00000000E+00  1.00000000E+00  1.00000000E+00
  1.00000000E+00
Current cartesian coordinates              R   N=          18
  1.41893299E+00  2.31880735E-01  1.02560632E-17 -1.25957806E+00 -3.67910781E-02
  1.02560632E-17 -1.95013879E+00 -1.02619121E+00  1.68583413E+00 -1.95013501E+00
 -1.02621956E+00 -1.68581901E+00 -2.03062222E+00  1.87309843E+00 -1.51178091E-05
  2.13689664E+00 -1.45498330E+00  1.02560632E-17
Force Field                                I                0
Int Atom Types                             I   N=           6
           0           0           0           0           0           0
MM charges                                 R   N=           6
  0.00000000E+00  0.00000000E+00  0.00000000E+00  0.00000000E+00  0.00000000E+00
  0.00000000E+00
Integer atomic weights                     I   N=           6
          16          12           1           1           1           1
Real atomic weights                        R   N=           6
  1.59949146E+01  1.20000000E+01  1.00782504E+00  1.00782504E+00  1.00782504E+00
  1.00782504E+00
Atom fragment info                         I   N=           6
           0           0           0           0           0           0
Atom residue num                           I   N=           6
           0           0           0           0           0           0
Nuclear spins                              I   N=           6
           0           0           1           1           1           1
Nuclear ZEff                               R   N=           6
 -5.60000000E+00 -3.60000000E+00 -1.00000000E+00 -1.00000000E+00 -1.00000000E+00
 -1.00000000E+00
Nuclear QMom                               R   N=           6
  0.00000000E+00  0.00000000E+00  0.00000000E+00  0.00000000E+00  0.00000000E+00
  0.00000000E+00
Nuclear GFac                               R   N=           6
  0.00000000E+00  0.00000000E+00  2.79284600E+00  2.79284600E+00  2.79284600E+00
  2.79284600E+00
MicOpt                                     I   N=           6
          -1          -1          -1          -1          -1          -1
Number of contracted shells                I               38
Number of primitive shells                 I               60
Pure/Cartesian d shells                    I                0
Pure/Cartesian f shells                    I                0
Highest angular momentum                   I                2
Largest degree of contraction              I                6
Shell types                                I   N=          38
           0          -1          -1          -1          -1          -2
          -2           0          -1          -1          -1          -1
          -2          -2           0           0           0           0
           1           1           0           0           0           0
           1           1           0           0           0           0
           1           1           0           0           0           0
           1           1
Number of primitives per shell             I   N=          38
           6           3           1           1           1           1
           1           6           3           1           1           1
           1           1           3           1           1           1
           1           1           3           1           1           1
           1           1           3           1           1           1
           1           1           3           1           1           1
           1           1
Shell to atom map                          I   N=          38
           1           1           1           1           1           1
           1           2           2           2           2           2
           2           2           3           3           3           3
           3           3           4           4           4           4
           4           4           5           5           5           5
           5           5           6           6           6           6
           6           6
Primitive exponents                        R   N=          60
  8.58850000E+03  1.29723000E+03  2.99296000E+02  8.73771000E+01  2.56789000E+01
  3.74004000E+00  4.21175000E+01  9.62837000E+00  2.85332000E+00  9.05661000E-01
  2.55611000E-01  8.45000000E-02  2.58400000E+00  6.46000000E-01  4.56324000E+03
  6.82024000E+02  1.54973000E+02  4.44553000E+01  1.30290000E+01  1.82773000E+00
  2.09642000E+01  4.80331000E+00  1.45933000E+00  4.83456000E-01  1.45585000E-01
  4.38000000E-02  1.25200000E+00  3.13000000E-01  3.38650000E+01  5.09479000E+00
  1.15879000E+00  3.25840000E-01  1.02741000E-01  3.60000000E-02  1.50000000E+00
  3.75000000E-01  3.38650000E+01  5.09479000E+00  1.15879000E+00  3.25840000E-01
  1.02741000E-01  3.60000000E-02  1.50000000E+00  3.75000000E-01  3.38650000E+01
  5.09479000E+00  1.15879000E+00  3.25840000E-01  1.02741000E-01  3.60000000E-02
  1.50000000E+00  3.75000000E-01  3.38650000E+01  5.09479000E+00  1.15879000E+00
  3.25840000E-01  1.02741000E-01  3.60000000E-02  1.50000000E+00  3.75000000E-01
Contraction coefficients                   R   N=          60
  1.89515008E-03  1.43859006E-02  7.07320031E-02  2.40001011E-01  5.94797026E-01
  2.80802012E-01  1.13889012E-01  9.20811101E-01 -3.27447036E-03  1.00000000E+00
  1.00000000E+00  1.00000000E+00  1.00000000E+00  1.00000000E+00  1.96665025E-03
  1.52306019E-02  7.61269097E-02  2.60801033E-01  6.16462078E-01  2.21006028E-01
  1.14660081E-01  9.19999648E-01 -3.03068213E-03  1.00000000E+00  1.00000000E+00
  1.00000000E+00  1.00000000E+00  1.00000000E+00  2.54938145E-02  1.90373109E-01
  8.52161486E-01  1.00000000E+00  1.00000000E+00  1.00000000E+00  1.00000000E+00
  1.00000000E+00  2.54938145E-02  1.90373109E-01  8.52161486E-01  1.00000000E+00
  1.00000000E+00  1.00000000E+00  1.00000000E+00  1.00000000E+00  2.54938145E-02
  1.90373109E-01  8.52161486E-01  1.00000000E+00  1.00000000E+00  1.00000000E+00
  1.00000000E+00  1.00000000E+00  2.54938145E-02  1.90373109E-01  8.52161486E-01
  1.00000000E+00  1.00000000E+00  1.00000000E+00  1.00000000E+00  1.00000000E+00
P(S=P) Contraction coefficients            R   N=          60
  0.00000000E+00  0.00000000E+00  0.00000000E+00  0.00000000E+00  0.00000000E+00
  0.00000000E+00  3.65113974E-02  2.37152983E-01  8.19701941E-01  1.00000000E+00
  1.00000000E+00  1.00000000E+00  0.00000000E+00  0.00000000E+00  0.00000000E+00
  0.00000000E+00  0.00000000E+00  0.00000000E+00  0.00000000E+00  0.00000000E+00
  4.02486927E-02  2.37593957E-01  8.15853851E-01  1.00000000E+00  1.00000000E+00
  1.00000000E+00  0.00000000E+00  0.00000000E+00  0.00000000E+00  0.00000000E+00
  0.00000000E+00  0.00000000E+00  0.00000000E+00  0.00000000E+00  0.00000000E+00
  0.00000000E+00  0.00000000E+00  0.00000000E+00  0.00000000E+00  0.00000000E+00
  0.00000000E+00  0.00000000E+00  0.00000000E+00  0.00000000E+00  0.00000000E+00
  0.00000000E+00  0.00000000E+00  0.00000000E+00  0.00000000E+00  0.00000000E+00
  0.00000000E+00  0.00000000E+00  0.00000000E+00  0.00000000E+00  0.00000000E+00
  0.00000000E+00  0.00000000E+00  0.00000000E+00  0.00000000E+00  0.00000000E+00
Coordinates of each shell                  R   N=         114
  1.41893328E+00  2.31880065E-01  0.00000000E+00  1.41893328E+00  2.31880065E-01
  0.00000000E+00  1.41893328E+00  2.31880065E-01  0.00000000E+00  1.41893328E+00
  2.31880065E-01  0.00000000E+00  1.41893328E+00  2.31880065E-01  0.00000000E+00
  1.41893328E+00  2.31880065E-01  0.00000000E+00  1.41893328E+00  2.31880065E-01
  0.00000000E+00 -1.25957786E+00 -3.67908796E-02  0.00000000E+00 -1.25957786E+00
 -3.67908796E-02  0.00000000E+00 -1.25957786E+00 -3.67908796E-02  0.00000000E+00
 -1.25957786E+00 -3.67908796E-02  0.00000000E+00 -1.25957786E+00 -3.67908796E-02
  0.00000000E+00 -1.25957786E+00 -3.67908796E-02  0.00000000E+00 -1.25957786E+00
 -3.67908796E-02  0.00000000E+00 -1.95013891E+00 -1.02619079E+00  1.68583413E+00
 -1.95013891E+00 -1.02619079E+00  1.68583413E+00 -1.95013891E+00 -1.02619079E+00
  1.68583413E+00 -1.95013891E+00 -1.02619079E+00  1.68583413E+00 -1.95013891E+00
 -1.02619079E+00  1.68583413E+00 -1.95013891E+00 -1.02619079E+00  1.68583413E+00
 -1.95013513E+00 -1.02621913E+00 -1.68581901E+00 -1.95013513E+00 -1.02621913E+00
 -1.68581901E+00 -1.95013513E+00 -1.02621913E+00 -1.68581901E+00 -1.95013513E+00
 -1.02621913E+00 -1.68581901E+00 -1.95013513E+00 -1.02621913E+00 -1.68581901E+00
 -1.95013513E+00 -1.02621913E+00 -1.68581901E+00 -2.03062141E+00  1.87309888E+00
 -1.51178091E-05 -2.03062141E+00  1.87309888E+00 -1.51178091E-05 -2.03062141E+00
  1.87309888E+00 -1.51178091E-05 -2.03062141E+00  1.87309888E+00 -1.51178091E-05
 -2.03062141E+00  1.87309888E+00 -1.51178091E-05 -2.03062141E+00  1.87309888E+00
 -1.51178091E-05  2.13689638E+00 -1.45498420E+00  0.00000000E+00  2.13689638E+00
 -1.45498420E+00  0.00000000E+00  2.13689638E+00 -1.45498420E+00  0.00000000E+00
  2.13689638E+00 -1.45498420E+00  0.00000000E+00  2.13689638E+00 -1.45498420E+00
  0.00000000E+00  2.13689638E+00 -1.45498420E+00  0.00000000E+00
Constraint Structure                       R   N=          18
  1.41893328E+00  2.31880065E-01  0.00000000E+00 -1.25957786E+00 -3.67908796E-02
  0.00000000E+00 -1.95013891E+00 -1.02619079E+00  1.68583413E+00 -1.95013513E+00
 -1.02621913E+00 -1.68581901E+00 -2.03062141E+00  1.87309888E+00 -1.51178091E-05
  2.13689638E+00 -1.45498420E+00  0.00000000E+00
Num ILSW                                   I              100
ILSW                                       I   N=         100
           0           0           0           0           2           0
           0           0           0           0           0 13421772800
           0           0           0           0           0           0
           0           0           0           0           0           0
           1           0           0           0           0           0
           0           0      100000           0          -1           0
           0           0           0           0           0           0
           0           0           0           1           0           0
           0           0           1           0           0           0
           0           0           4          40           0           0
           0           0           0           0           0           0
           0           0           0           0           0           0
           0           0           0           0           0           0
           0           0           0           0           0           0
           0           0           0           0           0           0
           0           0           0           0           0           0
           0           0           0           0
Num RLSW                                   I               40
RLSW                                       R   N=          40
  1.00000000E+00  1.00000000E+00  1.00000000E+00  1.00000000E+00  1.00000000E+00
  0.00000000E+00  0.00000000E+00  1.00000000E+00  0.00000000E+00  0.00000000E+00
  0.00000000E+00  0.00000000E+00  1.00000000E+00  0.00000000E+00  0.00000000E+00
  0.00000000E+00  0.00000000E+00  1.00000000E+00  0.00000000E+00  0.00000000E+00
  0.00000000E+00  0.00000000E+00  1.00000000E+00  0.00000000E+00  0.00000000E+00
  0.00000000E+00  0.00000000E+00  1.00000000E+00  0.00000000E+00  0.00000000E+00
  0.00000000E+00  0.00000000E+00  0.00000000E+00  0.00000000E+00  0.00000000E+00
  0.00000000E+00  0.00000000E+00  0.00000000E+00  1.00000000E+00  1.00000000E+00
MxBond                                     I                4
NBond                                      I   N=           6
           2           4           1           1           1           1
IBond                                      I   N=          24
           2           6           0           0           1           3
           4           5           2           0           0           0
           2           0           0           0           2           0
           0           0           1           0           0           0
RBond                                      R   N=          24
  1.00000000E+00  1.00000000E+00  0.00000000E+00  0.00000000E+00  1.00000000E+00
  1.00000000E+00  1.00000000E+00  1.00000000E+00  1.00000000E+00  0.00000000E+00
  0.00000000E+00  0.00000000E+00  1.00000000E+00  0.00000000E+00  0.00000000E+00
  0.00000000E+00  1.00000000E+00  0.00000000E+00  0.00000000E+00  0.00000000E+00
  1.00000000E+00  0.00000000E+00  0.00000000E+00  0.00000000E+00
Virial Ratio                               R      2.001435843285576E+00
SCF Energy                                 R     -1.150837014593862E+02
MP2 Energy                                 R     -1.154760672242650E+02
Total Energy                               R     -1.154760672242650E+02
Post-SCF wavefunction norm                 R      1.053117977075485E+00
RMS Density                                R      3.065691985453144E-09
External E-field                           R   N=          35
  0.00000000E+00  0.00000000E+00  0.00000000E+00  0.00000000E+00  0.00000000E+00
  0.00000000E+00  0.00000000E+00  0.00000000E+00  0.00000000E+00  0.00000000E+00
  0.00000000E+00  0.00000000E+00  0.00000000E+00  0.00000000E+00  0.00000000E+00
  0.00000000E+00  0.00000000E+00  0.00000000E+00  0.00000000E+00  0.00000000E+00
  0.00000000E+00  0.00000000E+00  0.00000000E+00  0.00000000E+00  0.00000000E+00
  0.00000000E+00  0.00000000E+00  0.00000000E+00  0.00000000E+00  0.00000000E+00
  0.00000000E+00  0.00000000E+00  0.00000000E+00  0.00000000E+00  0.00000000E+00
IOpCl                                      I                0
IROHF                                      I                0
Alpha Orbital Energies                     R   N=          94
 -2.05606631E+01 -1.12726596E+01 -1.35572522E+00 -9.24572871E-01 -6.90065304E-01
 -6.19070128E-01 -5.92221906E-01 -5.05544580E-01 -4.51530177E-01  3.91498359E-02
  6.34914056E-02  7.20597729E-02  7.95623542E-02  1.27011232E-01  1.46682736E-01
  1.59347954E-01  1.82262540E-01  2.75634692E-01  2.84530148E-01  2.88358447E-01
  2.89499619E-01  3.10457520E-01  3.26070800E-01  3.40090372E-01  3.91532795E-01
  4.69769431E-01  5.55963956E-01  5.69836400E-01  6.76251053E-01  7.27380490E-01
  7.35231979E-01  7.52196479E-01  7.69515378E-01  7.72892688E-01  7.97186212E-01
  8.77702075E-01  9.52358024E-01  1.04746546E+00  1.05189567E+00  1.15394341E+00
  1.21062998E+00  1.21853937E+00  1.28821759E+00  1.30572721E+00  1.35016281E+00
  1.36216265E+00  1.39708885E+00  1.50475241E+00  1.51436414E+00  1.54597332E+00
  1.64244085E+00  1.66707597E+00  1.69044412E+00  1.76517178E+00  1.82974625E+00
  2.11670845E+00  2.25978455E+00  2.28837657E+00  2.54131319E+00  2.55082175E+00
  2.88244376E+00  2.92624315E+00  3.10404287E+00  3.23002680E+00  3.49382681E+00
  3.53344648E+00  3.62785467E+00  3.65589664E+00  3.72683117E+00  3.94584574E+00
  3.94931835E+00  4.02145113E+00  4.13405071E+00  4.15834846E+00  4.26316777E+00
  4.29065578E+00  4.42795230E+00  4.45615344E+00  4.45785588E+00  4.48307115E+00
  4.58601140E+00  4.75666541E+00  5.40821488E+00  5.45473679E+00  5.59563167E+00
  5.99312402E+00  6.47790919E+00  7.47180671E+00  7.56072801E+00  7.61001228E+00
  7.74213270E+00  8.01773593E+00  2.51164135E+01  5.16394515E+01
Alpha MO coefficients                      R   N=        8836
  5.51486257E-01  4.71659505E-01 -8.39788602E-04 -1.48152248E-03  6.38140848E-10
  5.66546355E-03  3.01538310E-04  6.63803146E-04 -3.33508050E-10 -1.88041531E-03
  1.07847427E-04  1.10970665E-04  2.43946750E-10  9.76267805E-04 -1.86059134E-05
 -1.97332918E-05 -1.74488997E-10  8.83775299E-06  6.27078025E-11  2.83672004E-11
 -2.35820147E-05 -6.08322435E-06  2.54046091E-04  8.74689795E-12  9.95145741E-11
 -3.23548617E-05  1.23683053E-04 -8.02210182E-07 -3.91838165E-05 -4.67192367E-06
  2.19810044E-06 -7.46013623E-12  1.24961573E-04  4.27428062E-04  3.44828732E-05
  1.55758770E-10  2.05608286E-04  3.86631728E-04  1.50923903E-04 -1.95219055E-10
 -6.67513105E-04 -1.96589074E-04 -1.43864363E-04  6.41796283E-10 -3.89900389E-05
  2.79569370E-11  1.47491619E-11  6.21880982E-05  1.21514718E-05 -1.13969156E-04
 -1.26522874E-11 -4.76419076E-10  1.80736986E-04  1.09637743E-05  2.06000034E-06
  9.17831532E-05  7.15750255E-05 -1.44161219E-05  6.50301194E-06  7.01593520E-06
 -5.27536166E-06 -2.68001955E-05  3.89689490E-06 -5.30494201E-05  2.05999737E-06
  9.17842556E-05  7.15752268E-05 -1.44166526E-05  6.50303296E-06  7.01597384E-06
  5.27527955E-06 -2.68003539E-05  3.89801149E-06  5.30494422E-05  7.14726114E-06
 -7.76684054E-06  4.76760364E-05  2.35699982E-04  1.59413415E-06 -4.72411576E-06
  4.43198263E-11 -2.80699538E-05 -4.42745036E-05  3.29079413E-10  2.08106294E-04
  6.88854555E-04 -2.47630016E-04  5.43849125E-05 -6.34144658E-05  1.07500693E-04
  4.22533267E-11 -1.02870169E-04  2.45485253E-04 -1.37410176E-11 -6.66166706E-05
 -1.16059281E-04 -9.75763834E-05 -1.42125928E-05 -5.62205194E-12  2.27400001E-04
 -5.25444461E-04 -5.23040233E-05  6.21064562E-11  9.82563383E-04 -5.40084233E-04
 -9.16048519E-05  3.88423475E-10  6.13636345E-04 -2.12807941E-04 -5.07871699E-05
 -8.89442286E-11 -4.20198919E-05  1.39980816E-12  4.59915686E-11  8.08686610E-05
  1.70838199E-05 -1.05435803E-04 -1.12163383E-10 -2.21949584E-10  1.52864342E-04
  6.48738574E-05  5.63456221E-01  4.66555802E-01  1.04780415E-03 -5.31288456E-06
  1.63429926E-10  4.40272949E-03 -1.12002635E-03  2.05608598E-05 -1.28016837E-10
  1.18804944E-04 -1.00700292E-03 -4.47067079E-05  5.59849311E-10 -4.80241092E-04
  6.00130771E-05 -1.86055355E-05  2.10059160E-10  1.91545635E-05 -2.08162283E-10
 -3.37318605E-12 -7.60441738E-05 -8.34451718E-06  2.87097577E-04 -7.04138466E-10
 -3.21969839E-10 -5.29580969E-04 -9.21947311E-05  4.14826998E-04 -5.82880917E-04
 -1.22378311E-04  9.93192833E-05  4.61277898E-05  5.62578272E-05 -9.94911196E-05
 -7.13072630E-05 -2.05206664E-04  3.48351780E-04  4.14827056E-04 -5.82879375E-04
 -1.22377711E-04  9.93192999E-05  4.61275534E-05  5.62596057E-05  9.94902935E-05
 -7.13064001E-05 -2.05212042E-04 -3.48348206E-04  4.25380710E-04 -6.93926064E-04
 -1.06586647E-04  1.25964391E-04  4.95481936E-05 -1.12013227E-04  8.19643782E-10
 -9.74407655E-05  4.49323801E-04 -3.72965521E-09 -9.31907864E-06 -3.46606389E-05
 -1.06399574E-05 -3.10958363E-05  1.33793375E-05  8.55991628E-06  7.62365661E-11
 -1.75992878E-05  2.87288513E-05 -4.35869382E-10 -1.10109191E-01 -1.84004517E-01
 -1.74395894E-02 -2.74816491E-02 -3.87934765E-09  5.19709316E-01 -3.68273896E-02
 -4.97594811E-02 -3.58828221E-09  4.31533500E-01 -4.12658247E-02 -2.60229698E-02
 -2.37453899E-10 -4.88896066E-02  7.55869006E-03  6.51123803E-03  6.12090392E-09
 -3.17102300E-03  5.21844773E-10 -4.86661785E-10 -1.01811353E-04 -1.42095868E-03
 -1.04111465E-02 -4.29584060E-09  3.97558176E-09  7.00866784E-03  1.78116908E-03
 -3.64359860E-02 -5.94784313E-02  4.13550580E-02  2.14562314E-03 -2.66090230E-10
  1.45967041E-01  6.20114948E-02  4.74586049E-03 -3.76192189E-08 -1.56166481E-02
 -5.57054314E-03 -3.87109428E-04 -6.18615318E-08  5.23322413E-02  1.36793583E-02
 -2.16486612E-04 -1.54917992E-08 -6.36595436E-03  5.27228696E-10  2.96873688E-09
  1.07811721E-02  1.35534619E-03 -6.57857935E-03  1.99836435E-08 -2.04539599E-08
  6.77573502E-03 -1.21177337E-04  1.31084724E-02  3.14823511E-02  1.65279703E-03
 -6.60456453E-03  9.80520712E-04  9.34388891E-04 -1.68302766E-03  4.08581561E-03
  3.50115921E-03 -4.90427595E-03  1.31084987E-02  3.14823107E-02  1.65274017E-03
 -6.60458894E-03  9.80519871E-04  9.34417943E-04  1.68301293E-03  4.08578575E-03
  3.50122682E-03  4.90420896E-03  1.37481561E-02  2.69798376E-02  1.44973321E-03
 -7.45230357E-03  1.13047505E-03 -1.80691543E-03  1.45708346E-08  2.21094541E-03
 -4.20203816E-03  3.53645179E-08  8.71765410E-02  6.01356729E-02  1.45956952E-02
 -4.71132760E-03 -6.62333195E-03  1.35080980E-02 -4.23492190E-10 -5.07920908E-03
  8.61410351E-03  6.42317812E-09  3.15871690E-02  5.33036358E-02 -8.20564901E-02
  2.73785891E-02 -7.49008689E-09 -1.57749943E-01 -1.30884473E-01  4.47716097E-02
 -1.40493674E-08 -1.36775907E-01 -8.23979773E-02  1.94830690E-02  1.79723569E-09
 -2.39017070E-02  1.39758341E-02 -2.22065565E-03 -1.35170962E-08 -7.95784150E-05
  8.48578155E-12 -8.21204387E-11  4.84163879E-03  2.96861013E-03 -2.33189950E-03
 -9.94300117E-10  3.05516248E-09  1.23813519E-02  7.45750143E-03 -9.47151964E-02
 -1.57696058E-01 -3.07540587E-02  3.90683352E-03 -5.38157370E-09  4.05307226E-01
 -3.45012637E-02  9.65522121E-03 -3.89144397E-08  2.11815276E-01 -8.31520231E-03
 -8.22174749E-05 -6.07524542E-08  2.61931529E-03  6.10563723E-03 -4.21979366E-03
  9.86807811E-08  1.90915727E-03 -1.32871487E-08  1.46545565E-09 -3.96721261E-03
  8.45145027E-04 -4.30019604E-03  2.66975885E-08 -4.25265129E-08 -4.20365004E-03
 -1.09212096E-03  8.25329499E-02  1.24854611E-01  1.77293870E-02  2.05922497E-03
  2.59747325E-03  4.36950948E-03 -7.53260373E-03  4.66370676E-03  9.98174259E-03
 -1.44703982E-02  8.25329154E-02  1.24854497E-01  1.77293819E-02  2.05941098E-03
  2.59745150E-03  4.36963395E-03  7.53253149E-03  4.66368495E-03  9.98198442E-03
  1.44702284E-02  8.67564634E-02  1.21030342E-01  2.41710077E-02  5.28886927E-03
  2.99124004E-03 -8.58591973E-03  6.76614700E-08  3.07794927E-03 -1.55917796E-02
  1.16744621E-07 -6.67480498E-02 -7.51132886E-02 -1.51682796E-02 -1.02708394E-02
  9.61611816E-04 -8.56099369E-03 -4.77263530E-10  1.76851263E-03 -1.02091971E-02
 -3.77949633E-09 -2.13567673E-02 -3.62327104E-02 -9.62838161E-02  1.67907497E-01
  3.62265905E-08  1.07026694E-01 -1.54121101E-01  2.58910340E-01  5.50341202E-08
  1.90713581E-01 -1.06812742E-01  1.66584307E-01  6.20238494E-08  2.30201291E-02
  1.15489297E-02 -4.25234851E-03 -8.01315752E-09  2.47253028E-03 -4.41071420E-10
 -1.96347911E-09  8.09933997E-03  2.96835340E-03  1.68818381E-03 -1.00495649E-08
  7.54229732E-09  2.31402664E-02 -2.07752904E-03  1.15426203E-02  1.93791756E-02
  7.38816621E-02  9.49337623E-02  4.48462711E-08 -4.94473269E-02  1.11973091E-01
  1.51186509E-01  3.32631591E-08 -7.12699224E-02  4.27222611E-02  7.61964574E-02
 -5.67394422E-08  2.57018542E-02  7.54285672E-03  1.98894584E-03  7.65241867E-08
 -1.14793182E-02  1.54447564E-08 -1.55813144E-07  7.14386776E-03  3.23416509E-03
 -1.60395935E-02  3.10458464E-08 -2.45564470E-07  5.42027319E-03  1.26297564E-02
 -6.63824973E-02 -9.23574046E-02 -2.58939159E-02 -3.41167319E-03 -1.19651383E-03
 -1.26018954E-03  5.21212449E-03  2.25683587E-03  2.65162403E-03  9.64057480E-03
 -6.63834503E-02 -9.23589412E-02 -2.58943844E-02 -3.41146572E-03 -1.19654106E-03
 -1.26032154E-03 -5.21215262E-03  2.25681878E-03  2.65137341E-03 -9.64069878E-03
  3.05742973E-02  4.77549422E-02  1.39484148E-02 -1.85754376E-03  2.66504188E-03
 -8.38461136E-04  2.16821686E-08  6.45428975E-04 -2.01138362E-03  7.54734951E-08
 -1.31726496E-01 -2.07642045E-01 -7.67320081E-02 -9.05103394E-03  3.98848766E-03
 -1.17429897E-02  2.85847261E-09  1.56971598E-02 -2.70655563E-02  3.09658829E-09
 -5.47823017E-08 -9.32397840E-08  6.91927761E-07  1.57700688E-07  1.55180768E-01
  2.99634606E-07  1.09168805E-06  2.37618616E-07  2.42710610E-01  4.05352564E-07
  8.45572010E-07  2.32832019E-07  2.06940842E-01  1.99286002E-07  9.04448903E-08
 -7.63790175E-08  1.12730169E-02  1.17044017E-08 -2.93249488E-03 -2.36171029E-03
 -1.77113787E-08 -2.20704051E-08  2.76090979E-08 -1.48153108E-02 -1.09203435E-02
 -4.80853068E-08 -9.07534794E-08 -1.16833261E-08 -1.95977784E-08 -5.68839921E-07
  4.12150343E-07  1.64387861E-01  5.39410254E-08 -9.36177992E-07  6.01818239E-07
  2.53810628E-01  4.20062249E-07 -4.82422417E-07  2.21822283E-07  1.28418260E-01
  4.12952634E-07  2.97052525E-08 -2.05015595E-07  3.39618050E-03  2.50663542E-07
 -2.15488547E-03 -1.16344576E-02  8.24882422E-08 -1.24691461E-08  3.47952122E-07
  5.03725585E-03 -1.60717380E-02  3.75645339E-08 -1.74906453E-08  1.08940164E-01
  1.73680853E-01  6.53281110E-02  2.93833580E-03  3.85603641E-03  5.21462862E-03
 -5.38872422E-03  3.97061443E-03  1.00209299E-02 -8.23485490E-03 -1.08939191E-01
 -1.73679543E-01 -6.53280923E-02 -2.93861119E-03 -3.85599625E-03 -5.21471190E-03
 -5.38856612E-03 -3.97071415E-03 -1.00211360E-02 -8.23459668E-03 -4.89948413E-07
 -8.58630183E-07 -2.14916114E-07  1.33935542E-07 -3.44203777E-08  5.37747498E-08
  3.34384410E-03 -2.74331182E-08  1.54602214E-07  1.22652426E-02  1.64565132E-07
  2.30815854E-07 -1.88063364E-07 -3.87248573E-08  1.76807577E-08  2.50686154E-08
  5.95657031E-03  7.18538289E-08  2.14103124E-08  1.38352483E-02 -1.41705303E-02
 -2.40267438E-02  1.77653409E-01  6.84553181E-02 -7.71040205E-07  7.73468541E-02
  2.83380288E-01  1.05515853E-01 -1.20188735E-06  1.05445714E-01  2.30862105E-01
  8.98259440E-02 -1.05613490E-06  4.74906242E-02  8.13738154E-03 -3.93201717E-03
 -6.26311314E-08  2.63159233E-03  1.40588338E-08  9.54882625E-09 -4.07636460E-03
 -5.44047815E-03  9.38657765E-03  7.18286312E-08  5.14916858E-08 -1.16477158E-02
 -2.48400338E-02 -1.82385330E-04  5.81703295E-05 -1.30990551E-01  9.87978086E-02
 -6.41129433E-07 -1.24010385E-03 -2.11667886E-01  1.45937784E-01 -9.25136906E-07
  3.07152925E-02 -1.17592635E-01  9.22583520E-02 -4.17243202E-07 -1.00944467E-02
 -2.93260548E-03  1.08220986E-02 -1.52636304E-07  2.14396397E-03 -3.23277530E-10
 -1.49744919E-07 -1.96477239E-02 -6.16089080E-03  1.21834252E-02 -8.16053687E-08
 -1.28575158E-07 -2.46331277E-02 -2.12349995E-03 -3.84316424E-04 -1.43887465E-02
 -6.09888076E-03  3.99366709E-03 -2.70635245E-03  1.96711527E-03  5.34454213E-04
 -6.49578297E-03  1.59795580E-03  3.22777050E-03 -3.84757739E-04 -1.43892077E-02
 -6.09904440E-03  3.99344353E-03 -2.70636141E-03  1.96708424E-03 -5.34510017E-04
 -6.49579650E-03  1.59790341E-03 -3.22780630E-03  1.23000503E-01  1.89466975E-01
  5.51265402E-02  2.08733889E-04  2.40240979E-03 -9.29347474E-03  7.85310162E-08
  1.76218320E-03 -1.37836245E-02  1.20294465E-07  2.51946041E-02  2.79986051E-02
  6.53655954E-04  7.70712932E-03  6.02265747E-03  4.46740289E-03 -2.92567454E-08
  1.32159083E-02  2.72831891E-03 -6.44556724E-08 -2.40660508E-02 -4.09293203E-02
  6.89227250E-02  1.66945062E-01  2.78502168E-07  1.25950955E-01  1.08448551E-01
  2.56085599E-01  4.30750437E-07  2.08844365E-01  1.00755558E-01  2.09495757E-01
  4.05034444E-07  7.15591975E-02  1.07817327E-02  3.44879626E-02  4.17634109E-08
  4.33078479E-03 -1.84361168E-09  1.36730262E-09  2.07595029E-03  2.08590582E-03
  9.64190615E-03 -1.26287030E-08  2.27300351E-09  6.18930756E-03 -5.10783269E-03
  4.05162148E-03  7.14545647E-03 -3.36954515E-02 -1.44576087E-01 -1.84484245E-08
 -2.14179283E-02 -6.15998419E-02 -2.16809515E-01 -2.11638697E-08  9.93080138E-04
 -3.39006162E-02 -1.40202483E-01 -1.25831730E-08 -7.87147671E-03 -9.77476771E-04
  5.41055391E-03  4.28766647E-08  1.38136923E-02 -5.18286315E-09  3.14416779E-07
  2.29802489E-04  1.45531139E-02  1.51581564E-02  6.23424419E-09  2.72835144E-07
 -7.36659718E-03  2.57141001E-02  7.46388332E-02  1.16923273E-01  6.10777106E-02
  1.01535515E-02  1.67485790E-03  1.68293655E-04 -5.76246785E-03  2.28122727E-03
 -2.87866338E-03 -8.16926632E-03  7.46407441E-02  1.16926448E-01  6.10793831E-02
  1.01538463E-02  1.67490113E-03  1.68483772E-04  5.76256748E-03  2.28134490E-03
 -2.87842109E-03  8.16945874E-03 -1.21124317E-01 -2.05996681E-01 -1.02054711E-01
 -1.53908263E-02 -4.97837041E-03  8.18440774E-03 -9.03876620E-08 -1.01509385E-02
  1.32376802E-02 -1.63203912E-07 -8.51653406E-02 -1.46536460E-01 -6.85686577E-02
  4.58561868E-03  6.55885142E-03 -5.80503472E-03  1.06015060E-08  1.60621719E-02
 -9.49004806E-03  4.61579878E-09  2.86655578E-08  4.89085272E-08  8.27063761E-08
 -7.12534208E-08  2.44264848E-01 -1.42488563E-07  1.36653083E-07 -1.07464790E-07
  3.77872836E-01 -3.24225123E-07  1.39474934E-07 -2.18863634E-08  3.64469612E-01
 -1.64671021E-07  8.68516536E-08 -6.64154529E-08  8.06412712E-02 -4.81292190E-09
  1.31499822E-04 -2.99680679E-03 -5.97054689E-09 -6.23267516E-09 -1.44627692E-08
 -6.16855492E-03 -1.45405432E-02 -2.17271421E-08 -2.56841806E-08 -1.00989643E-08
 -1.65193194E-08 -1.62308789E-08  2.09210646E-07 -1.07644465E-01  3.98276059E-08
 -1.04390835E-08  2.80940042E-07 -1.58695802E-01  1.83503515E-07  5.43209836E-08
  1.17927347E-07 -1.22488975E-01  5.17718193E-07  1.23184168E-08 -1.54839418E-07
  6.30926388E-03 -2.32863151E-07  1.74382359E-02  1.21456728E-02 -1.61335896E-07
 -3.10366411E-08 -1.86611096E-07  3.80653745E-02  1.26519444E-02 -1.19168356E-07
 -3.45342484E-08 -9.72707237E-02 -1.61820755E-01 -9.94354422E-02 -1.78557104E-02
 -2.69259055E-03 -4.46333885E-03  5.00238771E-03 -7.07776770E-03 -4.40234640E-03
  5.98323259E-03  9.72697081E-02  1.61819052E-01  9.94340724E-02  1.78552017E-02
  2.69254913E-03  4.46343118E-03  5.00224177E-03  7.07764355E-03  4.40244990E-03
  5.98302476E-03  1.09720744E-06  1.89851040E-06  1.20718858E-06  2.77574901E-07