
    -----------------------------------------------------------------------
          Psi4: An Open-Source Ab Initio Electronic Structure Package
                               Psi4 1.3.2 release

                         Git: Rev {HEAD} ecbda83 


    R. M. Parrish, L. A. Burns, D. G. A. Smith, A. C. Simmonett,
    A. E. DePrince III, E. G. Hohenstein, U. Bozkaya, A. Yu. Sokolov,
    R. Di Remigio, R. M. Richard, J. F. Gonthier, A. M. James,
    H. R. McAlexander, A. Kumar, M. Saitow, X. Wang, B. P. Pritchard,
    P. Verma, H. F. Schaefer III, K. Patkowski, R. A. King, E. F. Valeev,
    F. A. Evangelista, J. M. Turney, T. D. Crawford, and C. D. Sherrill,
    J. Chem. Theory Comput. 13(7) pp 3185--3197 (2017).
    (doi: 10.1021/acs.jctc.7b00174)


                         Additional Contributions by
    P. Kraus, H. Kruse, M. H. Lechner, M. C. Schieber, R. A. Shaw,
    A. Alenaizan, R. Galvelis, Z. L. Glick, S. Lehtola, and J. P. Misiewicz

    -----------------------------------------------------------------------


    Psi4 started on: Sunday, 29 December 2019 02:03PM

    Process ID: 1678
    Host:       bme-nova.bme.utexas.edu
    PSIDATADIR: /home/bdw2292/miniconda3/envs/p4env/share/psi4
    Memory:     500.0 MiB
    Threads:    1
    
  ==> Input File <==

--------------------------------------------------------------------------
molecule { 
0 1
O            0.693690146401     0.037164741073     0.012584016425
C           -0.729241010977     0.012776814693     0.004319836608
H           -1.136719304926    -0.738656445925     0.691357061048
H           -1.136707737576    -0.166885778708    -0.997879410183
H           -1.053310700057     0.998092894950     0.337826683955
H            1.000319507828    -0.834513424482    -0.282457361871
}
memory 700MB
set_num_threads(1)
psi4_io.set_default_path("/scratch/bdw2292")
set freeze_core True
E, wfn = energy('mp2/6-311++G(2d,2p)',return_wfn=True)
oeprop(wfn,"DIPOLE","GRID_ESP")
clean()
--------------------------------------------------------------------------

  Memory set to 667.572 MiB by Python driver.
  Threads set to 1 by Python driver.
    SCF Algorithm Type (re)set to DF.

*** tstart() called on bme-nova.bme.utexas.edu
*** at Sun Dec 29 14:03:28 2019

   => Loading Basis Set <=

    Name: 6-311++G(2D,2P)
    Role: ORBITAL
    Keyword: BASIS
    atoms 1   entry O          line   176 file /home/bdw2292/miniconda3/envs/p4env/share/psi4/basis/6-311ppg_2d_2p_.gbs 
    atoms 2   entry C          line   130 file /home/bdw2292/miniconda3/envs/p4env/share/psi4/basis/6-311ppg_2d_2p_.gbs 
    atoms 3-6 entry H          line    45 file /home/bdw2292/miniconda3/envs/p4env/share/psi4/basis/6-311ppg_2d_2p_.gbs 


         ---------------------------------------------------------
                                   SCF
               by Justin Turney, Rob Parrish, Andy Simmonett
                          and Daniel G. A. Smith
                              RHF Reference
                        1 Threads,    667 MiB Core
         ---------------------------------------------------------

  ==> Geometry <==

    Molecular point group: c1
    Full point group: C1

    Geometry (in Angstrom), charge = 0, multiplicity = 1:

       Center              X                  Y                   Z               Mass       
    ------------   -----------------  -----------------  -----------------  -----------------
         O            0.693690146401     0.037164741073     0.012584016425    15.994914619570
         C           -0.729241010977     0.012776814693     0.004319836608    12.000000000000
         H           -1.136719304926    -0.738656445925     0.691357061048     1.007825032230
         H           -1.136707737576    -0.166885778708    -0.997879410183     1.007825032230
         H           -1.053310700057     0.998092894950     0.337826683955     1.007825032230
         H            1.000319507828    -0.834513424482    -0.282457361871     1.007825032230

  Running in c1 symmetry.

  Rotational constants: A =      4.24644  B =      0.82500  C =      0.79524 [cm^-1]
  Rotational constants: A = 127305.01747  B =  24732.78193  C =  23840.80471 [MHz]
  Nuclear repulsion =   40.204351607491930

  Charge       = 0
  Multiplicity = 1
  Electrons    = 18
  Nalpha       = 9
  Nbeta        = 9

  ==> Algorithm <==

  SCF Algorithm Type is DF.
  DIIS enabled.
  MOM disabled.
  Fractional occupation disabled.
  Guess Type is SAD.
  Energy threshold   = 1.00e-08
  Density threshold  = 1.00e-08
  Integral threshold = 0.00e+00

  ==> Primary Basis <==

  Basis Set: 6-311++G(2D,2P)
    Blend: 6-311++G(2D,2P)
    Number of shells: 46
    Number of basis function: 94
    Number of Cartesian functions: 98
    Spherical Harmonics?: true
    Max angular momentum: 2

   => Loading Basis Set <=

    Name: (6-311++G(2D,2P) AUX)
    Role: JKFIT
    Keyword: DF_BASIS_SCF
    atoms 1   entry O          line   286 file /home/bdw2292/miniconda3/envs/p4env/share/psi4/basis/aug-cc-pvtz-jkfit.gbs 
    atoms 2   entry C          line   162 file /home/bdw2292/miniconda3/envs/p4env/share/psi4/basis/aug-cc-pvtz-jkfit.gbs 
    atoms 3-6 entry H          line    70 file /home/bdw2292/miniconda3/envs/p4env/share/psi4/basis/aug-cc-pvtz-jkfit.gbs 

  ==> Pre-Iterations <==

   -------------------------------------------------------
    Irrep   Nso     Nmo     Nalpha   Nbeta   Ndocc  Nsocc
   -------------------------------------------------------
     A         94      94       0       0       0       0
   -------------------------------------------------------
    Total      94      94       9       9       9       0
   -------------------------------------------------------

  ==> Integral Setup <==

  DFHelper Memory: AOs need 0.029 GiB; user supplied 0.489 GiB. Using in-core AOs.

  ==> MemDFJK: Density-Fitted J/K Matrices <==

    J tasked:                   Yes
    K tasked:                   Yes
    wK tasked:                   No
    OpenMP threads:               1
    Memory [MiB]:               500
    Algorithm:                 Core
    Schwarz Cutoff:           1E-12
    Mask sparsity (%):       0.0000
    Fitting Condition:        1E-10

   => Auxiliary Basis Set <=

  Basis Set: (6-311++G(2D,2P) AUX)
    Blend: AUG-CC-PVTZ-JKFIT
    Number of shells: 116
    Number of basis function: 392
    Number of Cartesian functions: 482
    Spherical Harmonics?: true
    Max angular momentum: 4

  Minimum eigenvalue in the overlap matrix is 8.2003790753E-04.
  Using Symmetric Orthogonalization.

  SCF Guess: Superposition of Atomic Densities via on-the-fly atomic UHF.

  ==> Iterations <==

                           Total Energy        Delta E     RMS |[F,P]|

   @DF-RHF iter SAD:  -114.36138045759579   -1.14361e+02   0.00000e+00 
   @DF-RHF iter   1:  -114.99793987613903   -6.36559e-01   4.47337e-03 DIIS
   @DF-RHF iter   2:  -115.06167648540236   -6.37366e-02   2.62847e-03 DIIS
   @DF-RHF iter   3:  -115.08268265546070   -2.10062e-02   3.96382e-04 DIIS
   @DF-RHF iter   4:  -115.08366038489245   -9.77729e-04   1.22662e-04 DIIS
   @DF-RHF iter   5:  -115.08375429949888   -9.39146e-05   2.77119e-05 DIIS
   @DF-RHF iter   6:  -115.08376022415885   -5.92466e-06   6.36541e-06 DIIS
   @DF-RHF iter   7:  -115.08376070565464   -4.81496e-07   1.50430e-06 DIIS
   @DF-RHF iter   8:  -115.08376073539743   -2.97428e-08   3.12909e-07 DIIS
   @DF-RHF iter   9:  -115.08376073658260   -1.18517e-09   5.59414e-08 DIIS
   @DF-RHF iter  10:  -115.08376073661744   -3.48308e-11   1.35736e-08 DIIS
   @DF-RHF iter  11:  -115.08376073661942   -1.98952e-12   3.07871e-09 DIIS
  Energy and wave function converged.


  ==> Post-Iterations <==

    Orbital Energies [Eh]
    ---------------------

    Doubly Occupied:                                                      

       1A    -20.560636     2A    -11.272381     3A     -1.356201  
       4A     -0.924689     5A     -0.690418     6A     -0.619296  
       7A     -0.592607     8A     -0.505402     9A     -0.451441  

    Virtual:                                                              

      10A      0.039179    11A      0.063504    12A      0.072101  
      13A      0.079598    14A      0.127040    15A      0.146683  
      16A      0.159355    17A      0.182292    18A      0.275625  
      19A      0.284586    20A      0.288438    21A      0.289594  
      22A      0.310543    23A      0.326200    24A      0.340215  
      25A      0.391774    26A      0.470049    27A      0.555998  
      28A      0.569978    29A      0.676240    30A      0.727534  
      31A      0.735584    32A      0.752407    33A      0.769639  
      34A      0.773235    35A      0.797705    36A      0.877723  
      37A      0.952327    38A      1.047479    39A      1.052286  
      40A      1.154286    41A      1.210438    42A      1.219039  
      43A      1.288387    44A      1.306082    45A      1.350114  
      46A      1.362570    47A      1.397424    48A      1.505022  
      49A      1.514701    50A      1.546195    51A      1.642881  
      52A      1.667502    53A      1.690737    54A      1.765541  
      55A      1.829921    56A      2.117115    57A      2.260337  
      58A      2.289506    59A      2.541667    60A      2.552183  
      61A      2.882438    62A      2.926001    63A      3.104199  
      64A      3.230140    65A      3.495369    66A      3.534939  
      67A      3.629491    68A      3.657131    69A      3.728938  
      70A      3.946934    71A      3.950455    72A      4.023477  
      73A      4.134138    74A      4.158629    75A      4.263737  
      76A      4.291396    77A      4.428825    78A      4.457714  
      79A      4.459248    80A      4.483868    81A      4.587135  
      82A      4.758139    83A      5.410688    84A      5.457300  
      85A      5.596065    86A      5.995325    87A      6.480739  
      88A      7.480478    89A      7.570092    90A      7.619116  
      91A      7.750742    92A      8.025813    93A     25.118643  
      94A     51.639515  

    Final Occupation by Irrep:
              A 
    DOCC [     9 ]

  @DF-RHF Final Energy:  -115.08376073661942

   => Energetics <=

    Nuclear Repulsion Energy =             40.2043516074919296
    One-Electron Energy =                -236.6300859839233226
    Two-Electron Energy =                  81.3419736398119682
    Total Energy =                       -115.0837607366194248

Computation Completed


Properties will be evaluated at   0.000000,   0.000000,   0.000000 [a0]

Properties computed using the SCF density matrix

  Nuclear Dipole Moment: [e a0]
     X:    -2.1776      Y:    -0.6954      Z:    -0.2354

  Electronic Dipole Moment: [e a0]
     X:     1.7368      Y:     0.1302      Z:     0.0441

  Dipole Moment: [e a0]
     X:    -0.4408      Y:    -0.5652      Z:    -0.1913     Total:     0.7418

  Dipole Moment: [D]
     X:    -1.1205      Y:    -1.4365      Z:    -0.4862     Total:     1.8856


*** tstop() called on bme-nova.bme.utexas.edu at Sun Dec 29 14:03:29 2019
Module time:
	user time   =       1.27 seconds =       0.02 minutes
	system time =       0.03 seconds =       0.00 minutes
	total time  =          1 seconds =       0.02 minutes
Total time:
	user time   =       1.27 seconds =       0.02 minutes
	system time =       0.03 seconds =       0.00 minutes
	total time  =          1 seconds =       0.02 minutes

*** tstart() called on bme-nova.bme.utexas.edu
*** at Sun Dec 29 14:03:29 2019


  //>>>>>>>>>>>>>>>>>>>>>>>>>>>>>>>>>>>//
  //               DFMP2               //
  //<<<<<<<<<<<<<<<<<<<<<<<<<<<<<<<<<<<//

   => Loading Basis Set <=

    Name: (6-311++G(2D,2P) AUX)
    Role: RIFIT
    Keyword: DF_BASIS_MP2
    atoms 1   entry O          line   264 file /home/bdw2292/miniconda3/envs/p4env/share/psi4/basis/aug-cc-pvtz-ri.gbs 
    atoms 2   entry C          line   148 file /home/bdw2292/miniconda3/envs/p4env/share/psi4/basis/aug-cc-pvtz-ri.gbs 
    atoms 3-6 entry H          line    30 file /home/bdw2292/miniconda3/envs/p4env/share/psi4/basis/aug-cc-pvtz-ri.gbs 

	 --------------------------------------------------------
	                          DF-MP2                         
	      2nd-Order Density-Fitted Moller-Plesset Theory     
	              RMP2 Wavefunction,   1 Threads             
	                                                         
	        Rob Parrish, Justin Turney, Andy Simmonett,      
	           Ed Hohenstein, and C. David Sherrill          
	 --------------------------------------------------------

   => Auxiliary Basis Set <=

  Basis Set: (6-311++G(2D,2P) AUX)
    Blend: AUG-CC-PVTZ-RI
    Number of shells: 112
    Number of basis function: 396
    Number of Cartesian functions: 492
    Spherical Harmonics?: true
    Max angular momentum: 4

	 --------------------------------------------------------
	                 NBF =    94, NAUX =   396
	 --------------------------------------------------------
	   CLASS    FOCC     OCC    AOCC    AVIR     VIR    FVIR
	   PAIRS       2       9       7      85      85       0
	 --------------------------------------------------------

	-----------------------------------------------------------
	 ==================> DF-MP2 Energies <==================== 
	-----------------------------------------------------------
	 Reference Energy          =    -115.0837607366194248 [Eh]
	 Singles Energy            =      -0.0000000000000000 [Eh]
	 Same-Spin Energy          =      -0.0930594421854421 [Eh]
	 Opposite-Spin Energy      =      -0.2991941418207733 [Eh]
	 Correlation Energy        =      -0.3922535840062155 [Eh]
	 Total Energy              =    -115.4760143206256373 [Eh]
	-----------------------------------------------------------
	 ================> DF-SCS-MP2 Energies <================== 
	-----------------------------------------------------------
	 SCS Same-Spin Scale       =       0.3333333333333333 [-]
	 SCS Opposite-Spin Scale   =       1.2000000000000000 [-]
	 SCS Same-Spin Energy      =      -0.0310198140618140 [Eh]
	 SCS Opposite-Spin Energy  =      -0.3590329701849280 [Eh]
	 SCS Correlation Energy    =      -0.3900527842467420 [Eh]
	 SCS Total Energy          =    -115.4738135208661731 [Eh]
	-----------------------------------------------------------


*** tstop() called on bme-nova.bme.utexas.edu at Sun Dec 29 14:03:30 2019
Module time:
	user time   =       0.36 seconds =       0.01 minutes
	system time =       0.01 seconds =       0.00 minutes
	total time  =          1 seconds =       0.02 minutes
Total time:
	user time   =       1.63 seconds =       0.03 minutes
	system time =       0.04 seconds =       0.00 minutes
	total time  =          2 seconds =       0.03 minutes


Properties will be evaluated at   0.000000,   0.000000,   0.000000 [a0]
OEProp: No title given, name of density matrix used for the following properties is 'SCF density'
  Nuclear Dipole Moment: [e a0]
     X:    -2.1776      Y:    -0.6954      Z:    -0.2354

  Electronic Dipole Moment: [e a0]
     X:     1.7368      Y:     0.1302      Z:     0.0441

  Dipole Moment: [e a0]
     X:    -0.4408      Y:    -0.5652      Z:    -0.1913     Total:     0.7418

  Dipole Moment: [D]
     X:    -1.1205      Y:    -1.4365      Z:    -0.4862     Total:     1.8856


 Electrostatic potential computed on the grid and written to grid_esp.dat

    Psi4 stopped on: Sunday, 29 December 2019 02:03PM
    Psi4 wall time for execution: 0:00:12.95

*** Psi4 exiting successfully. Buy a developer a beer!
