Generated by Psi4
        SP                        DF-MP2                      6-311G**
Number of atoms                            I                6
Charge                                     I                0
Multiplicity                               I                1
Number of electrons                        I               18
Number of alpha electrons                  I                9
Number of beta electrons                   I                9
Number of basis functions                  I               60
Number of independent functions            I               60
Atomic numbers                             I   N=           6
           8           6           1           1           1           1
Nuclear charges                            R   N=           6
  8.00000000e+00  6.00000000e+00  1.00000000e+00  1.00000000e+00  1.00000000e+00
  1.00000000e+00
Current cartesian coordinates              R   N=          18
  1.31088439e+00  7.02311822e-02  2.37803446e-02 -1.37806579e+00  2.41446805e-02
  8.16330810e-03 -2.14808817e+00 -1.39585838e+00  1.30647550e+00 -2.14806631e+00
 -3.15368416e-01 -1.88571879e+00 -1.99046875e+00  1.88612222e+00  6.38399911e-01
  1.89032991e+00 -1.57700182e+00 -5.33767056e-01
Integer atomic weights                     I   N=           6
          15          12           1           1           1           1
Real atomic weights                        R   N=           6
  1.59949146e+01  1.20000000e+01  1.00782503e+00  1.00782503e+00  1.00782503e+00
  1.00782503e+00
Number of primitive shells                 I               58
Number of contracted shells                I               32
Pure/Cartesian d shells                    I                0
Pure/Cartesian f shells                    I                0
Highest angular momentum                   I                2
Largest degree of contraction              I                6
Shell types                                I   N=          32
           0           0           1           0           1           0
           1          -2           0           0           1           0
           1           0           1          -2           0           0
           0           1           0           0           0           1
           0           0           0           1           0           0
           0           1
Number of primitives per shell             I   N=          32
           6           3           3           1           1           1
           1           1           6           3           3           1
           1           1           1           1           3           1
           1           1           3           1           1           1
           3           1           1           1           3           1
           1           1
Shell to atom map                          I   N=          32
           1           1           1           1           1           1
           1           1           2           2           2           2
           2           2           2           2           3           3
           3           3           4           4           4           4
           5           5           5           5           6           6
           6           6
Primitive exponents                        R   N=          58
  8.58850000e+03  1.29723000e+03  2.99296000e+02  8.73771000e+01  2.56789000e+01
  3.74004000e+00  4.21175000e+01  9.62837000e+00  2.85332000e+00  4.21175000e+01
  9.62837000e+00  2.85332000e+00  9.05661000e-01  9.05661000e-01  2.55611000e-01
  2.55611000e-01  1.29200000e+00  4.56324000e+03  6.82024000e+02  1.54973000e+02
  4.44553000e+01  1.30290000e+01  1.82773000e+00  2.09642000e+01  4.80331000e+00
  1.45933000e+00  2.09642000e+01  4.80331000e+00  1.45933000e+00  4.83456000e-01
  4.83456000e-01  1.45585000e-01  1.45585000e-01  6.26000000e-01  3.38650000e+01
  5.09479000e+00  1.15879000e+00  3.25840000e-01  1.02741000e-01  7.50000000e-01
  3.38650000e+01  5.09479000e+00  1.15879000e+00  3.25840000e-01  1.02741000e-01
  7.50000000e-01  3.38650000e+01  5.09479000e+00  1.15879000e+00  3.25840000e-01
  1.02741000e-01  7.50000000e-01  3.38650000e+01  5.09479000e+00  1.15879000e+00
  3.25840000e-01  1.02741000e-01  7.50000000e-01
Contraction coefficients                   R   N=          58
  1.89515008e-03  1.43859006e-02  7.07320031e-02  2.40001011e-01  5.94797026e-01
  2.80802012e-01  1.13889012e-01  9.20811101e-01 -3.27447036e-03  3.65113974e-02
  2.37152983e-01  8.19701941e-01  1.00000000e+00  1.00000000e+00  1.00000000e+00
  1.00000000e+00  1.00000000e+00  1.96665025e-03  1.52306019e-02  7.61269097e-02
  2.60801033e-01  6.16462078e-01  2.21006028e-01  1.14660081e-01  9.19999648e-01
 -3.03068213e-03  4.02486927e-02  2.37593957e-01  8.15853851e-01  1.00000000e+00
  1.00000000e+00  1.00000000e+00  1.00000000e+00  1.00000000e+00  2.54938145e-02
  1.90373109e-01  8.52161486e-01  1.00000000e+00  1.00000000e+00  1.00000000e+00
  2.54938145e-02  1.90373109e-01  8.52161486e-01  1.00000000e+00  1.00000000e+00
  1.00000000e+00  2.54938145e-02  1.90373109e-01  8.52161486e-01  1.00000000e+00
  1.00000000e+00  1.00000000e+00  2.54938145e-02  1.90373109e-01  8.52161486e-01
  1.00000000e+00  1.00000000e+00  1.00000000e+00
Coordinates of each shell                  R   N=          96
  1.31088439e+00  7.02311822e-02  2.37803446e-02  1.31088439e+00  7.02311822e-02
  2.37803446e-02  1.31088439e+00  7.02311822e-02  2.37803446e-02  1.31088439e+00
  7.02311822e-02  2.37803446e-02  1.31088439e+00  7.02311822e-02  2.37803446e-02
  1.31088439e+00  7.02311822e-02  2.37803446e-02  1.31088439e+00  7.02311822e-02
  2.37803446e-02  1.31088439e+00  7.02311822e-02  2.37803446e-02 -1.37806579e+00
  2.41446805e-02  8.16330810e-03 -1.37806579e+00  2.41446805e-02  8.16330810e-03
 -1.37806579e+00  2.41446805e-02  8.16330810e-03 -1.37806579e+00  2.41446805e-02
  8.16330810e-03 -1.37806579e+00  2.41446805e-02  8.16330810e-03 -1.37806579e+00
  2.41446805e-02  8.16330810e-03 -1.37806579e+00  2.41446805e-02  8.16330810e-03
 -1.37806579e+00  2.41446805e-02  8.16330810e-03 -2.14808817e+00 -1.39585838e+00
  1.30647550e+00 -2.14808817e+00 -1.39585838e+00  1.30647550e+00 -2.14808817e+00
 -1.39585838e+00  1.30647550e+00 -2.14808817e+00 -1.39585838e+00  1.30647550e+00
 -2.14806631e+00 -3.15368416e-01 -1.88571879e+00 -2.14806631e+00 -3.15368416e-01
 -1.88571879e+00 -2.14806631e+00 -3.15368416e-01 -1.88571879e+00 -2.14806631e+00
 -3.15368416e-01 -1.88571879e+00 -1.99046875e+00  1.88612222e+00  6.38399911e-01
 -1.99046875e+00  1.88612222e+00  6.38399911e-01 -1.99046875e+00  1.88612222e+00
  6.38399911e-01 -1.99046875e+00  1.88612222e+00  6.38399911e-01  1.89032991e+00
 -1.57700182e+00 -5.33767056e-01  1.89032991e+00 -1.57700182e+00 -5.33767056e-01
  1.89032991e+00 -1.57700182e+00 -5.33767056e-01  1.89032991e+00 -1.57700182e+00
 -5.33767056e-01
Total Energy                               R     -1.154361491666072e+02
Alpha Orbital Energies                     R   N=          60
 -2.05459052e+01 -1.12706021e+01 -1.34827010e+00 -9.21372967e-01 -6.83604914e-01
 -6.15551313e-01 -5.86509565e-01 -4.99826428e-01 -4.46661826e-01  1.53291516e-01
  1.87485582e-01  2.25317228e-01  2.31317159e-01  3.41495853e-01  4.54251059e-01
  4.78893675e-01  5.78474433e-01  6.79958065e-01  7.25883854e-01  7.84494214e-01
  7.97064332e-01  8.99888068e-01  1.02375567e+00  1.05250898e+00  1.11344809e+00
  1.31440745e+00  1.38827157e+00  1.59772825e+00  1.61937889e+00  1.71226001e+00
  1.71751351e+00  1.73721473e+00  1.74091285e+00  1.87003586e+00  1.93769933e+00
  2.03953451e+00  2.25433971e+00  2.29154754e+00  2.39399417e+00  2.47055863e+00
  2.61218496e+00  2.64822107e+00  2.70816519e+00  2.79892489e+00  2.81919086e+00
  2.90236831e+00  3.09677355e+00  3.30101478e+00  3.46809138e+00  3.59138714e+00
  3.67300272e+00  4.06245437e+00  4.15987541e+00  4.29962453e+00  4.36758761e+00
  5.40627382e+00  5.78609487e+00  6.18405409e+00  2.50154656e+01  5.15731197e+01
Alpha MO coefficients                      R   N=        3600
  5.51468135e-01  4.71678534e-01 -1.00537310e-03 -1.38688311e-03 -4.69435266e-04
  5.53133218e-03  3.59388631e-04  5.37763884e-04  1.82023307e-04 -7.80665418e-04
  1.45429514e-04 -1.25459559e-04 -4.24642764e-05  1.48606596e-04  1.74373303e-05
 -7.07613713e-05 -7.22863139e-05  5.15238015e-05 -2.77362929e-06 -3.07050761e-05
  2.30704349e-05  1.33213612e-05  4.50914682e-06  8.10614322e-05  2.59494035e-04
 -4.19672380e-05 -1.42032926e-05  4.97512040e-04  1.99470435e-04  1.31113098e-04
  4.43802455e-05 -5.90528824e-05 -8.66398325e-06 -7.88733572e-06  1.22914802e-04
 -2.56013340e-05  9.55128027e-06 -4.77408589e-05 -1.65675645e-07 -2.41343256e-05
 -2.96305827e-06 -2.06384865e-05  9.55124379e-06 -4.77409779e-05 -1.65648673e-07
 -2.41345428e-05 -1.48890612e-05  1.45955615e-05  2.95573834e-05 -1.20498344e-04
 -4.58010075e-05  2.10022700e-07 -1.57515857e-05 -5.33157742e-06  2.01224612e-04
  1.17744954e-04  6.08917930e-05 -8.09484915e-05  7.61217060e-05  2.57649421e-05
 -6.68001170e-05 -1.19894690e-04 -9.67548187e-05 -8.89193813e-06 -3.01036332e-06
  2.69153173e-04 -5.32317523e-04  2.29034656e-06  7.71730501e-07  3.75716781e-04
 -1.63613610e-04 -2.11990656e-05 -7.17647253e-06 -1.05906556e-04  1.03203388e-05
 -5.51675911e-06  1.97867641e-04  3.04831391e-05  5.63474579e-01  4.66568274e-01
  9.21764866e-04 -8.55263487e-05 -2.89425853e-05  3.99040216e-03 -7.25169578e-04
  7.29439837e-05  2.46857204e-05 -1.21699488e-03  1.21963270e-04 -4.19639246e-05
 -1.42031158e-05  1.17349512e-04 -3.25326005e-06  2.01239540e-05 -2.55898586e-04
 -9.60150188e-06  3.41108990e-04  1.06509611e-04  2.41097210e-04  3.86623380e-05
 -5.42803609e-06  3.44087150e-06  3.41108890e-04  1.06510321e-04  2.41096888e-04
  3.86624425e-05 -2.22221275e-06 -6.02949651e-06  3.37908098e-04  7.68757010e-05
  2.76094282e-04  2.95290624e-05  2.26195281e-05  7.65632367e-06 -1.48875040e-05
  8.98606162e-06 -2.37641192e-05 -1.29138121e-05  3.50432862e-05  1.18612756e-05
  1.09780027e-01  1.83429282e-01  2.09282131e-02  2.46409054e-02  8.34052983e-03
 -5.21338605e-01  3.86822197e-02  4.27260097e-02  1.44620484e-02 -3.96767130e-01
  3.01116857e-02  1.51878117e-02  5.14092787e-03  6.57184746e-03  4.56324399e-04
 -3.70978139e-03 -1.67821940e-03  1.34844714e-03  3.69733552e-02  6.04819598e-02
 -3.93177538e-02  9.21834062e-04  3.11756027e-04 -1.51347921e-01 -7.89235573e-02
  2.74549309e-03  9.28770280e-04 -4.48963478e-03  4.41925595e-03  4.44414299e-03
  1.50427970e-03  1.41231876e-02  5.97702219e-04 -3.60457142e-04 -2.35191129e-02
  1.76680792e-03 -1.46330493e-02 -2.96911954e-02  1.09087551e-03 -4.31328096e-03
 -5.69245798e-03  5.00398541e-03 -1.46330446e-02 -2.96911780e-02  1.09087354e-03
 -4.31318875e-03 -1.48288643e-03 -7.43274423e-03 -1.50626452e-02 -3.15416922e-02
 -1.22243451e-03 -3.06150673e-03  7.43433223e-03  2.51634571e-03 -8.62529803e-02
 -7.30912019e-02  3.97660164e-04  1.08463152e-02 -2.25078244e-02 -7.61831869e-03
  3.19034756e-02  5.36365128e-02 -7.72941236e-02  3.12250128e-02  1.05684569e-02
 -1.55649118e-01 -1.23500193e-01  5.08088678e-02  1.71968478e-02 -1.49787778e-01
 -6.94198803e-02  1.97826837e-02  6.69554198e-03 -2.28826572e-03  1.61300440e-03
 -3.12431571e-03  1.21364838e-02  4.76518164e-03 -9.47943485e-02 -1.57589249e-01
 -3.14220801e-02  6.05812166e-03  2.05036883e-03  4.10809581e-01 -2.88975924e-02
  8.92311345e-03  3.02012943e-03  2.48430188e-01 -2.56305681e-02 -5.90805624e-03
 -1.99991253e-03  1.83853549e-04  6.38141756e-04  7.51122175e-04 -2.28327674e-03
  1.88539810e-03  8.35443559e-02  1.16581411e-01  3.96515570e-03  5.86899396e-03
  1.44234959e-02 -1.25396531e-02  8.35442964e-02  1.16581341e-01  3.96514572e-03
  5.86877118e-03  3.84201037e-03  1.87222166e-02  8.70466440e-02  1.25496452e-01
  7.55355646e-03  3.92730668e-03 -1.92674962e-02 -6.52161939e-03 -6.78032262e-02
 -8.20572614e-02 -1.32201138e-02  1.12047376e-03 -1.55929833e-02 -5.27786533e-03
  2.11696051e-02  3.60440271e-02  8.22717140e-02 -1.63337535e-01 -5.52855124e-02
 -1.10749632e-01  1.30979790e-01 -2.51274124e-01 -8.50497338e-02 -1.60990060e-01
  7.63479621e-02 -1.71251521e-01 -5.79642501e-02 -2.45514971e-03  4.32951549e-04
  8.47111255e-03 -1.79073609e-02  1.27933188e-03 -1.06268818e-02 -1.71255324e-02
 -8.04022784e-02 -8.45937639e-02 -2.86335727e-02  4.04101262e-02 -1.38885048e-01
 -1.41382939e-01 -4.78557998e-02  5.58632049e-02 -5.56282671e-02 -8.62734303e-02
 -2.92019752e-02  2.15078721e-02 -2.75335618e-03 -7.46978194e-03 -1.77126787e-02
 -8.13337845e-03  6.59859007e-02  8.93343974e-02  2.43934913e-02 -5.34316131e-04
  2.67215055e-03 -7.61842930e-03  6.59856821e-02  8.93340850e-02  2.43933842e-02
 -5.34431646e-04 -2.50442716e-03  7.67517558e-03 -3.42014324e-02 -4.10291329e-02
 -1.32587032e-02 -2.80801453e-03  1.65486854e-03  5.60129088e-04  1.33456088e-01
  2.05493769e-01  4.08442303e-02 -1.20949087e-02  2.45369975e-02  8.30514210e-03
 -2.76154032e-08 -4.67997973e-08 -7.24232443e-07 -4.91529332e-02  1.45218024e-01
  1.41810697e-07 -1.12856370e-06 -7.64947798e-02  2.25997104e-01  1.88968202e-07
 -1.00681500e-06 -6.66696570e-02  1.96969642e-01 -3.86606537e-03 -1.13591476e-02
 -5.83873938e-03 -2.23194311e-03  3.84484017e-03  1.50068837e-08  2.70290635e-08
 -1.17505886e-06 -5.22195989e-02  1.54278431e-01 -7.72725039e-08 -1.92028341e-06
 -8.46220528e-02  2.50008805e-01 -6.66226219e-08 -1.05074021e-06 -4.87030661e-02
  1.43889362e-01 -1.20839496e-02 -7.45501003e-04 -1.82503088e-02 -6.97671333e-03
  2.52488652e-04  1.09574024e-01  1.64382448e-01  6.55553536e-02  5.29547541e-03
  1.01055357e-02 -4.37691970e-03 -1.09574247e-01 -1.64382766e-01 -6.55554549e-02
 -5.29539532e-03 -5.36954165e-03 -9.61501560e-03  3.42936960e-07  4.65169649e-07
  1.44435202e-07 -5.48844307e-08 -2.84816412e-03  8.41450320e-03  2.99852611e-08
  3.80965427e-08  5.12658405e-08 -7.81910351e-08 -5.09296429e-03  1.50467266e-02
  1.40052476e-02  2.37109284e-02 -1.81345918e-01 -4.65810534e-02 -1.57675707e-02
 -7.16090940e-02 -2.81141843e-01 -7.12434074e-02 -2.41157374e-02 -1.03971415e-01
 -2.30249873e-01 -6.83766461e-02 -2.31450966e-02 -6.49689357e-03  5.21952782e-03
  8.54147246e-06  1.12308990e-02  1.54202232e-02 -4.55738117e-04 -1.62296820e-03
  1.20398568e-01 -1.04111498e-01 -3.52383804e-02  7.00940005e-03  2.14147197e-01
 -1.70078871e-01 -5.75660978e-02 -1.81902721e-02  9.92982106e-02 -1.26255217e-01
 -4.27336983e-02 -9.65697641e-03  6.02430365e-04 -9.49268801e-03  4.15582802e-02
  1.77871232e-03  3.45970200e-03  4.83578968e-03  9.22139212e-04  5.36600357e-03
 -2.75663754e-03 -3.12329922e-03  3.45924678e-03  4.83508928e-03  9.21810490e-04
  5.36594878e-03 -4.08696729e-03  8.06924197e-04 -1.24097378e-01 -1.71620152e-01
 -6.32459508e-02  1.65552811e-03  9.79654134e-03  3.31595729e-03 -3.16184799e-02
 -3.97734982e-02 -4.24917822e-02 -1.72440862e-02 -9.88199279e-03 -3.34491732e-03
  2.52951115e-02  4.29909065e-02 -8.77991873e-02 -1.56469101e-01 -5.29618322e-02
 -1.30135079e-01 -1.30562598e-01 -2.32573553e-01 -7.87217497e-02 -2.18750055e-01
 -1.50537418e-01 -2.16566716e-01 -7.33039285e-02 -8.15166411e-03  4.58104184e-04
  6.97810837e-03 -4.13510379e-03  1.35318634e-03 -4.55911572e-03 -7.92072502e-03
  4.70751799e-02  1.28371155e-01  4.34510395e-02  2.46006479e-02  8.62119631e-02
  1.97862249e-01  6.69724593e-02 -1.64184924e-02  1.84134165e-02  1.07242630e-01
  3.62993238e-02 -1.96835717e-02 -9.74482902e-03  1.23643893e-02  1.74822942e-03
 -2.87910062e-02 -7.19249467e-02 -1.21681996e-01 -6.34186542e-02 -8.10852577e-04
  1.39308480e-03  1.09847026e-02 -7.19246245e-02 -1.21681415e-01 -6.34183905e-02
 -8.10704081e-04  7.77850915e-03 -7.88030136e-03  1.14168850e-01  2.18628447e-01
  7.92810580e-02  8.41555851e-03 -1.37675417e-02 -4.65998555e-03  8.46814011e-02
  1.59760033e-01  3.57372740e-02 -1.89358398e-02  1.19926577e-02  4.05911697e-03
  6.06884347e-10  1.07995182e-09 -1.51896908e-06 -8.00272921e-02  2.36433194e-01
 -5.01111286e-09 -2.27832941e-06 -1.20084544e-01  3.54778617e-01  8.87337497e-09
 -2.53514026e-06 -1.33343535e-01  3.93951036e-01 -5.57194368e-03 -4.01075413e-03
 -8.41527481e-03 -3.21691254e-03  1.35761743e-03 -5.87158430e-09 -1.04150388e-08
  6.31604716e-07  3.32891474e-02 -9.83496596e-02  2.68270801e-08  9.53924975e-07
  5.11078120e-02 -1.50993215e-01  1.13322091e-07  4.56795877e-07  2.55455508e-02
 -7.54718968e-02  7.75023414e-03  3.57247832e-02  1.17044320e-02  4.47410710e-03
 -1.20921349e-02 -9.25237555e-02 -1.88401502e-01 -8.20752714e-02 -5.79473929e-03
 -9.52634633e-03  4.08919040e-03  9.25239225e-02  1.88401806e-01  8.20754178e-02
  5.79464937e-03  5.08418968e-03  9.03466247e-03 -1.25966223e-07 -2.85145923e-07
 -1.03681009e-07  4.43050923e-08  2.62164810e-03 -7.74530688e-03  1.22995272e-09
 -2.45857223e-08  1.36454810e-08 -1.52315378e-07 -8.23913391e-03  2.43417478e-02
  1.98060014e-02  3.29941604e-02 -2.98812548e-02  5.04071626e-02  1.70614877e-02
 -8.29337382e-02 -2.16364105e-02  6.91432686e-02  2.34032832e-02 -3.59710292e-01
 -2.02953636e-01  1.38728770e-01  4.69552447e-02  2.15217879e-04 -6.13059013e-04
 -8.27005109e-04  1.79057735e-03 -1.81124662e-03  2.97266382e-02  4.72609536e-02
  6.05491364e-02  1.71288377e-02  5.79812381e-03 -1.67667762e-02  6.52151819e-02
  1.14894263e-02  3.88934880e-03 -1.67167735e+00  2.43585360e-01  1.36708667e-01
  4.62742191e-02  4.71661894e-03  2.24988808e-03 -8.56431429e-04 -5.92895580e-03
  6.64733381e-03  3.46115854e-03  1.24696296e-02  7.82936429e-01  6.65445602e-03
 -2.23954483e-03 -3.41205218e-04  3.46117518e-03  1.24696770e-02  7.82935276e-01
  6.65445946e-03 -1.98640267e-03 -1.08907801e-03  2.16368521e-03  4.72264407e-02
  4.30837403e-01  8.68689832e-03 -5.37288864e-03 -1.81854720e-03  3.22608446e-02
 -9.88110009e-02  9.32506816e-01  7.99047983e-03 -1.03230924e-02 -3.49408310e-03
  2.30259794e-02  3.79817135e-02  9.17317682e-03  5.99229738e-02  2.02826432e-02
 -7.92360769e-02  3.52624430e-02  8.21332347e-02  2.78004898e-02 -5.71109199e-01
 -1.56609751e-02  1.95691170e-01  6.62369664e-02 -9.15711686e-05 -1.34460316e-03
 -1.87616945e-03  5.06643813e-03 -3.97259784e-03 -3.65450715e-02 -5.93509603e-02
 -5.94296450e-03  2.19946073e-02  7.44462306e-03  8.83849665e-02  1.94382578e-02
  1.02196051e-02  3.45920416e-03  1.28181526e+00 -1.49842843e-01  2.42692271e-01
  8.21448479e-02  9.31691042e-04  1.96761511e-03  1.20160864e-03 -4.75694488e-03
  5.81325531e-03 -1.30413711e-02  7.77373636e-02 -6.09232613e-01  7.90232867e-03
 -8.74627474e-04 -4.39850254e-03 -1.30413934e-02  7.77373379e-02 -6.09233352e-01
  7.90227410e-03 -3.36637649e-03  2.96312704e-03 -1.33465257e-02  7.23586878e-02
 -1.05016112e+00  8.27132402e-03 -6.76722434e-03 -2.29051142e-03  3.92657012e-02
 -8.41237637e-02  1.19825251e+00  1.03399037e-02 -1.33054648e-03 -4.50286681e-04
 -1.18487907e-08 -1.96212770e-08 -1.19388966e-07 -4.89621785e-03  1.44653779e-02
  4.01822888e-08 -8.81395257e-08 -2.81305198e-03  8.31086233e-03  3.18377954e-07
 -7.86515105e-07 -3.54621003e-02  1.04769097e-01 -1.50946223e-03  6.38901777e-03
 -2.27985531e-03 -8.71572923e-04 -2.16252531e-03 -1.78451030e-09 -5.16917919e-09
  8.70611714e-07  4.58069129e-02 -1.35331971e-01  4.33128728e-08  4.46133561e-07
  2.72548079e-02 -8.05216544e-02 -1.65620354e-07  6.86529624e-06  3.55994691e-01
 -1.05175115e+00 -1.24719832e-02 -1.95193093e-02 -1.88360089e-02 -7.20042513e-03
  6.60703172e-03  1.35603397e-02 -1.83930634e-01  1.90652952e+00 -1.01667254e-02
 -2.30315025e-02  1.79461684e-02 -1.35603854e-02  1.83930634e-01 -1.90653092e+00
  1.01663912e-02  7.39657566e-03  2.82455757e-02 -1.12786815e-08 -1.70423789e-07
  1.44600463e-06  1.62716031e-08  1.26116492e-03 -3.72589791e-03  1.67121995e-08
  7.30807811e-08 -3.51416732e-07 -4.18418278e-08 -2.26121988e-03  6.68051486e-03
  9.38420657e-03  1.56069693e-02  1.39477893e-02  2.53243105e-02  8.57180521e-03
 -3.55519084e-02  2.32400030e-02  2.89678190e-02  9.80511403e-03 -2.29394497e-01
  4.67683475e-02  1.19923360e-01  4.05916958e-02 -6.19510056e-04  2.08954415e-03
  4.48245382e-04 -9.93924942e-05  6.17332621e-03 -4.07072592e-03 -6.87856781e-03
  1.30119163e-02 -1.30647263e-01 -4.42211631e-02  1.47093365e-02  2.22255496e-02
 -7.66567453e-02 -2.59465048e-02  6.38230533e-02  1.07255323e-01 -1.04072419e+00
 -3.52261847e-01 -1.58383462e-02 -5.58905335e-03  1.69726906e-02 -1.69665597e-02
 -1.65126682e-02 -1.22701448e-02  1.04252883e-01 -1.09700900e+00  8.70665108e-03
  8.74062208e-03 -1.36738829e-02 -1.22701141e-02  1.04252559e-01 -1.09700603e+00
  8.70641775e-03 -1.36147996e-03  1.61716333e-02  1.91592132e-02 -1.51425311e-01
  2.13379744e+00 -7.22579060e-03  3.15617280e-02  1.06829485e-02  2.13034229e-03
 -4.91431383e-02  2.88737817e-01  1.18406752e-03 -3.06994933e-03 -1.03911265e-03
  2.43929270e-02  3.99870550e-02  1.31306228e-01 -3.17690446e-02 -1.07522633e-02
 -6.77011682e-02  1.54245830e-01 -2.77427124e-02 -9.38929748e-03 -1.01855791e+00
  8.01270474e-01 -1.21996120e-01 -4.12877432e-02  3.76171611e-03 -7.15628541e-04
 -1.92704403e-03 -1.47451825e-03 -2.11408685e-03 -1.48739663e-02 -2.45683699e-02
  9.87913128e-02  9.43818715e-03  3.19527069e-03  2.11223963e-02  9.90158526e-02
  8.96155962e-03  3.03393366e-03  6.15520888e-01  1.80335762e+00  1.44401120e-01
  4.88886742e-02  8.69212772e-03 -1.22606648e-03  7.96847819e-05 -1.52637120e-02
 -3.62170456e-03  1.24050163e-02  1.95279494e-01  3.47591141e-01  6.32953298e-03
  1.06285594e-03  1.55772830e-03  1.24050915e-02  1.95280187e-01  3.47588988e-01
  6.32953867e-03  1.79043887e-03 -5.91834200e-04  1.53020846e-02  1.77072185e-01
 -1.83472825e-01  7.54241797e-04 -1.40428557e-03 -4.75301661e-04 -2.92619598e-03
  8.89617647e-02 -8.96810099e-01 -6.45256810e-03  1.56657098e-02  5.30245521e-03
  4.85044849e-03  8.83279929e-03 -2.58725210e-02 -4.76738935e-02 -1.61367394e-02
 -5.15572817e-02 -4.57704812e-02 -5.00840167e-02 -1.69526242e-02  1.26820342e-01
  2.49681921e-02 -5.67034941e-01 -1.91928739e-01 -2.34995937e-03 -3.65159260e-03
  4.11337397e-03 -6.69033966e-03 -1.07882773e-02 -1.68834771e-03 -4.05689028e-03
  2.04197677e-03  7.99251948e-03  2.70529355e-03  4.32728676e-02  1.01294218e-02
  6.68178331e-02  2.26164268e-02 -1.20761556e-01 -4.52884532e-02  1.78597751e+00
  6.04514468e-01 -1.81937704e-02 -1.07560461e-02  1.67763959e-02 -1.23736939e-02
 -3.17781114e-02  2.54296504e-02  7.07737780e-01 -4.42451280e-02  2.51294073e-02
  3.54437677e-02 -1.23677263e-02  2.54295322e-02  7.07736221e-01 -4.42447785e-02
  2.51290544e-02  2.06452752e-02  3.13529505e-02 -5.10132471e-02 -1.40535416e+00
  6.02387458e-03 -4.19826363e-02  6.57240858e-02  2.22459706e-02  2.47457871e-02
 -4.57477929e-01  4.63704646e-01  4.21255741e-02 -3.38640505e-02 -1.14618771e-02
  3.26406109e-08  5.27925385e-08 -4.54531685e-07 -2.37810523e-02  7.02589671e-02
 -2.02834781e-08 -5.97276346e-07 -2.91304017e-02  8.60632784e-02 -2.05183227e-06
 -2.02924317e-06 -1.21677430e-01  3.59487539e-01 -4.61800939e-03  7.57667727e-03
 -6.97476023e-03 -2.66631894e-03 -2.56448533e-03 -9.86098349e-09 -1.08806789e-08
  1.74474816e-07  9.95622233e-03 -2.94145224e-02 -1.49506709e-07  6.14590145e-07
  2.80021143e-02 -8.27292623e-02  6.31883952e-07  1.30319672e-05  5.78926740e-01
 -1.71038327e+00  6.66331255e-03  4.43813108e-02  1.00627243e-02  3.84651551e-03
 -1.50221868e-02  4.90901963e-02  1.20842831e+00  2.65999613e-02  2.71892111e-02
  2.82845411e-02 -4.62149384e-02 -4.90902082e-02 -1.20842953e+00 -2.65992848e-02
 -2.71886074e-02  5.60003487e-03 -5.38935410e-02 -4.27160189e-08  8.90732880e-07
  5.89782622e-07  2.05968091e-07  8.23759836e-03 -2.43373504e-02  8.86754741e-08
  2.36342557e-06 -1.61003143e-06 -1.60505455e-07 -1.94683859e-03  5.75213288e-03
  1.40647962e-02  2.32039070e-02 -5.87164928e-02  9.70328364e-02  3.28429331e-02
 -1.42304676e-02 -8.43654747e-02  1.64508700e-01  5.56817580e-02 -9.59938046e-01
 -2.69438733e-01  9.21674883e-01  3.11964020e-01  4.28926082e-03 -3.41464181e-03
  2.36238062e-03 -1.36092237e-02 -1.00877882e-02  1.74102304e-02  3.51820828e-02
 -6.42625310e-02  4.64635595e-02  1.57265371e-02 -2.50499449e-01 -1.91753646e-01
  1.48601075e-01  5.02970666e-02  5.50325257e-01  3.89184964e-01 -3.88950455e-01
 -1.31646219e-01 -6.19057665e-03  1.04467101e-02 -1.63429572e-03  1.49980706e-02
  3.08634126e-02  2.83843480e-02  5.68708889e-02 -1.41485519e-01 -3.98437658e-02
  3.69558586e-04  1.13580609e-02  2.83844227e-02  5.68732399e-02 -1.41484317e-01
 -3.98436104e-02  7.19231867e-03 -8.79897286e-03 -4.12030291e-02 -2.40268153e-01
  3.15354788e-01  2.81802363e-02  6.62235183e-03  2.24174824e-03  1.02643580e-01
  2.06664493e+00 -1.03623718e+00 -4.08518801e-02  3.02353425e-02  1.02336857e-02
  3.89228392e-02  7.00797745e-02  1.29781778e-01  3.69666283e-02  1.25131746e-02
 -2.65927886e-01  1.61602390e-01  6.77893032e-02  2.29461104e-02 -1.33964939e-01
  4.11388342e-01  1.82837622e-01  6.18890506e-02 -2.41307062e-02 -3.55832328e-03
  3.98797656e-03  3.13631155e-02 -1.05141524e-02 -6.33326908e-02 -1.23435923e-01
  2.13618901e-01 -3.87564150e-03 -1.31036911e-03  4.91702635e-01  6.90268590e-01
 -1.57957222e-02 -5.34172935e-03  1.27424463e+00 -8.74829790e-01  4.11766275e-03
  1.38883374e-03  2.66437530e-02  3.25862386e-03  2.80832594e-03 -5.34946094e-02
  9.62922717e-03 -2.58996219e-02 -6.87441609e-01  4.54685259e-02  2.46819720e-02
 -4.75015839e-03  2.45943278e-03 -2.58996036e-02 -6.87440674e-01  4.54691255e-02
  2.46819827e-02 -2.27987594e-03 -4.83854318e-03 -3.29608292e-02 -6.98807389e-01
  1.94927719e-04  4.18842953e-02  3.73606790e-03  1.26484396e-03  1.72677850e-02
  6.17606490e-01 -4.17927657e-01  5.11381568e-02 -7.59452302e-03 -2.57026009e-03
  8.28905148e-03  1.39615878e-02 -9.45514475e-03 -2.42758454e-02 -8.21694768e-03
 -3.16371561e-02 -3.75964472e-02 -5.58177566e-02 -1.88934284e-02 -6.45550445e-01
  3.57294899e-01 -8.19165024e-02 -2.77247439e-02  1.48314820e-02  3.69513508e-03
 -3.44711409e-03 -1.66712524e-02  1.09177585e-02 -3.32668629e-02 -6.12148494e-02
 -1.60035497e-01 -3.22582643e-02 -1.09200115e-02  3.07134332e-02 -6.46121224e-01
 -1.40919782e-01 -4.77032846e-02  2.14809146e+00  6.86492578e-01  3.33538894e-01
  1.12902698e-01 -1.71345464e-02 -1.13795553e-02  6.23196471e-03  1.33746386e-02
 -3.36204796e-02 -5.38412154e-02 -1.17215457e+00  4.49446397e-01 -2.60973361e-02
  1.22905062e-02 -1.14071194e-02 -5.38412877e-02 -1.17215400e+00  4.49448522e-01
 -2.60975000e-02  2.83562927e-03  1.65267730e-02 -2.57076326e-02 -1.03806718e+00
 -1.51652674e-01 -4.60025743e-02  9.70431112e-04  3.28095060e-04 -7.44102082e-03
 -1.84845476e-01 -2.69038681e-01 -6.68036150e-02 -1.55789259e-02 -5.27355763e-03
 -5.88634459e-09 -9.81357942e-09  2.05223966e-08 -1.99135523e-04  5.88412953e-04
  1.75928766e-08  5.19581918e-08 -4.07217665e-04  1.20330944e-03  6.84396276e-07
  6.58912730e-07  5.00685631e-02 -1.47922378e-01  1.26813414e-03  1.91607669e-02
  1.91491549e-03  7.31933830e-04 -6.48553879e-03  6.70664490e-09  1.06347293e-08
  1.74972180e-06  8.18234778e-02 -2.41738947e-01  2.26901077e-07  7.07724624e-06
  3.31055188e-01 -9.78067721e-01 -2.20403554e-06 -1.24454788e-05 -5.97816714e-01
  1.76618682e+00 -2.34285923e-02 -6.55645723e-02 -3.53828437e-02 -1.35256343e-02
  2.21925372e-02  5.15063433e-02  3.97738089e-01 -1.48944893e+00 -3.92902917e-02
 -4.46305849e-02  1.56840937e-02 -5.15063294e-02 -3.97736190e-01  1.48944884e+00
  3.92900040e-02  2.59290431e-02  3.95676554e-02  2.45909273e-08  9.52883325e-07
 -2.00822329e-07  2.62179012e-07  1.22559826e-02 -3.62088879e-02  1.62319363e-08
  1.24025518e-07  1.44053435e-07  6.64223462e-09 -4.89568491e-03  1.44639030e-02
  5.09589083e-03  9.45225009e-03 -2.43011861e-02  4.88709791e-02  1.65415651e-02
 -3.98679701e-02 -4.39705983e-02  1.07510925e-01  3.63897385e-02 -8.76635458e-02
 -7.16510276e-02 -9.28048727e-03 -3.14189864e-03 -2.60564916e-03  2.98983965e-03
  4.52361942e-03 -7.32017547e-03  8.83317044e-03  1.61825343e-02  3.19343082e-02
  8.80453349e-03 -2.36906600e-01 -8.01877639e-02 -1.67540097e-01  5.47258339e-02
 -9.47034201e-01 -3.20550438e-01  3.95748440e-02 -2.75953257e-02  1.63848670e+00
  5.54592773e-01 -3.79413259e-02 -1.19944858e-02  3.57926604e-02 -2.79150414e-02
 -3.54373498e-02 -1.43610871e-02 -6.99521299e-02  7.17699071e-01  1.18054984e-02
 -1.49169283e-02 -3.42635451e-02 -1.43610499e-02 -6.99516473e-02  7.17698107e-01
  1.18051315e-02 -3.26610338e-02  1.81595878e-02  6.32034081e-02  6.36337564e-01
 -1.75171888e+00 -3.46671223e-02  6.24334263e-02  2.11322134e-02  1.48015600e-02
  5.03380965e-01 -1.55345081e-01  4.17982863e-03 -2.23365623e-02 -7.56032267e-03
  1.49175132e-02  2.64268886e-02 -1.11597639e-02 -3.13389816e-02 -1.06076981e-02
 -7.62850659e-02 -7.73773026e-02 -8.08977574e-02 -2.73828383e-02 -7.34119618e-01
  6.83053089e-01  6.77651911e-02  2.29417361e-02  1.85593145e-02  3.90613521e-03
 -6.04310025e-03 -1.63371334e-02  1.15413196e-02  9.71570252e-02  2.07909459e-01
  7.53663283e-02  2.01513303e-02  6.82123870e-03 -1.84552486e+00  2.00559840e-01
  5.88809046e-02  1.99312775e-02  5.63945493e+00 -4.44180564e-01 -1.33099983e-02
 -4.50741359e-03  3.32292675e-02 -1.05343256e-02 -1.84282559e-03 -5.27349657e-02
 -3.11203606e-02  2.12667399e-02 -6.68609360e-01 -9.11987341e-01 -5.54796512e-02
 -1.08203764e-01  1.11919620e-01  2.12667613e-02 -6.68609133e-01 -9.11986430e-01
 -5.54779489e-02 -1.79816803e-02 -1.54631394e-01  2.65200042e-02 -7.55255420e-01
 -8.56481116e-01 -4.82251820e-02  1.45625175e-01  4.92906465e-02 -2.24901701e-02
 -1.14808045e-01 -9.01717119e-02 -1.06563490e-01 -4.82981312e-03 -1.63551044e-03
  1.70898167e-02  3.01603213e-02 -8.99276368e-02 -1.72688109e-01 -5.84521043e-02
 -5.61183335e-02 -3.78323885e-01 -5.56752934e-01 -1.88452494e-01 -7.18285677e-01
  7.04333644e-01  1.26829637e+00  4.29296819e-01 -5.55286412e-03  4.51590596e-03
 -1.20228428e-03  1.27632985e-02  1.33413734e-02 -9.70961809e-03 -2.79677995e-02
 -2.01686463e-02  4.40141000e-03  1.48968903e-03  2.94693993e-01  2.56037284e-01
 -1.58188938e-01 -5.35420304e-02 -6.67557542e-02  1.99767573e-01 -2.07903783e-01
 -7.03698597e-02 -1.20843323e-01  2.13187324e-02  4.33135282e-02  9.60034044e-02