
    -----------------------------------------------------------------------
          Psi4: An Open-Source Ab Initio Electronic Structure Package
                               Psi4 1.3.2 release

                         Git: Rev {HEAD} ecbda83 


    R. M. Parrish, L. A. Burns, D. G. A. Smith, A. C. Simmonett,
    A. E. DePrince III, E. G. Hohenstein, U. Bozkaya, A. Yu. Sokolov,
    R. Di Remigio, R. M. Richard, J. F. Gonthier, A. M. James,
    H. R. McAlexander, A. Kumar, M. Saitow, X. Wang, B. P. Pritchard,
    P. Verma, H. F. Schaefer III, K. Patkowski, R. A. King, E. F. Valeev,
    F. A. Evangelista, J. M. Turney, T. D. Crawford, and C. D. Sherrill,
    J. Chem. Theory Comput. 13(7) pp 3185--3197 (2017).
    (doi: 10.1021/acs.jctc.7b00174)


                         Additional Contributions by
    P. Kraus, H. Kruse, M. H. Lechner, M. C. Schieber, R. A. Shaw,
    A. Alenaizan, R. Galvelis, Z. L. Glick, S. Lehtola, and J. P. Misiewicz

    -----------------------------------------------------------------------


    Psi4 started on: Sunday, 29 December 2019 02:03PM

    Process ID: 1664
    Host:       bme-nova.bme.utexas.edu
    PSIDATADIR: /home/bdw2292/miniconda3/envs/p4env/share/psi4
    Memory:     500.0 MiB
    Threads:    1
    
  ==> Input File <==

--------------------------------------------------------------------------
molecule { 
0 1
O            0.693690146401     0.037164741073     0.012584016425
C           -0.729241010977     0.012776814693     0.004319836608
H           -1.136719304926    -0.738656445925     0.691357061048
H           -1.136707737576    -0.166885778708    -0.997879410183
H           -1.053310700057     0.998092894950     0.337826683955
H            1.000319507828    -0.834513424482    -0.282457361871
}
memory 700MB
set_num_threads(1)
psi4_io.set_default_path("/scratch/bdw2292")
set freeze_core True
E, wfn = energy('mp2/6-311G**',return_wfn=True)
gdma(wfn)
fchk(wfn, "methanol-dma.fchk")
clean()
--------------------------------------------------------------------------

  Memory set to 667.572 MiB by Python driver.
  Threads set to 1 by Python driver.
    SCF Algorithm Type (re)set to DF.

*** tstart() called on bme-nova.bme.utexas.edu
*** at Sun Dec 29 14:03:21 2019

   => Loading Basis Set <=

    Name: 6-311G**
    Role: ORBITAL
    Keyword: BASIS
    atoms 1   entry O          line   151 file /home/bdw2292/miniconda3/envs/p4env/share/psi4/basis/6-311gss.gbs 
    atoms 2   entry C          line   113 file /home/bdw2292/miniconda3/envs/p4env/share/psi4/basis/6-311gss.gbs 
    atoms 3-6 entry H          line    32 file /home/bdw2292/miniconda3/envs/p4env/share/psi4/basis/6-311gss.gbs 


         ---------------------------------------------------------
                                   SCF
               by Justin Turney, Rob Parrish, Andy Simmonett
                          and Daniel G. A. Smith
                              RHF Reference
                        1 Threads,    667 MiB Core
         ---------------------------------------------------------

  ==> Geometry <==

    Molecular point group: c1
    Full point group: C1

    Geometry (in Angstrom), charge = 0, multiplicity = 1:

       Center              X                  Y                   Z               Mass       
    ------------   -----------------  -----------------  -----------------  -----------------
         O            0.693690146401     0.037164741073     0.012584016425    15.994914619570
         C           -0.729241010977     0.012776814693     0.004319836608    12.000000000000
         H           -1.136719304926    -0.738656445925     0.691357061048     1.007825032230
         H           -1.136707737576    -0.166885778708    -0.997879410183     1.007825032230
         H           -1.053310700057     0.998092894950     0.337826683955     1.007825032230
         H            1.000319507828    -0.834513424482    -0.282457361871     1.007825032230

  Running in c1 symmetry.

  Rotational constants: A =      4.24644  B =      0.82500  C =      0.79524 [cm^-1]
  Rotational constants: A = 127305.01747  B =  24732.78193  C =  23840.80471 [MHz]
  Nuclear repulsion =   40.204351607491930

  Charge       = 0
  Multiplicity = 1
  Electrons    = 18
  Nalpha       = 9
  Nbeta        = 9

  ==> Algorithm <==

  SCF Algorithm Type is DF.
  DIIS enabled.
  MOM disabled.
  Fractional occupation disabled.
  Guess Type is SAD.
  Energy threshold   = 1.00e-08
  Density threshold  = 1.00e-08
  Integral threshold = 0.00e+00

  ==> Primary Basis <==

  Basis Set: 6-311G**
    Blend: 6-311G**
    Number of shells: 32
    Number of basis function: 60
    Number of Cartesian functions: 62
    Spherical Harmonics?: true
    Max angular momentum: 2

   => Loading Basis Set <=

    Name: (6-311G** AUX)
    Role: JKFIT
    Keyword: DF_BASIS_SCF
    atoms 1   entry O          line   229 file /home/bdw2292/miniconda3/envs/p4env/share/psi4/basis/cc-pvtz-jkfit.gbs 
    atoms 2   entry C          line   125 file /home/bdw2292/miniconda3/envs/p4env/share/psi4/basis/cc-pvtz-jkfit.gbs 
    atoms 3-6 entry H          line    51 file /home/bdw2292/miniconda3/envs/p4env/share/psi4/basis/cc-pvtz-jkfit.gbs 

  ==> Pre-Iterations <==

   -------------------------------------------------------
    Irrep   Nso     Nmo     Nalpha   Nbeta   Ndocc  Nsocc
   -------------------------------------------------------
     A         60      60       0       0       0       0
   -------------------------------------------------------
    Total      60      60       9       9       9       0
   -------------------------------------------------------

  ==> Integral Setup <==

  DFHelper Memory: AOs need 0.009 GiB; user supplied 0.489 GiB. Using in-core AOs.

  ==> MemDFJK: Density-Fitted J/K Matrices <==

    J tasked:                   Yes
    K tasked:                   Yes
    wK tasked:                   No
    OpenMP threads:               1
    Memory [MiB]:               500
    Algorithm:                 Core
    Schwarz Cutoff:           1E-12
    Mask sparsity (%):       0.0000
    Fitting Condition:        1E-10

   => Auxiliary Basis Set <=

  Basis Set: (6-311G** AUX)
    Blend: CC-PVTZ-JKFIT
    Number of shells: 90
    Number of basis function: 278
    Number of Cartesian functions: 332
    Spherical Harmonics?: true
    Max angular momentum: 4

  Minimum eigenvalue in the overlap matrix is 9.0122950546E-03.
  Using Symmetric Orthogonalization.

  SCF Guess: Superposition of Atomic Densities via on-the-fly atomic UHF.

  ==> Iterations <==

                           Total Energy        Delta E     RMS |[F,P]|

   @DF-RHF iter SAD:  -114.39756201854027   -1.14398e+02   0.00000e+00 
   @DF-RHF iter   1:  -115.00247793694143   -6.04916e-01   6.39020e-03 DIIS
   @DF-RHF iter   2:  -115.05839306722203   -5.59151e-02   3.52646e-03 DIIS
   @DF-RHF iter   3:  -115.07327571420336   -1.48826e-02   5.68999e-04 DIIS
   @DF-RHF iter   4:  -115.07413425257489   -8.58538e-04   1.57973e-04 DIIS
   @DF-RHF iter   5:  -115.07419884275997   -6.45902e-05   3.91720e-05 DIIS
   @DF-RHF iter   6:  -115.07420292345640   -4.08070e-06   8.47219e-06 DIIS
   @DF-RHF iter   7:  -115.07420324204539   -3.18589e-07   1.97930e-06 DIIS
   @DF-RHF iter   8:  -115.07420326155446   -1.95091e-08   3.63500e-07 DIIS
   @DF-RHF iter   9:  -115.07420326220452   -6.50061e-10   7.02698e-08 DIIS
   @DF-RHF iter  10:  -115.07420326222865   -2.41300e-11   1.93070e-08 DIIS
   @DF-RHF iter  11:  -115.07420326223021   -1.56319e-12   3.50465e-09 DIIS
  Energy and wave function converged.


  ==> Post-Iterations <==

    Orbital Energies [Eh]
    ---------------------

    Doubly Occupied:                                                      

       1A    -20.545905     2A    -11.270602     3A     -1.348270  
       4A     -0.921373     5A     -0.683605     6A     -0.615551  
       7A     -0.586510     8A     -0.499826     9A     -0.446662  

    Virtual:                                                              

      10A      0.153292    11A      0.187486    12A      0.225317  
      13A      0.231317    14A      0.341496    15A      0.454251  
      16A      0.478894    17A      0.578474    18A      0.679958  
      19A      0.725884    20A      0.784494    21A      0.797064  
      22A      0.899888    23A      1.023756    24A      1.052509  
      25A      1.113448    26A      1.314407    27A      1.388272  
      28A      1.597728    29A      1.619379    30A      1.712260  
      31A      1.717514    32A      1.737215    33A      1.740913  
      34A      1.870036    35A      1.937699    36A      2.039535  
      37A      2.254340    38A      2.291548    39A      2.393994  
      40A      2.470559    41A      2.612185    42A      2.648221  
      43A      2.708165    44A      2.798925    45A      2.819191  
      46A      2.902368    47A      3.096774    48A      3.301015  
      49A      3.468091    50A      3.591387    51A      3.673003  
      52A      4.062454    53A      4.159875    54A      4.299625  
      55A      4.367588    56A      5.406274    57A      5.786095  
      58A      6.184054    59A     25.015466    60A     51.573120  

    Final Occupation by Irrep:
              A 
    DOCC [     9 ]

  @DF-RHF Final Energy:  -115.07420326223021

   => Energetics <=

    Nuclear Repulsion Energy =             40.2043516074919296
    One-Electron Energy =                -236.7205008864328022
    Two-Electron Energy =                  81.4419460167106593
    Total Energy =                       -115.0742032622302133

Computation Completed


Properties will be evaluated at   0.000000,   0.000000,   0.000000 [a0]

Properties computed using the SCF density matrix

  Nuclear Dipole Moment: [e a0]
     X:    -2.1776      Y:    -0.6954      Z:    -0.2354

  Electronic Dipole Moment: [e a0]
     X:     1.7352      Y:     0.1182      Z:     0.0400

  Dipole Moment: [e a0]
     X:    -0.4425      Y:    -0.5772      Z:    -0.1954     Total:     0.7531

  Dipole Moment: [D]
     X:    -1.1246      Y:    -1.4671      Z:    -0.4966     Total:     1.9141


*** tstop() called on bme-nova.bme.utexas.edu at Sun Dec 29 14:03:22 2019
Module time:
	user time   =       0.97 seconds =       0.02 minutes
	system time =       0.02 seconds =       0.00 minutes
	total time  =          1 seconds =       0.02 minutes
Total time:
	user time   =       0.97 seconds =       0.02 minutes
	system time =       0.02 seconds =       0.00 minutes
	total time  =          1 seconds =       0.02 minutes

*** tstart() called on bme-nova.bme.utexas.edu
*** at Sun Dec 29 14:03:22 2019


  //>>>>>>>>>>>>>>>>>>>>>>>>>>>>>>>>>>>//
  //               DFMP2               //
  //<<<<<<<<<<<<<<<<<<<<<<<<<<<<<<<<<<<//

   => Loading Basis Set <=

    Name: (6-311G** AUX)
    Role: RIFIT
    Keyword: DF_BASIS_MP2
    atoms 1   entry O          line   305 file /home/bdw2292/miniconda3/envs/p4env/share/psi4/basis/cc-pvtz-ri.gbs 
    atoms 2   entry C          line   209 file /home/bdw2292/miniconda3/envs/p4env/share/psi4/basis/cc-pvtz-ri.gbs 
    atoms 3-6 entry H          line    19 file /home/bdw2292/miniconda3/envs/p4env/share/psi4/basis/cc-pvtz-ri.gbs 

	 --------------------------------------------------------
	                          DF-MP2                         
	      2nd-Order Density-Fitted Moller-Plesset Theory     
	              RMP2 Wavefunction,   1 Threads             
	                                                         
	        Rob Parrish, Justin Turney, Andy Simmonett,      
	           Ed Hohenstein, and C. David Sherrill          
	 --------------------------------------------------------

   => Auxiliary Basis Set <=

  Basis Set: (6-311G** AUX)
    Blend: CC-PVTZ-RI
    Number of shells: 86
    Number of basis function: 282
    Number of Cartesian functions: 342
    Spherical Harmonics?: true
    Max angular momentum: 4

	 --------------------------------------------------------
	                 NBF =    60, NAUX =   282
	 --------------------------------------------------------
	   CLASS    FOCC     OCC    AOCC    AVIR     VIR    FVIR
	   PAIRS       2       9       7      51      51       0
	 --------------------------------------------------------

	-----------------------------------------------------------
	 ==================> DF-MP2 Energies <==================== 
	-----------------------------------------------------------
	 Reference Energy          =    -115.0742032622302133 [Eh]
	 Singles Energy            =      -0.0000000000000000 [Eh]
	 Same-Spin Energy          =      -0.0852784834981884 [Eh]
	 Opposite-Spin Energy      =      -0.2766674208788188 [Eh]
	 Correlation Energy        =      -0.3619459043770072 [Eh]
	 Total Energy              =    -115.4361491666072226 [Eh]
	-----------------------------------------------------------
	 ================> DF-SCS-MP2 Energies <================== 
	-----------------------------------------------------------
	 SCS Same-Spin Scale       =       0.3333333333333333 [-]
	 SCS Opposite-Spin Scale   =       1.2000000000000000 [-]
	 SCS Same-Spin Energy      =      -0.0284261611660628 [Eh]
	 SCS Opposite-Spin Energy  =      -0.3320009050545826 [Eh]
	 SCS Correlation Energy    =      -0.3604270662206454 [Eh]
	 SCS Total Energy          =    -115.4346303284508650 [Eh]
	-----------------------------------------------------------


*** tstop() called on bme-nova.bme.utexas.edu at Sun Dec 29 14:03:22 2019
Module time:
	user time   =       0.22 seconds =       0.00 minutes
	system time =       0.01 seconds =       0.00 minutes
	total time  =          0 seconds =       0.00 minutes
Total time:
	user time   =       1.19 seconds =       0.02 minutes
	system time =       0.03 seconds =       0.00 minutes
	total time  =          1 seconds =       0.02 minutes
                                     G D M A

                                 by Anthony Stone

                           version 2.2.06, 22 June 2011

               Distributed Multipoles from Gaussian wavefunctions


Starting at 14:3:22 on 29 Dec 2019  


Using CC density matrix from file methanol-dma.default.1664.fchk


                         Distributed Multipole Analysis

Standard DMA for products of primitives with exponent greater than 4.00000
Using 80-point Euler-MacLaurin radial quadrature
Using 590-point Lebedev quadrature
Becke smoothing parameter = 3

Positions and radii in angstrom
Multipole moments in atomic units, ea_0^k for rank k

O          x =  0.693690  y =  0.037165  z =  0.012584 angstrom
           Maximum rank =  2   Radius =  0.650 angstrom
                   Q00  =  -0.447380
|Q1| =   0.384946  Q10  =  -0.108823  Q11c =  -0.181590  Q11s =  -0.321506
|Q2| =   0.981732  Q20  =  -0.733733  Q21c =  -0.150199  Q21s =   0.422572
                   Q22c =   0.165431  Q22s =  -0.443779

C          x = -0.729241  y =  0.012777  z =  0.004320 angstrom
           Maximum rank =  2   Radius =  0.650 angstrom
                   Q00  =   0.053658
|Q1| =   0.143575  Q10  =   0.016044  Q11c =   0.134574  Q11s =   0.047396
|Q2| =   0.134863  Q20  =  -0.045111  Q21c =   0.021269  Q21s =  -0.011348
                   Q22c =   0.107815  Q22s =   0.062831

H          x = -1.136719  y = -0.738656  z =  0.691357 angstrom
           Maximum rank =  2   Radius =  0.325 angstrom
                   Q00  =   0.049721
|Q1| =   0.134686  Q10  =  -0.074180  Q11c =   0.070712  Q11s =   0.087393
|Q2| =   0.169345  Q20  =  -0.006170  Q21c =  -0.060591  Q21s =  -0.142486
                   Q22c =  -0.010628  Q22s =   0.067479

H          x = -1.136708  y = -0.166886  z = -0.997879 angstrom
           Maximum rank =  2   Radius =  0.325 angstrom
                   Q00  =   0.049722
|Q1| =   0.134686  Q10  =   0.112011  Q11c =   0.070710  Q11s =   0.024372
|Q2| =   0.169345  Q20  =   0.119721  Q21c =   0.089117  Q21s =   0.047644
                   Q22c =   0.062053  Q22s =   0.016804

H          x = -1.053311  y =  0.998093  z =  0.337827 angstrom
           Maximum rank =  2   Radius =  0.325 angstrom
                   Q00  =   0.067771
|Q1| =   0.127175  Q10  =  -0.033319  Q11c =   0.073301  Q11s =  -0.098439
|Q2| =   0.169157  Q20  =  -0.095692  Q21c =  -0.022050  Q21s =   0.093111
                   Q22c =  -0.077829  Q22s =  -0.065146

H          x =  1.000320  y = -0.834513  z = -0.282457 angstrom
           Maximum rank =  2   Radius =  0.325 angstrom
                   Q00  =   0.226508
|Q1| =   0.041838  Q10  =   0.009536  Q11c =  -0.029422  Q11s =   0.028175
|Q2| =   0.159432  Q20  =  -0.085200  Q21c =  -0.028309  Q21s =   0.080320
                   Q22c =  -0.062542  Q22s =  -0.083639

Total multipoles referred to origin at
           x =   0.000000,  y =    0.000000,  z =    0.000000 angstrom
                   Q00  =   0.000000
|Q1| =   0.753055  Q10  =  -0.195370  Q11c =  -0.442457  Q11s =  -0.577195
|Q2| =   3.007777  Q20  =  -0.743462  Q21c =  -0.862123  Q21s =   0.795666
                   Q22c =  -0.793756  Q22s =  -2.547076

Finished at 14:3:27 on 29 Dec 2019  

  DMA results are available in the Python driver through the
	  variable('DMA DISTRIBUTED MULTIPOLES')
  and
	  variable('DMA TOTAL MULTIPOLES')
  commands.


    Psi4 stopped on: Sunday, 29 December 2019 02:03PM
    Psi4 wall time for execution: 0:00:06.82

*** Psi4 exiting successfully. Buy a developer a beer!
