
    -----------------------------------------------------------------------
          Psi4: An Open-Source Ab Initio Electronic Structure Package
                               Psi4 1.3.2 release

                         Git: Rev {HEAD} ecbda83 


    R. M. Parrish, L. A. Burns, D. G. A. Smith, A. C. Simmonett,
    A. E. DePrince III, E. G. Hohenstein, U. Bozkaya, A. Yu. Sokolov,
    R. Di Remigio, R. M. Richard, J. F. Gonthier, A. M. James,
    H. R. McAlexander, A. Kumar, M. Saitow, X. Wang, B. P. Pritchard,
    P. Verma, H. F. Schaefer III, K. Patkowski, R. A. King, E. F. Valeev,
    F. A. Evangelista, J. M. Turney, T. D. Crawford, and C. D. Sherrill,
    J. Chem. Theory Comput. 13(7) pp 3185--3197 (2017).
    (doi: 10.1021/acs.jctc.7b00174)


                         Additional Contributions by
    P. Kraus, H. Kruse, M. H. Lechner, M. C. Schieber, R. A. Shaw,
    A. Alenaizan, R. Galvelis, Z. L. Glick, S. Lehtola, and J. P. Misiewicz

    -----------------------------------------------------------------------


    Psi4 started on: Sunday, 29 December 2019 02:03PM

    Process ID: 1642
    Host:       bme-nova.bme.utexas.edu
    PSIDATADIR: /home/bdw2292/miniconda3/envs/p4env/share/psi4
    Memory:     500.0 MiB
    Threads:    1
    
  ==> Input File <==

--------------------------------------------------------------------------
molecule { 
0 1
 O    0.707900    0.000000    0.000000
 C   -0.707900    0.000000    0.000000
 H   -1.073200   -0.769000    0.685200
 H   -1.073100   -0.194700   -1.011300
 H   -1.063200    0.978600    0.331200
 H    0.993600   -0.880400   -0.298000
}
memory 700MB
set_num_threads(1)
psi4_io.set_default_path("/scratch/bdw2292")
optimize('mp2/6-31G*')
clean()
--------------------------------------------------------------------------

  Memory set to 667.572 MiB by Python driver.
  Threads set to 1 by Python driver.
gradient() will perform analytic gradient computation.
    SCF Algorithm Type (re)set to DF.

*** tstart() called on bme-nova.bme.utexas.edu
*** at Sun Dec 29 14:03:15 2019

   => Loading Basis Set <=

    Name: 6-31G*
    Role: ORBITAL
    Keyword: BASIS
    atoms 1   entry O          line   145 file /home/bdw2292/miniconda3/envs/p4env/share/psi4/basis/6-31gs.gbs 
    atoms 2   entry C          line   111 file /home/bdw2292/miniconda3/envs/p4env/share/psi4/basis/6-31gs.gbs 
    atoms 3-6 entry H          line    44 file /home/bdw2292/miniconda3/envs/p4env/share/psi4/basis/6-31gs.gbs 


         ---------------------------------------------------------
                                   SCF
               by Justin Turney, Rob Parrish, Andy Simmonett
                          and Daniel G. A. Smith
                              RHF Reference
                        1 Threads,    667 MiB Core
         ---------------------------------------------------------

  ==> Geometry <==

    Molecular point group: c1
    Full point group: C1

    Geometry (in Angstrom), charge = 0, multiplicity = 1:

       Center              X                  Y                   Z               Mass       
    ------------   -----------------  -----------------  -----------------  -----------------
         O            0.689328945789     0.027236205472     0.009217197669    15.994914619570
         C           -0.726471054211     0.027236205472     0.009217197669    12.000000000000
         H           -1.091771054211    -0.741763794528     0.694417197669     1.007825032230
         H           -1.091671054211    -0.167463794528    -1.002082802331     1.007825032230
         H           -1.081771054211     1.005836205472     0.340417197669     1.007825032230
         H            0.975028945789    -0.853163794528    -0.288782802331     1.007825032230

  Running in c1 symmetry.

  Rotational constants: A =      4.20880  B =      0.83692  C =      0.80601 [cm^-1]
  Rotational constants: A = 126176.55822  B =  25090.13272  C =  24163.65944 [MHz]
  Nuclear repulsion =   40.366253650077262

  Charge       = 0
  Multiplicity = 1
  Electrons    = 18
  Nalpha       = 9
  Nbeta        = 9

  ==> Algorithm <==

  SCF Algorithm Type is DF.
  DIIS enabled.
  MOM disabled.
  Fractional occupation disabled.
  Guess Type is SAD.
  Energy threshold   = 1.00e-10
  Density threshold  = 1.00e-10
  Integral threshold = 0.00e+00

  ==> Primary Basis <==

  Basis Set: 6-31G*
    Blend: 6-31G*
    Number of shells: 20
    Number of basis function: 38
    Number of Cartesian functions: 38
    Spherical Harmonics?: false
    Max angular momentum: 2

   => Loading Basis Set <=

    Name: (6-31G* AUX)
    Role: JKFIT
    Keyword: DF_BASIS_SCF
    atoms 1   entry O          line   221 file /home/bdw2292/miniconda3/envs/p4env/share/psi4/basis/cc-pvdz-jkfit.gbs 
    atoms 2   entry C          line   121 file /home/bdw2292/miniconda3/envs/p4env/share/psi4/basis/cc-pvdz-jkfit.gbs 
    atoms 3-6 entry H          line    51 file /home/bdw2292/miniconda3/envs/p4env/share/psi4/basis/cc-pvdz-jkfit.gbs 

  ==> Pre-Iterations <==

   -------------------------------------------------------
    Irrep   Nso     Nmo     Nalpha   Nbeta   Ndocc  Nsocc
   -------------------------------------------------------
     A         38      38       0       0       0       0
   -------------------------------------------------------
    Total      38      38       9       9       9       0
   -------------------------------------------------------

  ==> Integral Setup <==

  DFHelper Memory: AOs need 0.004 GiB; user supplied 0.489 GiB. Using in-core AOs.

  ==> MemDFJK: Density-Fitted J/K Matrices <==

    J tasked:                   Yes
    K tasked:                   Yes
    wK tasked:                   No
    OpenMP threads:               1
    Memory [MiB]:               500
    Algorithm:                 Core
    Schwarz Cutoff:           1E-12
    Mask sparsity (%):       0.0000
    Fitting Condition:        1E-10

   => Auxiliary Basis Set <=

  Basis Set: (6-31G* AUX)
    Blend: CC-PVDZ-JKFIT
    Number of shells: 84
    Number of basis function: 262
    Number of Cartesian functions: 262
    Spherical Harmonics?: false
    Max angular momentum: 3

  Minimum eigenvalue in the overlap matrix is 9.4826357675E-03.
  Using Symmetric Orthogonalization.

  SCF Guess: Superposition of Atomic Densities via on-the-fly atomic UHF.

  ==> Iterations <==

                           Total Energy        Delta E     RMS |[F,P]|

   @DF-RHF iter SAD:  -114.38302404584742   -1.14383e+02   0.00000e+00 
   @DF-RHF iter   1:  -114.97095674251288   -5.87933e-01   9.38406e-03 DIIS
   @DF-RHF iter   2:  -115.02007181320970   -4.91151e-02   5.09763e-03 DIIS
   @DF-RHF iter   3:  -115.03303098154618   -1.29592e-02   7.78308e-04 DIIS
   @DF-RHF iter   4:  -115.03365776024330   -6.26779e-04   1.85008e-04 DIIS
   @DF-RHF iter   5:  -115.03369314510452   -3.53849e-05   4.94494e-05 DIIS
   @DF-RHF iter   6:  -115.03369568683266   -2.54173e-06   1.12723e-05 DIIS
   @DF-RHF iter   7:  -115.03369589691668   -2.10084e-07   2.35584e-06 DIIS
   @DF-RHF iter   8:  -115.03369590824531   -1.13286e-08   4.22344e-07 DIIS
   @DF-RHF iter   9:  -115.03369590860993   -3.64622e-10   9.16831e-08 DIIS
   @DF-RHF iter  10:  -115.03369590862665   -1.67262e-11   2.21158e-08 DIIS
   @DF-RHF iter  11:  -115.03369590862778   -1.12266e-12   3.39977e-09 DIIS
   @DF-RHF iter  12:  -115.03369590862765    1.27898e-13   4.88595e-10 DIIS
   @DF-RHF iter  13:  -115.03369590862761    4.26326e-14   7.91037e-11 DIIS
  Energy and wave function converged.


  ==> Post-Iterations <==

    Orbital Energies [Eh]
    ---------------------

    Doubly Occupied:                                                      

       1A    -20.557030     2A    -11.270985     3A     -1.349432  
       4A     -0.920547     5A     -0.682016     6A     -0.620312  
       7A     -0.591005     8A     -0.496665     9A     -0.442722  

    Virtual:                                                              

      10A      0.220862    11A      0.278607    12A      0.322416  
      13A      0.325714    14A      0.378837    15A      0.768556  
      16A      0.773617    17A      0.791069    18A      1.044619  
      19A      1.128701    20A      1.138409    21A      1.175129  
      22A      1.204104    23A      1.250389    24A      1.273683  
      25A      1.411036    26A      1.718615    27A      1.769387  
      28A      1.869110    29A      2.040570    30A      2.395273  
      31A      2.426037    32A      2.503729    33A      2.693334  
      34A      2.717550    35A      2.779275    36A      3.158530  
      37A      4.120595    38A      4.638733  

    Final Occupation by Irrep:
              A 
    DOCC [     9 ]

  @DF-RHF Final Energy:  -115.03369590862761

   => Energetics <=

    Nuclear Repulsion Energy =             40.3662536500772617
    One-Electron Energy =                -236.9384720403179188
    Two-Electron Energy =                  81.5385224816130574
    Total Energy =                       -115.0336959086276067

Computation Completed


Properties will be evaluated at   0.000000,   0.000000,   0.000000 [a0]

Properties computed using the SCF density matrix

  Nuclear Dipole Moment: [e a0]
     X:    -2.1437      Y:    -0.7091      Z:    -0.2400

  Electronic Dipole Moment: [e a0]
     X:     1.6841      Y:     0.1259      Z:     0.0425

  Dipole Moment: [e a0]
     X:    -0.4596      Y:    -0.5833      Z:    -0.1975     Total:     0.7684

  Dipole Moment: [D]
     X:    -1.1681      Y:    -1.4825      Z:    -0.5019     Total:     1.9530


*** tstop() called on bme-nova.bme.utexas.edu at Sun Dec 29 14:03:16 2019
Module time:
	user time   =       0.80 seconds =       0.01 minutes
	system time =       0.02 seconds =       0.00 minutes
	total time  =          1 seconds =       0.02 minutes
Total time:
	user time   =       0.80 seconds =       0.01 minutes
	system time =       0.02 seconds =       0.00 minutes
	total time  =          1 seconds =       0.02 minutes

*** tstart() called on bme-nova.bme.utexas.edu
*** at Sun Dec 29 14:03:16 2019


  //>>>>>>>>>>>>>>>>>>>>>>>>>>>>>>>>>>>//
  //               DFMP2               //
  //<<<<<<<<<<<<<<<<<<<<<<<<<<<<<<<<<<<//

   => Loading Basis Set <=

    Name: (6-31G* AUX)
    Role: RIFIT
    Keyword: DF_BASIS_MP2
    atoms 1   entry O          line   235 file /home/bdw2292/miniconda3/envs/p4env/share/psi4/basis/cc-pvdz-ri.gbs 
    atoms 2   entry C          line   159 file /home/bdw2292/miniconda3/envs/p4env/share/psi4/basis/cc-pvdz-ri.gbs 
    atoms 3-6 entry H          line    19 file /home/bdw2292/miniconda3/envs/p4env/share/psi4/basis/cc-pvdz-ri.gbs 

	 --------------------------------------------------------
	                          DF-MP2                         
	      2nd-Order Density-Fitted Moller-Plesset Theory     
	              RMP2 Wavefunction,   1 Threads             
	                                                         
	        Rob Parrish, Justin Turney, Andy Simmonett,      
	           Ed Hohenstein, and C. David Sherrill          
	 --------------------------------------------------------

   => Auxiliary Basis Set <=

  Basis Set: (6-31G* AUX)
    Blend: CC-PVDZ-RI
    Number of shells: 60
    Number of basis function: 168
    Number of Cartesian functions: 192
    Spherical Harmonics?: true
    Max angular momentum: 3

	 --------------------------------------------------------
	                 NBF =    38, NAUX =   168
	 --------------------------------------------------------
	   CLASS    FOCC     OCC    AOCC    AVIR     VIR    FVIR
	   PAIRS       0       9       9      29      29       0
	 --------------------------------------------------------

  DFHelper Memory: AOs need 0.004 GiB; user supplied 0.489 GiB. Using in-core AOs.


         ------------------------------------------------------------
                                     CPHF                           
                                  Rob Parrish                       
         ------------------------------------------------------------

  ==> Geometry <==

    Molecular point group: c1
    Full point group: C1

    Geometry (in Angstrom), charge = 0, multiplicity = 1:

       Center              X                  Y                   Z               Mass       
    ------------   -----------------  -----------------  -----------------  -----------------
         O            0.689328945789     0.027236205472     0.009217197669    15.994914619570
         C           -0.726471054211     0.027236205472     0.009217197669    12.000000000000
         H           -1.091771054211    -0.741763794528     0.694417197669     1.007825032230
         H           -1.091671054211    -0.167463794528    -1.002082802331     1.007825032230
         H           -1.081771054211     1.005836205472     0.340417197669     1.007825032230
         H            0.975028945789    -0.853163794528    -0.288782802331     1.007825032230

  Nuclear repulsion =   40.366253650077262
  Reference energy  = -115.033695908627607

  ==> Basis Set <==

  Basis Set: 6-31G*
    Blend: 6-31G*
    Number of shells: 20
    Number of basis function: 38
    Number of Cartesian functions: 38
    Spherical Harmonics?: false
    Max angular momentum: 2

  ==> CGRSolver (by Rob Parrish) <==

   Number of roots    =         1
   Preconditioning    =    JACOBI
   Convergence cutoff =     1E-06
   Maximum iterations =       100

  ==> CPHFRHamiltonian (by Rob Parrish) <== 

  ==> MemDFJK: Density-Fitted J/K Matrices <==

    J tasked:                   Yes
    K tasked:                   Yes
    wK tasked:                   No
    OpenMP threads:               1
    Memory [MiB]:               500
    Algorithm:                 Core
    Schwarz Cutoff:           1E-12
    Mask sparsity (%):       0.0000
    Fitting Condition:        1E-10

   => Auxiliary Basis Set <=

  Basis Set: (6-31G* AUX)
    Blend: CC-PVDZ-JKFIT
    Number of shells: 84
    Number of basis function: 262
    Number of Cartesian functions: 262
    Spherical Harmonics?: false
    Max angular momentum: 3

  ==> CPHF Iterations <==

  => Iterations <=

             Iter  Converged  Remaining    Residual
  CGR           1          0          1   8.226E-02
  CGR           2          0          1   1.796E-02
  CGR           3          0          1   6.497E-03
  CGR           4          0          1   9.556E-04
  CGR           5          0          1   2.193E-04
  CGR           6          0          1   4.157E-05
  CGR           7          0          1   9.075E-06
  CGR           8          1          0   9.173E-07

    CGRSolver converged.

  ==> DFCorrGrad: Density-Fitted Correlated Gradients <==

    OpenMP threads:              1
    Integrals threads:           1
    Memory [GiB]:            0.489
    Schwarz Cutoff:          0E+00
    Fitting Condition:       1E-10

   => Auxiliary Basis Set <=

  Basis Set: (6-31G* AUX)
    Blend: CC-PVDZ-JKFIT
    Number of shells: 84
    Number of basis function: 262
    Number of Cartesian functions: 262
    Spherical Harmonics?: false
    Max angular momentum: 3

	-----------------------------------------------------------
	 ==================> DF-MP2 Energies <==================== 
	-----------------------------------------------------------
	 Reference Energy          =    -115.0336959086276067 [Eh]
	 Singles Energy            =      -0.0000000000000000 [Eh]
	 Same-Spin Energy          =      -0.0777726037312973 [Eh]
	 Opposite-Spin Energy      =      -0.2406954049108093 [Eh]
	 Correlation Energy        =      -0.3184680086421066 [Eh]
	 Total Energy              =    -115.3521639172697064 [Eh]
	-----------------------------------------------------------
	 ================> DF-SCS-MP2 Energies <================== 
	-----------------------------------------------------------
	 SCS Same-Spin Scale       =       0.3333333333333333 [-]
	 SCS Opposite-Spin Scale   =       1.2000000000000000 [-]
	 SCS Same-Spin Energy      =      -0.0259242012437658 [Eh]
	 SCS Opposite-Spin Energy  =      -0.2888344858929712 [Eh]
	 SCS Correlation Energy    =      -0.3147586871367369 [Eh]
	 SCS Total Energy          =    -115.3484545957643377 [Eh]
	-----------------------------------------------------------


  -Total Gradient:
     Atom            X                  Y                   Z
    ------   -----------------  -----------------  -----------------
       1       -0.009831580632    -0.004232650008    -0.001437362001
       2       -0.001346716206     0.006241270443     0.002047437121
       3        0.007085292590    -0.000135562703    -0.000410899113
       4        0.007119954159    -0.000336496215     0.000326005238
       5       -0.003847422458     0.001403951800     0.000470035035
       6        0.000820472546    -0.002940513317    -0.000995216280


*** tstop() called on bme-nova.bme.utexas.edu at Sun Dec 29 14:03:16 2019
Module time:
	user time   =       0.74 seconds =       0.01 minutes
	system time =       0.01 seconds =       0.00 minutes
	total time  =          0 seconds =       0.00 minutes
Total time:
	user time   =       1.54 seconds =       0.03 minutes
	system time =       0.03 seconds =       0.00 minutes
	total time  =          1 seconds =       0.02 minutes

			-----------------------------------------
			 OPTKING 2.0: for geometry optimizations 
			  - R.A. King,  Bethel University        
			-----------------------------------------

	Internal coordinates to be generated automatically.
	Detected frag 1 with atoms:  1 2 3 4 5 6
	---Fragment 1 Bond Connectivity---
	 1 : 2 6
	 2 : 1 3 4 5
	 3 : 2
	 4 : 2
	 5 : 2
	 6 : 1

	---Fragment 1 Geometry and Gradient---
	 O           1.3026429179        0.0514689690        0.0174179792
	 C          -1.3728313305        0.0514689690        0.0174179792
	 H          -2.0631482842       -1.4017304214        1.3122583204
	 H          -2.0629593115       -0.3164607076       -1.8936620514
	 H          -2.0442510229        1.9007549554        0.6432952720
	 H           1.8425376719       -1.6122459118       -0.5457204061
	            -0.0098315806       -0.0042326500       -0.0014373620
	            -0.0013467162        0.0062412704        0.0020474371
	             0.0070852926       -0.0001355627       -0.0004108991
	             0.0071199542       -0.0003364962        0.0003260052
	            -0.0038474225        0.0014039518        0.0004700350
	             0.0008204725       -0.0029405133       -0.0009952163

	Previous optimization step data not found.  Starting new optimization.

	---Fragment 1 Intrafragment Coordinates---
	 - Coordinate -           - BOHR/RAD -       - ANG/DEG -
	 R(1,2)           =         2.675474	       1.415800
	 R(1,6)           =         1.837541	       0.972385
	 R(2,3)           =         2.065173	       1.092842
	 R(2,4)           =         2.064915	       1.092706
	 R(2,5)           =         2.064555	       1.092515
	 B(1,2,3)         =         1.911623	     109.527910
	 B(1,2,4)         =         1.911570	     109.524876
	 B(1,2,5)         =         1.902033	     108.978472
	 B(2,1,6)         =         1.869010	     107.086413
	 B(3,2,4)         =         1.921097	     110.070768
	 B(3,2,5)         =         1.908708	     109.360899
	 B(4,2,5)         =         1.908668	     109.358641
	 D(3,2,1,6)       =         1.054213	      60.401971
	 D(4,2,1,6)       =        -1.054221	     -60.402435
	 D(5,2,1,6)       =        -3.141557	    -179.997952

	Current energy   :      -115.3521639173

	Generating empirical Hessian (Schlegel '84) for each fragment.
	Taking RFO optimization step.
	Going to follow RFO solution 1.
	Using RFO vector 1.
	Norm of target step-size    0.12508
	Projected energy change by RFO approximation:         0.0006026494

	Back-transformation to cartesian coordinates...
	Could not converge backtransformation.
	Using first guess instead.

	--- Internal Coordinate Step in ANG or DEG, aJ/ANG or AJ/DEG ---
	 ---------------------------------------------------------------------------
	   Coordinate                Previous        Force       Change         New 
	   ----------                --------       ------       ------       ------
	    1 R(1,2)          =      1.415800     0.074240     0.011457     1.427257
	    2 R(1,6)          =      0.972385    -0.026433    -0.002842     0.969543
	    3 R(2,3)          =      1.092842     0.020849     0.005461     1.098303
	    4 R(2,4)          =      1.092706     0.021597     0.005600     1.098306
	    5 R(2,5)          =      1.092515    -0.021843    -0.003265     1.089250
	    6 B(1,2,3)        =    109.527910     0.000741     3.577903   113.105813
	    7 B(1,2,4)        =    109.524876     0.000742     3.582365   113.107241
	    8 B(1,2,5)        =    108.978472    -0.000693    -3.602250   105.376221
	    9 B(2,1,6)        =    107.086413     0.000018     0.099125   107.185537
	   10 B(3,2,4)        =    110.070768    -0.000398    -1.290477   108.780291
	   11 B(3,2,5)        =    109.360899    -0.000199    -1.261510   108.099389
	   12 B(4,2,5)        =    109.358641    -0.000199    -1.257138   108.101503
	   13 D(3,2,1,6)      =     60.401971     0.000050     1.717555    62.119526
	   14 D(4,2,1,6)      =    -60.402435    -0.000050    -1.713596   -62.116031
	   15 D(5,2,1,6)      =   -179.997952    -0.000000    -0.002048  -180.000000
	 ---------------------------------------------------------------------------
	Successfully symmetrized geometry.

  ==> Convergence Check <==

  Measures of convergence in internal coordinates in au.
  Criteria marked as inactive (o), active & met (*), and active & unmet ( ).
  --------------------------------------------------------------------------------------------- ~
   Step     Total Energy     Delta E     MAX Force     RMS Force      MAX Disp      RMS Disp    ~
  --------------------------------------------------------------------------------------------- ~
    Convergence Criteria    1.00e-06 *    3.00e-04 *             o    1.20e-03 *             o  ~
  --------------------------------------------------------------------------------------------- ~
      1    -115.35216392   -1.15e+02      9.75e-03      5.43e-03 o    6.29e-02      3.24e-02 o  ~
  ---------------------------------------------------------------------------------------------

	Writing optimization data to binary file.
	Structure for next step:
	Cartesian Geometry (in Angstrom)
	    O     0.7038756730   0.0387490639   0.0131403617
	    C    -0.7229256231   0.0045933983   0.0015522246
	    H    -1.1418734454  -0.7393384863   0.6924344699
	    H    -1.1418669241  -0.1667935586  -0.9991426010
	    H    -1.0381953911   0.9921766081   0.3358417317
	    H     1.0136593946  -0.8314697898  -0.2814229999
			--------------------------
			 OPTKING Finished Execution 
			--------------------------

    Structure for next step:
    Molecular point group: c1
    Full point group: C1

    Geometry (in Angstrom), charge = 0, multiplicity = 1:

    O            0.695851464496     0.041133031547     0.013935270335
    C           -0.730949837211     0.006977365816     0.002347133221
    H           -1.149897661191    -0.736954521679     0.693229381193
    H           -1.149891139822    -0.164409591728    -0.998347696334
    H           -1.046219606441     0.994560579461     0.336636641674
    H            1.005635187357    -0.829085825526    -0.280628092447

gradient() will perform analytic gradient computation.
    SCF Algorithm Type (re)set to DF.

*** tstart() called on bme-nova.bme.utexas.edu
*** at Sun Dec 29 14:03:16 2019

   => Loading Basis Set <=

    Name: 6-31G*
    Role: ORBITAL
    Keyword: BASIS
    atoms 1   entry O          line   145 file /home/bdw2292/miniconda3/envs/p4env/share/psi4/basis/6-31gs.gbs 
    atoms 2   entry C          line   111 file /home/bdw2292/miniconda3/envs/p4env/share/psi4/basis/6-31gs.gbs 
    atoms 3-6 entry H          line    44 file /home/bdw2292/miniconda3/envs/p4env/share/psi4/basis/6-31gs.gbs 


         ---------------------------------------------------------
                                   SCF
               by Justin Turney, Rob Parrish, Andy Simmonett
                          and Daniel G. A. Smith
                              RHF Reference
                        1 Threads,    667 MiB Core
         ---------------------------------------------------------

  ==> Geometry <==

    Molecular point group: c1
    Full point group: C1

    Geometry (in Angstrom), charge = 0, multiplicity = 1:

       Center              X                  Y                   Z               Mass       
    ------------   -----------------  -----------------  -----------------  -----------------
         O            0.695851464496     0.041133031547     0.013935270335    15.994914619570
         C           -0.730949837211     0.006977365816     0.002347133221    12.000000000000
         H           -1.149897661191    -0.736954521679     0.693229381193     1.007825032230
         H           -1.149891139822    -0.164409591728    -0.998347696334     1.007825032230
         H           -1.046219606441     0.994560579461     0.336636641674     1.007825032230
         H            1.005635187357    -0.829085825526    -0.280628092447     1.007825032230

  Running in c1 symmetry.

  Rotational constants: A =      4.25268  B =      0.81975  C =      0.79091 [cm^-1]
  Rotational constants: A = 127492.07719  B =  24575.35274  C =  23710.82582 [MHz]
  Nuclear repulsion =   40.125968101526041

  Charge       = 0
  Multiplicity = 1
  Electrons    = 18
  Nalpha       = 9
  Nbeta        = 9

  ==> Algorithm <==

  SCF Algorithm Type is DF.
  DIIS enabled.
  MOM disabled.
  Fractional occupation disabled.
  Guess Type is READ.
  Energy threshold   = 1.00e-10
  Density threshold  = 1.00e-10
  Integral threshold = 0.00e+00

  ==> Primary Basis <==

  Basis Set: 6-31G*
    Blend: 6-31G*
    Number of shells: 20
    Number of basis function: 38
    Number of Cartesian functions: 38
    Spherical Harmonics?: false
    Max angular momentum: 2

   => Loading Basis Set <=

    Name: (6-31G* AUX)
    Role: JKFIT
    Keyword: DF_BASIS_SCF
    atoms 1   entry O          line   221 file /home/bdw2292/miniconda3/envs/p4env/share/psi4/basis/cc-pvdz-jkfit.gbs 
    atoms 2   entry C          line   121 file /home/bdw2292/miniconda3/envs/p4env/share/psi4/basis/cc-pvdz-jkfit.gbs 
    atoms 3-6 entry H          line    51 file /home/bdw2292/miniconda3/envs/p4env/share/psi4/basis/cc-pvdz-jkfit.gbs 

   => Loading Basis Set <=

    Name: 6-31G*
    Role: ORBITAL
    Keyword: BASIS
    atoms 1   entry O          line   145 file /home/bdw2292/miniconda3/envs/p4env/share/psi4/basis/6-31gs.gbs 
    atoms 2   entry C          line   111 file /home/bdw2292/miniconda3/envs/p4env/share/psi4/basis/6-31gs.gbs 
    atoms 3-6 entry H          line    44 file /home/bdw2292/miniconda3/envs/p4env/share/psi4/basis/6-31gs.gbs 

  Reading orbitals from file 180, no projection.

  ==> Pre-Iterations <==

   -------------------------------------------------------
    Irrep   Nso     Nmo     Nalpha   Nbeta   Ndocc  Nsocc
   -------------------------------------------------------
     A         38      38       0       0       0       0
   -------------------------------------------------------
    Total      38      38       9       9       9       0
   -------------------------------------------------------

  ==> Integral Setup <==

  DFHelper Memory: AOs need 0.004 GiB; user supplied 0.489 GiB. Using in-core AOs.

  ==> MemDFJK: Density-Fitted J/K Matrices <==

    J tasked:                   Yes
    K tasked:                   Yes
    wK tasked:                   No
    OpenMP threads:               1
    Memory [MiB]:               500
    Algorithm:                 Core
    Schwarz Cutoff:           1E-12
    Mask sparsity (%):       0.0000
    Fitting Condition:        1E-10

   => Auxiliary Basis Set <=

  Basis Set: (6-31G* AUX)
    Blend: CC-PVDZ-JKFIT
    Number of shells: 84
    Number of basis function: 262
    Number of Cartesian functions: 262
    Spherical Harmonics?: false
    Max angular momentum: 3

  Minimum eigenvalue in the overlap matrix is 9.8895186305E-03.
  Using Symmetric Orthogonalization.

  SCF Guess: Orbitals guess was supplied from a previous computation.

  ==> Iterations <==

                           Total Energy        Delta E     RMS |[F,P]|

   @DF-RHF iter   0:  -115.02708681133718   -1.15027e+02   1.60545e-03 
   @DF-RHF iter   1:  -115.03363698918982   -6.55018e-03   2.46465e-04 DIIS
   @DF-RHF iter   2:  -115.03369988710624   -6.28979e-05   1.00093e-04 DIIS
   @DF-RHF iter   3:  -115.03371049341585   -1.06063e-05   5.20632e-05 DIIS
   @DF-RHF iter   4:  -115.03371344302830   -2.94961e-06   7.89047e-06 DIIS
   @DF-RHF iter   5:  -115.03371354608079   -1.03052e-07   1.78121e-06 DIIS
   @DF-RHF iter   6:  -115.03371355145870   -5.37791e-09   5.03251e-07 DIIS
   @DF-RHF iter   7:  -115.03371355178800   -3.29294e-10   1.44808e-07 DIIS
   @DF-RHF iter   8:  -115.03371355182227   -3.42766e-11   2.64696e-08 DIIS
   @DF-RHF iter   9:  -115.03371355182358   -1.30740e-12   4.06331e-09 DIIS
   @DF-RHF iter  10:  -115.03371355182364   -5.68434e-14   6.55315e-10 DIIS
   @DF-RHF iter  11:  -115.03371355182362    1.42109e-14   1.27148e-10 DIIS
   @DF-RHF iter  12:  -115.03371355182357    5.68434e-14   3.01611e-11 DIIS
  Energy and wave function converged.


  ==> Post-Iterations <==

    Orbital Energies [Eh]
    ---------------------

    Doubly Occupied:                                                      

       1A    -20.560825     2A    -11.272667     3A     -1.347500  
       4A     -0.922152     5A     -0.683740     6A     -0.614546  
       7A     -0.584547     8A     -0.500177     9A     -0.446345  

    Virtual:                                                              

      10A      0.223202    11A      0.275647    12A      0.318091  
      13A      0.327464    14A      0.379446    15A      0.759492  
      16A      0.778663    17A      0.785962    18A      1.049216  
      19A      1.121238    20A      1.146459    21A      1.170972  
      22A      1.206057    23A      1.257046    24A      1.265825  
      25A      1.403651    26A      1.723941    27A      1.780690  
      28A      1.855942    29A      2.038162    30A      2.359039  
      31A      2.440223    32A      2.452457    33A      2.674636  
      34A      2.738936    35A      2.784648    36A      3.151095  
      37A      4.112346    38A      4.636777  

    Final Occupation by Irrep:
              A 
    DOCC [     9 ]

  @DF-RHF Final Energy:  -115.03371355182357

   => Energetics <=

    Nuclear Repulsion Energy =             40.1259681015260412
    One-Electron Energy =                -236.4543644915237053
    Two-Electron Energy =                  81.2946828381740971
    Total Energy =                       -115.0337135518235669

Computation Completed


Properties will be evaluated at   0.000000,   0.000000,   0.000000 [a0]

Properties computed using the SCF density matrix

  Nuclear Dipole Moment: [e a0]
     X:    -2.1907      Y:    -0.6897      Z:    -0.2335

  Electronic Dipole Moment: [e a0]
     X:     1.7449      Y:     0.0968      Z:     0.0328

  Dipole Moment: [e a0]
     X:    -0.4458      Y:    -0.5929      Z:    -0.2007     Total:     0.7685

  Dipole Moment: [D]
     X:    -1.1331      Y:    -1.5071      Z:    -0.5102     Total:     1.9533


*** tstop() called on bme-nova.bme.utexas.edu at Sun Dec 29 14:03:17 2019
Module time:
	user time   =       0.37 seconds =       0.01 minutes
	system time =       0.01 seconds =       0.00 minutes
	total time  =          1 seconds =       0.02 minutes
Total time:
	user time   =       1.92 seconds =       0.03 minutes
	system time =       0.04 seconds =       0.00 minutes
	total time  =          2 seconds =       0.03 minutes

*** tstart() called on bme-nova.bme.utexas.edu
*** at Sun Dec 29 14:03:17 2019


  //>>>>>>>>>>>>>>>>>>>>>>>>>>>>>>>>>>>//
  //               DFMP2               //
  //<<<<<<<<<<<<<<<<<<<<<<<<<<<<<<<<<<<//

   => Loading Basis Set <=

    Name: (6-31G* AUX)
    Role: RIFIT
    Keyword: DF_BASIS_MP2
    atoms 1   entry O          line   235 file /home/bdw2292/miniconda3/envs/p4env/share/psi4/basis/cc-pvdz-ri.gbs 
    atoms 2   entry C          line   159 file /home/bdw2292/miniconda3/envs/p4env/share/psi4/basis/cc-pvdz-ri.gbs 
    atoms 3-6 entry H          line    19 file /home/bdw2292/miniconda3/envs/p4env/share/psi4/basis/cc-pvdz-ri.gbs 

	 --------------------------------------------------------
	                          DF-MP2                         
	      2nd-Order Density-Fitted Moller-Plesset Theory     
	              RMP2 Wavefunction,   1 Threads             
	                                                         
	        Rob Parrish, Justin Turney, Andy Simmonett,      
	           Ed Hohenstein, and C. David Sherrill          
	 --------------------------------------------------------

   => Auxiliary Basis Set <=

  Basis Set: (6-31G* AUX)
    Blend: CC-PVDZ-RI
    Number of shells: 60
    Number of basis function: 168
    Number of Cartesian functions: 192
    Spherical Harmonics?: true
    Max angular momentum: 3

	 --------------------------------------------------------
	                 NBF =    38, NAUX =   168
	 --------------------------------------------------------
	   CLASS    FOCC     OCC    AOCC    AVIR     VIR    FVIR
	   PAIRS       0       9       9      29      29       0
	 --------------------------------------------------------

  DFHelper Memory: AOs need 0.004 GiB; user supplied 0.489 GiB. Using in-core AOs.


         ------------------------------------------------------------
                                     CPHF                           
                                  Rob Parrish                       
         ------------------------------------------------------------

  ==> Geometry <==

    Molecular point group: c1
    Full point group: C1

    Geometry (in Angstrom), charge = 0, multiplicity = 1:

       Center              X                  Y                   Z               Mass       
    ------------   -----------------  -----------------  -----------------  -----------------
         O            0.695851464496     0.041133031547     0.013935270335    15.994914619570
         C           -0.730949837211     0.006977365816     0.002347133221    12.000000000000
         H           -1.149897661191    -0.736954521679     0.693229381193     1.007825032230
         H           -1.149891139822    -0.164409591728    -0.998347696334     1.007825032230
         H           -1.046219606441     0.994560579461     0.336636641674     1.007825032230
         H            1.005635187357    -0.829085825526    -0.280628092447     1.007825032230

  Nuclear repulsion =   40.125968101526041
  Reference energy  = -115.033713551823567

  ==> Basis Set <==

  Basis Set: 6-31G*
    Blend: 6-31G*
    Number of shells: 20
    Number of basis function: 38
    Number of Cartesian functions: 38
    Spherical Harmonics?: false
    Max angular momentum: 2

  ==> CGRSolver (by Rob Parrish) <==

   Number of roots    =         1
   Preconditioning    =    JACOBI
   Convergence cutoff =     1E-06
   Maximum iterations =       100

  ==> CPHFRHamiltonian (by Rob Parrish) <== 

  ==> MemDFJK: Density-Fitted J/K Matrices <==

    J tasked:                   Yes
    K tasked:                   Yes
    wK tasked:                   No
    OpenMP threads:               1
    Memory [MiB]:               500
    Algorithm:                 Core
    Schwarz Cutoff:           1E-12
    Mask sparsity (%):       0.0000
    Fitting Condition:        1E-10

   => Auxiliary Basis Set <=

  Basis Set: (6-31G* AUX)
    Blend: CC-PVDZ-JKFIT
    Number of shells: 84
    Number of basis function: 262
    Number of Cartesian functions: 262
    Spherical Harmonics?: false
    Max angular momentum: 3

  ==> CPHF Iterations <==

  => Iterations <=

             Iter  Converged  Remaining    Residual
  CGR           1          0          1   8.362E-02
  CGR           2          0          1   1.869E-02
  CGR           3          0          1   6.682E-03
  CGR           4          0          1   9.797E-04
  CGR           5          0          1   2.230E-04
  CGR           6          0          1   4.194E-05
  CGR           7          0          1   9.485E-06
  CGR           8          0          1   1.006E-06
  CGR           9          1          0   1.948E-07

    CGRSolver converged.

  ==> DFCorrGrad: Density-Fitted Correlated Gradients <==

    OpenMP threads:              1
    Integrals threads:           1
    Memory [GiB]:            0.489
    Schwarz Cutoff:          0E+00
    Fitting Condition:       1E-10

   => Auxiliary Basis Set <=

  Basis Set: (6-31G* AUX)
    Blend: CC-PVDZ-JKFIT
    Number of shells: 84
    Number of basis function: 262
    Number of Cartesian functions: 262
    Spherical Harmonics?: false
    Max angular momentum: 3

	-----------------------------------------------------------
	 ==================> DF-MP2 Energies <==================== 
	-----------------------------------------------------------
	 Reference Energy          =    -115.0337135518235669 [Eh]
	 Singles Energy            =      -0.0000000000000000 [Eh]
	 Same-Spin Energy          =      -0.0779489138570645 [Eh]
	 Opposite-Spin Energy      =      -0.2413241074308523 [Eh]
	 Correlation Energy        =      -0.3192730212879167 [Eh]
	 Total Energy              =    -115.3529865731114796 [Eh]
	-----------------------------------------------------------
	 ================> DF-SCS-MP2 Energies <================== 
	-----------------------------------------------------------
	 SCS Same-Spin Scale       =       0.3333333333333333 [-]
	 SCS Opposite-Spin Scale   =       1.2000000000000000 [-]
	 SCS Same-Spin Energy      =      -0.0259829712856882 [Eh]
	 SCS Opposite-Spin Energy  =      -0.2895889289170227 [Eh]
	 SCS Correlation Energy    =      -0.3155719002027109 [Eh]
	 SCS Total Energy          =    -115.3492854520262796 [Eh]
	-----------------------------------------------------------


  -Total Gradient:
     Atom            X                  Y                   Z
    ------   -----------------  -----------------  -----------------
       1        0.004042775626     0.002150339094     0.000729886124
       2       -0.000221625729    -0.003431554385    -0.001165569579
       3       -0.002089580774     0.000209827171     0.000799912146
       4       -0.002091622352     0.000649647968    -0.000509395963
       5        0.001145577500    -0.000194333010    -0.000063223007
       6       -0.000785524272     0.000616073162     0.000208390279


*** tstop() called on bme-nova.bme.utexas.edu at Sun Dec 29 14:03:17 2019
Module time:
	user time   =       0.78 seconds =       0.01 minutes
	system time =       0.00 seconds =       0.00 minutes
	total time  =          0 seconds =       0.00 minutes
Total time:
	user time   =       2.70 seconds =       0.05 minutes
	system time =       0.04 seconds =       0.00 minutes
	total time  =          2 seconds =       0.03 minutes

			-----------------------------------------
			 OPTKING 2.0: for geometry optimizations 
			  - R.A. King,  Bethel University        
			-----------------------------------------

	Previous internal coordinate definitions found.
	---Fragment 1 Geometry and Gradient---
	 O           1.3149686919        0.0777301643        0.0263338444
	 C          -1.3812950038        0.0131853105        0.0044354390
	 H          -2.1729916520       -1.3926422129        1.3100136726
	 H          -2.1729793284       -0.3106891008       -1.8866037241
	 H          -1.9770685233        1.8794471104        0.6361510566
	 H           1.9003750862       -1.5667451447       -0.5303102378
	             0.0040427756        0.0021503391        0.0007298861
	            -0.0002216257       -0.0034315544       -0.0011655696
	            -0.0020895808        0.0002098272        0.0007999121
	            -0.0020916224        0.0006496480       -0.0005093960
	             0.0011455775       -0.0001943330       -0.0000632230
	            -0.0007855243        0.0006160732        0.0002083903

	---Fragment 1 Intrafragment Coordinates---
	 - Coordinate -           - BOHR/RAD -       - ANG/DEG -
	 R(1,2)           =         2.697125	       1.427257
	 R(1,6)           =         1.832171	       0.969543
	 R(2,3)           =         2.075493	       1.098303
	 R(2,4)           =         2.075497	       1.098306
	 R(2,5)           =         2.058384	       1.089250
	 B(1,2,3)         =         1.974069	     113.105813
	 B(1,2,4)         =         1.974094	     113.107241
	 B(1,2,5)         =         1.839162	     105.376221
	 B(2,1,6)         =         1.870741	     107.185537
	 B(3,2,4)         =         1.898574	     108.780291
	 B(3,2,5)         =         1.886690	     108.099389
	 B(4,2,5)         =         1.886727	     108.101503
	 D(3,2,1,6)       =         1.084190	      62.119526
	 D(4,2,1,6)       =        -1.084129	     -62.116031
	 D(5,2,1,6)       =         3.141593	     180.000000

	Current energy   :      -115.3529865731

	Energy change for the previous step:
		Projected    :         0.0006026494
		Actual       :        -0.0008226558

	Performing BFGS update.
	Previous computed or guess Hessian on step 1.
	Steps to be used in Hessian update: 1
	Taking RFO optimization step.
	Going to follow RFO solution 1.
	Using RFO vector 1.
	Norm of target step-size    0.03182
	Projected energy change by RFO approximation:        -0.0002556395

	Back-transformation to cartesian coordinates...
	Could not converge backtransformation.
	Using first guess instead.

	--- Internal Coordinate Step in ANG or DEG, aJ/ANG or AJ/DEG ---
	 ---------------------------------------------------------------------------
	   Coordinate                Previous        Force       Change         New 
	   ----------                --------       ------       ------       ------
	    1 R(1,2)          =      1.427257    -0.027435    -0.003111     1.424146
	    2 R(1,6)          =      0.969543     0.007145     0.000563     0.970106
	    3 R(2,3)          =      1.098303    -0.009541    -0.001621     1.096682
	    4 R(2,4)          =      1.098306    -0.009562    -0.001623     1.096683
	    5 R(2,5)          =      1.089250     0.004343     0.000452     1.089702
	    6 B(1,2,3)        =    113.105813    -0.000205    -0.776334   112.329479
	    7 B(1,2,4)        =    113.107241    -0.000205    -0.777687   112.329554
	    8 B(1,2,5)        =    105.376221     0.000230     0.939799   106.316021
	    9 B(2,1,6)        =    107.185537     0.000075     0.265309   107.450846
	   10 B(3,2,4)        =    108.780291     0.000076     0.010287   108.790578
	   11 B(3,2,5)        =    108.099389     0.000065     0.359518   108.458907
	   12 B(4,2,5)        =    108.101503     0.000065     0.357871   108.459374
	   13 D(3,2,1,6)      =     62.119526    -0.000026    -0.601717    61.517808
	   14 D(4,2,1,6)      =    -62.116031     0.000026     0.598869   -61.517163
	   15 D(5,2,1,6)      =    180.000000     0.000000     0.000000   180.000000
	 ---------------------------------------------------------------------------
	Successfully symmetrized geometry.

  ==> Convergence Check <==

  Measures of convergence in internal coordinates in au.
  Criteria marked as inactive (o), active & met (*), and active & unmet ( ).
  ---------------------------------------------------------------------------------------------
   Step     Total Energy     Delta E     MAX Force     RMS Force      MAX Disp      RMS Disp   
  ---------------------------------------------------------------------------------------------
    Convergence Criteria    1.00e-06 *    3.00e-04 *             o    1.20e-03 *             o
  ---------------------------------------------------------------------------------------------
      2    -115.35298657   -8.23e-04      3.33e-03      1.76e-03 o    1.64e-02      8.21e-03 o  ~
  ---------------------------------------------------------------------------------------------

	Writing optimization data to binary file.
	Structure for next step:
	Cartesian Geometry (in Angstrom)
	    O     0.6922600517   0.0374617312   0.0126840372
	    C    -0.7316608021   0.0134840315   0.0045559991
	    H    -1.1396665151  -0.7375751471   0.6916900470
	    H    -1.1396536045  -0.1658266813  -0.9974930618
	    H    -1.0563399049   0.9987804741   0.3380585839
	    H     0.9995891914  -0.8341033678  -0.2823229669
			--------------------------
			 OPTKING Finished Execution 
			--------------------------

    Structure for next step:
    Molecular point group: c1
    Full point group: C1

    Geometry (in Angstrom), charge = 0, multiplicity = 1:

    O            0.694184723528     0.036946518939     0.012511431822
    C           -0.729736135846     0.012968819161     0.004383393721
    H           -1.137741850395    -0.738090362461     0.691517444285
    H           -1.137728939827    -0.166341894433    -0.997665671108
    H           -1.054415239870     0.998265265605     0.337885979826
    H            1.001513864450    -0.834618583564    -0.282495573402

gradient() will perform analytic gradient computation.
    SCF Algorithm Type (re)set to DF.

*** tstart() called on bme-nova.bme.utexas.edu
*** at Sun Dec 29 14:03:17 2019

   => Loading Basis Set <=

    Name: 6-31G*
    Role: ORBITAL
    Keyword: BASIS
    atoms 1   entry O          line   145 file /home/bdw2292/miniconda3/envs/p4env/share/psi4/basis/6-31gs.gbs 
    atoms 2   entry C          line   111 file /home/bdw2292/miniconda3/envs/p4env/share/psi4/basis/6-31gs.gbs 
    atoms 3-6 entry H          line    44 file /home/bdw2292/miniconda3/envs/p4env/share/psi4/basis/6-31gs.gbs 


         ---------------------------------------------------------
                                   SCF
               by Justin Turney, Rob Parrish, Andy Simmonett
                          and Daniel G. A. Smith
                              RHF Reference
                        1 Threads,    667 MiB Core
         ---------------------------------------------------------

  ==> Geometry <==

    Molecular point group: c1
    Full point group: C1

    Geometry (in Angstrom), charge = 0, multiplicity = 1:

       Center              X                  Y                   Z               Mass       
    ------------   -----------------  -----------------  -----------------  -----------------
         O            0.694184723528     0.036946518939     0.012511431822    15.994914619570
         C           -0.729736135846     0.012968819161     0.004383393721    12.000000000000
         H           -1.137741850395    -0.738090362461     0.691517444285     1.007825032230
         H           -1.137728939827    -0.166341894433    -0.997665671108     1.007825032230
         H           -1.054415239870     0.998265265605     0.337885979826     1.007825032230
         H            1.001513864450    -0.834618583564    -0.282495573402     1.007825032230

  Running in c1 symmetry.

  Rotational constants: A =      4.24787  B =      0.82381  C =      0.79418 [cm^-1]
  Rotational constants: A = 127347.85783  B =  24697.18383  C =  23808.99168 [MHz]
  Nuclear repulsion =   40.185569156661899

  Charge       = 0
  Multiplicity = 1
  Electrons    = 18
  Nalpha       = 9
  Nbeta        = 9

  ==> Algorithm <==

  SCF Algorithm Type is DF.
  DIIS enabled.
  MOM disabled.
  Fractional occupation disabled.
  Guess Type is READ.
  Energy threshold   = 1.00e-10
  Density threshold  = 1.00e-10
  Integral threshold = 0.00e+00

  ==> Primary Basis <==

  Basis Set: 6-31G*
    Blend: 6-31G*
    Number of shells: 20
    Number of basis function: 38
    Number of Cartesian functions: 38
    Spherical Harmonics?: false
    Max angular momentum: 2

   => Loading Basis Set <=

    Name: (6-31G* AUX)
    Role: JKFIT
    Keyword: DF_BASIS_SCF
    atoms 1   entry O          line   221 file /home/bdw2292/miniconda3/envs/p4env/share/psi4/basis/cc-pvdz-jkfit.gbs 
    atoms 2   entry C          line   121 file /home/bdw2292/miniconda3/envs/p4env/share/psi4/basis/cc-pvdz-jkfit.gbs 
    atoms 3-6 entry H          line    51 file /home/bdw2292/miniconda3/envs/p4env/share/psi4/basis/cc-pvdz-jkfit.gbs 

   => Loading Basis Set <=

    Name: 6-31G*
    Role: ORBITAL
    Keyword: BASIS
    atoms 1   entry O          line   145 file /home/bdw2292/miniconda3/envs/p4env/share/psi4/basis/6-31gs.gbs 
    atoms 2   entry C          line   111 file /home/bdw2292/miniconda3/envs/p4env/share/psi4/basis/6-31gs.gbs 
    atoms 3-6 entry H          line    44 file /home/bdw2292/miniconda3/envs/p4env/share/psi4/basis/6-31gs.gbs 

  Reading orbitals from file 180, no projection.

  ==> Pre-Iterations <==

   -------------------------------------------------------
    Irrep   Nso     Nmo     Nalpha   Nbeta   Ndocc  Nsocc
   -------------------------------------------------------
     A         38      38       0       0       0       0
   -------------------------------------------------------
    Total      38      38       9       9       9       0
   -------------------------------------------------------

  ==> Integral Setup <==

  DFHelper Memory: AOs need 0.004 GiB; user supplied 0.489 GiB. Using in-core AOs.

  ==> MemDFJK: Density-Fitted J/K Matrices <==

    J tasked:                   Yes
    K tasked:                   Yes
    wK tasked:                   No
    OpenMP threads:               1
    Memory [MiB]:               500
    Algorithm:                 Core
    Schwarz Cutoff:           1E-12
    Mask sparsity (%):       0.0000
    Fitting Condition:        1E-10

   => Auxiliary Basis Set <=

  Basis Set: (6-31G* AUX)
    Blend: CC-PVDZ-JKFIT
    Number of shells: 84
    Number of basis function: 262
    Number of Cartesian functions: 262
    Spherical Harmonics?: false
    Max angular momentum: 3

  Minimum eigenvalue in the overlap matrix is 9.7972967265E-03.
  Using Symmetric Orthogonalization.

  SCF Guess: Orbitals guess was supplied from a previous computation.

  ==> Iterations <==

                           Total Energy        Delta E     RMS |[F,P]|

   @DF-RHF iter   0:  -115.03672985072620   -1.15037e+02   4.30499e-04 
   @DF-RHF iter   1:  -115.03407867916602    2.65117e-03   6.06602e-05 DIIS
   @DF-RHF iter   2:  -115.03408219507254   -3.51591e-06   2.39163e-05 DIIS
   @DF-RHF iter   3:  -115.03408277176797   -5.76695e-07   1.18151e-05 DIIS
   @DF-RHF iter   4:  -115.03408293069180   -1.58924e-07   2.30185e-06 DIIS
   @DF-RHF iter   5:  -115.03408293790872   -7.21693e-09   6.58606e-07 DIIS
   @DF-RHF iter   6:  -115.03408293853860   -6.29882e-10   1.50337e-07 DIIS
   @DF-RHF iter   7:  -115.03408293857434   -3.57403e-11   3.39022e-08 DIIS
   @DF-RHF iter   8:  -115.03408293857659   -2.24532e-12   5.99376e-09 DIIS
   @DF-RHF iter   9:  -115.03408293857665   -5.68434e-14   1.11835e-09 DIIS
   @DF-RHF iter  10:  -115.03408293857650    1.42109e-13   1.82769e-10 DIIS
   @DF-RHF iter  11:  -115.03408293857666   -1.56319e-13   3.19126e-11 DIIS
  Energy and wave function converged.


  ==> Post-Iterations <==

    Orbital Energies [Eh]
    ---------------------

    Doubly Occupied:                                                      

       1A    -20.559834     2A    -11.272167     3A     -1.347861  
       4A     -0.922023     5A     -0.683614     6A     -0.615505  
       7A     -0.586428     8A     -0.499468     9A     -0.445309  

    Virtual:                                                              

      10A      0.222767    11A      0.276415    12A      0.319409  
      13A      0.327163    14A      0.379599    15A      0.762004  
      16A      0.776923    17A      0.787242    18A      1.048159  
      19A      1.122699    20A      1.145444    21A      1.172840  
      22A      1.205879    23A      1.255286    24A      1.266900  
      25A      1.405533    26A      1.723713    27A      1.777847  
      28A      1.860100    29A      2.038626    30A      2.367416  
      31A      2.444002    32A      2.456068    33A      2.680310  
      34A      2.735063    35A      2.783972    36A      3.152683  
      37A      4.115025    38A      4.637567  

    Final Occupation by Irrep:
              A 
    DOCC [     9 ]

  @DF-RHF Final Energy:  -115.03408293857666

   => Energetics <=

    Nuclear Repulsion Energy =             40.1855691566618987
    One-Electron Energy =                -236.5748845032027532
    Two-Electron Energy =                  81.3552324079641949
    Total Energy =                       -115.0340829385766597

Computation Completed


Properties will be evaluated at   0.000000,   0.000000,   0.000000 [a0]

Properties computed using the SCF density matrix

  Nuclear Dipole Moment: [e a0]
     X:    -2.1794      Y:    -0.6943      Z:    -0.2350

  Electronic Dipole Moment: [e a0]
     X:     1.7324      Y:     0.1041      Z:     0.0353

  Dipole Moment: [e a0]
     X:    -0.4470      Y:    -0.5902      Z:    -0.1998     Total:     0.7668

  Dipole Moment: [D]
     X:    -1.1362      Y:    -1.5001      Z:    -0.5078     Total:     1.9491


*** tstop() called on bme-nova.bme.utexas.edu at Sun Dec 29 14:03:18 2019
Module time:
	user time   =       0.40 seconds =       0.01 minutes
	system time =       0.00 seconds =       0.00 minutes
	total time  =          1 seconds =       0.02 minutes
Total time:
	user time   =       3.10 seconds =       0.05 minutes
	system time =       0.05 seconds =       0.00 minutes
	total time  =          3 seconds =       0.05 minutes

*** tstart() called on bme-nova.bme.utexas.edu
*** at Sun Dec 29 14:03:18 2019


  //>>>>>>>>>>>>>>>>>>>>>>>>>>>>>>>>>>>//
  //               DFMP2               //
  //<<<<<<<<<<<<<<<<<<<<<<<<<<<<<<<<<<<//

   => Loading Basis Set <=

    Name: (6-31G* AUX)
    Role: RIFIT
    Keyword: DF_BASIS_MP2
    atoms 1   entry O          line   235 file /home/bdw2292/miniconda3/envs/p4env/share/psi4/basis/cc-pvdz-ri.gbs 
    atoms 2   entry C          line   159 file /home/bdw2292/miniconda3/envs/p4env/share/psi4/basis/cc-pvdz-ri.gbs 
    atoms 3-6 entry H          line    19 file /home/bdw2292/miniconda3/envs/p4env/share/psi4/basis/cc-pvdz-ri.gbs 

	 --------------------------------------------------------
	                          DF-MP2                         
	      2nd-Order Density-Fitted Moller-Plesset Theory     
	              RMP2 Wavefunction,   1 Threads             
	                                                         
	        Rob Parrish, Justin Turney, Andy Simmonett,      
	           Ed Hohenstein, and C. David Sherrill          
	 --------------------------------------------------------

   => Auxiliary Basis Set <=

  Basis Set: (6-31G* AUX)
    Blend: CC-PVDZ-RI
    Number of shells: 60
    Number of basis function: 168
    Number of Cartesian functions: 192
    Spherical Harmonics?: true
    Max angular momentum: 3

	 --------------------------------------------------------
	                 NBF =    38, NAUX =   168
	 --------------------------------------------------------
	   CLASS    FOCC     OCC    AOCC    AVIR     VIR    FVIR
	   PAIRS       0       9       9      29      29       0
	 --------------------------------------------------------

  DFHelper Memory: AOs need 0.004 GiB; user supplied 0.489 GiB. Using in-core AOs.


         ------------------------------------------------------------
                                     CPHF                           
                                  Rob Parrish                       
         ------------------------------------------------------------

  ==> Geometry <==

    Molecular point group: c1
    Full point group: C1

    Geometry (in Angstrom), charge = 0, multiplicity = 1:

       Center              X                  Y                   Z               Mass       
    ------------   -----------------  -----------------  -----------------  -----------------
         O            0.694184723528     0.036946518939     0.012511431822    15.994914619570
         C           -0.729736135846     0.012968819161     0.004383393721    12.000000000000
         H           -1.137741850395    -0.738090362461     0.691517444285     1.007825032230
         H           -1.137728939827    -0.166341894433    -0.997665671108     1.007825032230
         H           -1.054415239870     0.998265265605     0.337885979826     1.007825032230
         H            1.001513864450    -0.834618583564    -0.282495573402     1.007825032230

  Nuclear repulsion =   40.185569156661899
  Reference energy  = -115.034082938576660

  ==> Basis Set <==

  Basis Set: 6-31G*
    Blend: 6-31G*
    Number of shells: 20
    Number of basis function: 38
    Number of Cartesian functions: 38
    Spherical Harmonics?: false
    Max angular momentum: 2

  ==> CGRSolver (by Rob Parrish) <==

   Number of roots    =         1
   Preconditioning    =    JACOBI
   Convergence cutoff =     1E-06
   Maximum iterations =       100

  ==> CPHFRHamiltonian (by Rob Parrish) <== 

  ==> MemDFJK: Density-Fitted J/K Matrices <==

    J tasked:                   Yes
    K tasked:                   Yes
    wK tasked:                   No
    OpenMP threads:               1
    Memory [MiB]:               500
    Algorithm:                 Core
    Schwarz Cutoff:           1E-12
    Mask sparsity (%):       0.0000
    Fitting Condition:        1E-10

   => Auxiliary Basis Set <=

  Basis Set: (6-31G* AUX)
    Blend: CC-PVDZ-JKFIT
    Number of shells: 84
    Number of basis function: 262
    Number of Cartesian functions: 262
    Spherical Harmonics?: false
    Max angular momentum: 3

  ==> CPHF Iterations <==

  => Iterations <=

             Iter  Converged  Remaining    Residual
  CGR           1          0          1   8.324E-02
  CGR           2          0          1   1.848E-02
  CGR           3          0          1   6.624E-03
  CGR           4          0          1   9.708E-04
  CGR           5          0          1   2.213E-04
  CGR           6          0          1   4.175E-05
  CGR           7          0          1   9.364E-06
  CGR           8          1          0   9.790E-07

    CGRSolver converged.

  ==> DFCorrGrad: Density-Fitted Correlated Gradients <==

    OpenMP threads:              1
    Integrals threads:           1
    Memory [GiB]:            0.489
    Schwarz Cutoff:          0E+00
    Fitting Condition:       1E-10

   => Auxiliary Basis Set <=

  Basis Set: (6-31G* AUX)
    Blend: CC-PVDZ-JKFIT
    Number of shells: 84
    Number of basis function: 262
    Number of Cartesian functions: 262
    Spherical Harmonics?: false
    Max angular momentum: 3

	-----------------------------------------------------------
	 ==================> DF-MP2 Energies <==================== 
	-----------------------------------------------------------
	 Reference Energy          =    -115.0340829385766597 [Eh]
	 Singles Energy            =      -0.0000000000000000 [Eh]
	 Same-Spin Energy          =      -0.0778919908467477 [Eh]
	 Opposite-Spin Energy      =      -0.2411140697746292 [Eh]
	 Correlation Energy        =      -0.3190060606213769 [Eh]
	 Total Energy              =    -115.3530889991980359 [Eh]
	-----------------------------------------------------------
	 ================> DF-SCS-MP2 Energies <================== 
	-----------------------------------------------------------
	 SCS Same-Spin Scale       =       0.3333333333333333 [-]
	 SCS Opposite-Spin Scale   =       1.2000000000000000 [-]
	 SCS Same-Spin Energy      =      -0.0259639969489159 [Eh]
	 SCS Opposite-Spin Energy  =      -0.2893368837295551 [Eh]
	 SCS Correlation Energy    =      -0.3153008806784710 [Eh]
	 SCS Total Energy          =    -115.3493838192551237 [Eh]
	-----------------------------------------------------------


  -Total Gradient:
     Atom            X                  Y                   Z
    ------   -----------------  -----------------  -----------------
       1        0.000717266287     0.000009590717     0.000003401625
       2       -0.000537374323    -0.000115112692    -0.000039449391
       3       -0.000077673533     0.000058661345     0.000016254603
       4       -0.000077740451     0.000055844666     0.000022320847
       5       -0.000143622632     0.000050787165     0.000017730728
       6        0.000119144651    -0.000059771200    -0.000020258413


*** tstop() called on bme-nova.bme.utexas.edu at Sun Dec 29 14:03:19 2019
Module time:
	user time   =       0.84 seconds =       0.01 minutes
	system time =       0.01 seconds =       0.00 minutes
	total time  =          1 seconds =       0.02 minutes
Total time:
	user time   =       3.94 seconds =       0.07 minutes
	system time =       0.06 seconds =       0.00 minutes
	total time  =          4 seconds =       0.07 minutes

			-----------------------------------------
			 OPTKING 2.0: for geometry optimizations 
			  - R.A. King,  Bethel University        
			-----------------------------------------

	Previous internal coordinate definitions found.
	---Fragment 1 Geometry and Gradient---
	 O           1.3118190079        0.0698188021        0.0236431796
	 C          -1.3790014406        0.0245075164        0.0082834136
	 H          -2.1500204987       -1.3947886409        1.3067785807
	 H          -2.1499961013       -0.3143406237       -1.8853148832
	 H          -1.9925560259        1.8864479525        0.6385119635
	 H           1.8925869147       -1.5772005422       -0.5338392654
	             0.0007172663        0.0000095907        0.0000034016
	            -0.0005373743       -0.0001151127       -0.0000394494
	            -0.0000776735        0.0000586613        0.0000162546
	            -0.0000777405        0.0000558447        0.0000223208
	            -0.0001436226        0.0000507872        0.0000177307
	             0.0001191447       -0.0000597712       -0.0000202584

	---Fragment 1 Intrafragment Coordinates---
	 - Coordinate -           - BOHR/RAD -       - ANG/DEG -
	 R(1,2)           =         2.691246	       1.424146
	 R(1,6)           =         1.833235	       0.970106
	 R(2,3)           =         2.072429	       1.096682
	 R(2,4)           =         2.072430	       1.096683
	 R(2,5)           =         2.059238	       1.089702
	 B(1,2,3)         =         1.960519	     112.329479
	 B(1,2,4)         =         1.960521	     112.329554
	 B(1,2,5)         =         1.855565	     106.316021
	 B(2,1,6)         =         1.875371	     107.450846
	 B(3,2,4)         =         1.898754	     108.790578
	 B(3,2,5)         =         1.892965	     108.458907
	 B(4,2,5)         =         1.892973	     108.459374
	 D(3,2,1,6)       =         1.073688	      61.517808
	 D(4,2,1,6)       =        -1.073677	     -61.517163
	 D(5,2,1,6)       =         3.141593	     180.000000

	Current energy   :      -115.3530889992

	Energy change for the previous step:
		Projected    :        -0.0002556395
		Actual       :        -0.0001024261

	Performing BFGS update.
	Previous computed or guess Hessian on step 1.
	Steps to be used in Hessian update: 2 1
	Taking RFO optimization step.
	Going to follow RFO solution 1.
	Using RFO vector 1.
	Norm of target step-size    0.00264
	Projected energy change by RFO approximation:        -0.0000028058

	Back-transformation to cartesian coordinates...
	Could not converge backtransformation.
	Using first guess instead.

	--- Internal Coordinate Step in ANG or DEG, aJ/ANG or AJ/DEG ---
	 ---------------------------------------------------------------------------
	   Coordinate                Previous        Force       Change         New 
	   ----------                --------       ------       ------       ------
	    1 R(1,2)          =      1.424146    -0.006882    -0.000982     1.423164
	    2 R(1,6)          =      0.970106    -0.000804    -0.000109     0.969997
	    3 R(2,3)          =      1.096682     0.000009    -0.000001     1.096682
	    4 R(2,4)          =      1.096683     0.000005    -0.000001     1.096682
	    5 R(2,5)          =      1.089702    -0.000776    -0.000162     1.089539
	    6 B(1,2,3)        =    112.329479    -0.000007    -0.020653   112.308826
	    7 B(1,2,4)        =    112.329554    -0.000007    -0.020757   112.308797
	    8 B(1,2,5)        =    106.316021    -0.000009    -0.049011   106.267010
	    9 B(2,1,6)        =    107.450846    -0.000013    -0.059522   107.391324
	   10 B(3,2,4)        =    108.790578     0.000004     0.005267   108.795845
	   11 B(3,2,5)        =    108.458907     0.000010     0.044937   108.503845
	   12 B(4,2,5)        =    108.459374     0.000010     0.044510   108.503884
	   13 D(3,2,1,6)      =     61.517808    -0.000001    -0.012584    61.505225
	   14 D(4,2,1,6)      =    -61.517163     0.000001     0.011792   -61.505371
	   15 D(5,2,1,6)      =    180.000000     0.000000     0.000000   180.000000
	 ---------------------------------------------------------------------------
	Successfully symmetrized geometry.

  ==> Convergence Check <==

  Measures of convergence in internal coordinates in au.
  Criteria marked as inactive (o), active & met (*), and active & unmet ( ).
  ---------------------------------------------------------------------------------------------
   Step     Total Energy     Delta E     MAX Force     RMS Force      MAX Disp      RMS Disp   
  ---------------------------------------------------------------------------------------------
    Convergence Criteria    1.00e-06 *    3.00e-04 *             o    1.20e-03 *             o
  ---------------------------------------------------------------------------------------------
      3    -115.35308900   -1.02e-04      8.35e-04      2.33e-04 o    1.86e-03      6.82e-04 o  ~
  ---------------------------------------------------------------------------------------------

	Writing optimization data to binary file.
	Structure for next step:
	Cartesian Geometry (in Angstrom)
	    O     0.6933643972   0.0373565679   0.0126483796
	    C    -0.7295667546   0.0129686416   0.0043841998
	    H    -1.1370450469  -0.7384646161   0.6914214215
	    H    -1.1370334795  -0.1666939511  -0.9978150431
	    H    -1.0536364424   0.9982847180   0.3378910458
	    H     0.9999937575  -0.8343215943  -0.2823929976
			--------------------------
			 OPTKING Finished Execution 
			--------------------------

    Structure for next step:
    Molecular point group: c1
    Full point group: C1

    Geometry (in Angstrom), charge = 0, multiplicity = 1:

    O            0.693690146401     0.037164741073     0.012584016425
    C           -0.729241010977     0.012776814693     0.004319836608
    H           -1.136719304926    -0.738656445925     0.691357061048
    H           -1.136707737576    -0.166885778708    -0.997879410183
    H           -1.053310700057     0.998092894950     0.337826683955
    H            1.000319507828    -0.834513424482    -0.282457361871

gradient() will perform analytic gradient computation.
    SCF Algorithm Type (re)set to DF.

*** tstart() called on bme-nova.bme.utexas.edu
*** at Sun Dec 29 14:03:19 2019

   => Loading Basis Set <=

    Name: 6-31G*
    Role: ORBITAL
    Keyword: BASIS
    atoms 1   entry O          line   145 file /home/bdw2292/miniconda3/envs/p4env/share/psi4/basis/6-31gs.gbs 
    atoms 2   entry C          line   111 file /home/bdw2292/miniconda3/envs/p4env/share/psi4/basis/6-31gs.gbs 
    atoms 3-6 entry H          line    44 file /home/bdw2292/miniconda3/envs/p4env/share/psi4/basis/6-31gs.gbs 


         ---------------------------------------------------------
                                   SCF
               by Justin Turney, Rob Parrish, Andy Simmonett
                          and Daniel G. A. Smith
                              RHF Reference
                        1 Threads,    667 MiB Core
         ---------------------------------------------------------

  ==> Geometry <==

    Molecular point group: c1
    Full point group: C1

    Geometry (in Angstrom), charge = 0, multiplicity = 1:

       Center              X                  Y                   Z               Mass       
    ------------   -----------------  -----------------  -----------------  -----------------
         O            0.693690146401     0.037164741073     0.012584016425    15.994914619570
         C           -0.729241010977     0.012776814693     0.004319836608    12.000000000000
         H           -1.136719304926    -0.738656445925     0.691357061048     1.007825032230
         H           -1.136707737576    -0.166885778708    -0.997879410183     1.007825032230
         H           -1.053310700057     0.998092894950     0.337826683955     1.007825032230
         H            1.000319507828    -0.834513424482    -0.282457361871     1.007825032230

  Running in c1 symmetry.

  Rotational constants: A =      4.24644  B =      0.82500  C =      0.79524 [cm^-1]
  Rotational constants: A = 127305.01747  B =  24732.78193  C =  23840.80471 [MHz]
  Nuclear repulsion =   40.204351607494289

  Charge       = 0
  Multiplicity = 1
  Electrons    = 18
  Nalpha       = 9
  Nbeta        = 9

  ==> Algorithm <==

  SCF Algorithm Type is DF.
  DIIS enabled.
  MOM disabled.
  Fractional occupation disabled.
  Guess Type is READ.
  Energy threshold   = 1.00e-10
  Density threshold  = 1.00e-10
  Integral threshold = 0.00e+00

  ==> Primary Basis <==

  Basis Set: 6-31G*
    Blend: 6-31G*
    Number of shells: 20
    Number of basis function: 38
    Number of Cartesian functions: 38
    Spherical Harmonics?: false
    Max angular momentum: 2

   => Loading Basis Set <=

    Name: (6-31G* AUX)
    Role: JKFIT
    Keyword: DF_BASIS_SCF
    atoms 1   entry O          line   221 file /home/bdw2292/miniconda3/envs/p4env/share/psi4/basis/cc-pvdz-jkfit.gbs 
    atoms 2   entry C          line   121 file /home/bdw2292/miniconda3/envs/p4env/share/psi4/basis/cc-pvdz-jkfit.gbs 
    atoms 3-6 entry H          line    51 file /home/bdw2292/miniconda3/envs/p4env/share/psi4/basis/cc-pvdz-jkfit.gbs 

   => Loading Basis Set <=

    Name: 6-31G*
    Role: ORBITAL
    Keyword: BASIS
    atoms 1   entry O          line   145 file /home/bdw2292/miniconda3/envs/p4env/share/psi4/basis/6-31gs.gbs 
    atoms 2   entry C          line   111 file /home/bdw2292/miniconda3/envs/p4env/share/psi4/basis/6-31gs.gbs 
    atoms 3-6 entry H          line    44 file /home/bdw2292/miniconda3/envs/p4env/share/psi4/basis/6-31gs.gbs 

  Reading orbitals from file 180, no projection.

  ==> Pre-Iterations <==

   -------------------------------------------------------
    Irrep   Nso     Nmo     Nalpha   Nbeta   Ndocc  Nsocc
   -------------------------------------------------------
     A         38      38       0       0       0       0
   -------------------------------------------------------
    Total      38      38       9       9       9       0
   -------------------------------------------------------

  ==> Integral Setup <==

  DFHelper Memory: AOs need 0.004 GiB; user supplied 0.489 GiB. Using in-core AOs.

  ==> MemDFJK: Density-Fitted J/K Matrices <==

    J tasked:                   Yes
    K tasked:                   Yes
    wK tasked:                   No
    OpenMP threads:               1
    Memory [MiB]:               500
    Algorithm:                 Core
    Schwarz Cutoff:           1E-12
    Mask sparsity (%):       0.0000
    Fitting Condition:        1E-10

   => Auxiliary Basis Set <=

  Basis Set: (6-31G* AUX)
    Blend: CC-PVDZ-JKFIT
    Number of shells: 84
    Number of basis function: 262
    Number of Cartesian functions: 262
    Spherical Harmonics?: false
    Max angular momentum: 3

  Minimum eigenvalue in the overlap matrix is 9.7743922302E-03.
  Using Symmetric Orthogonalization.

  SCF Guess: Orbitals guess was supplied from a previous computation.

  ==> Iterations <==

                           Total Energy        Delta E     RMS |[F,P]|

   @DF-RHF iter   0:  -115.03463747635109   -1.15035e+02   6.03262e-05 
   @DF-RHF iter   1:  -115.03411683277409    5.20644e-04   6.30369e-06 DIIS
   @DF-RHF iter   2:  -115.03411686284470   -3.00706e-08   1.75407e-06 DIIS
   @DF-RHF iter   3:  -115.03411686547064   -2.62594e-09   6.54162e-07 DIIS
   @DF-RHF iter   4:  -115.03411686592403   -4.53397e-10   2.05478e-07 DIIS
   @DF-RHF iter   5:  -115.03411686597251   -4.84732e-11   5.79762e-08 DIIS
   @DF-RHF iter   6:  -115.03411686597701   -4.50484e-12   2.08728e-08 DIIS
   @DF-RHF iter   7:  -115.03411686597740   -3.83693e-13   2.99866e-09 DIIS
   @DF-RHF iter   8:  -115.03411686597748   -8.52651e-14   4.78021e-10 DIIS
   @DF-RHF iter   9:  -115.03411686597750   -1.42109e-14   8.13142e-11 DIIS
  Energy and wave function converged.


  ==> Post-Iterations <==

    Orbital Energies [Eh]
    ---------------------

    Doubly Occupied:                                                      

       1A    -20.559806     2A    -11.272049     3A     -1.348281  
       4A     -0.921955     5A     -0.683887     6A     -0.615687  
       7A     -0.586581     8A     -0.499505     9A     -0.445214  

    Virtual:                                                              

      10A      0.222734    11A      0.276595    12A      0.319445  
      13A      0.327174    14A      0.379842    15A      0.762147  
      16A      0.776947    17A      0.787628    18A      1.048158  
      19A      1.122699    20A      1.145480    21A      1.172875  
      22A      1.205946    23A      1.255215    24A      1.266842  
      25A      1.405419    26A      1.724188    27A      1.777791  
      28A      1.859716    29A      2.038414    30A      2.368805  
      31A      2.445309    32A      2.456758    33A      2.680688  
      34A      2.735674    35A      2.784159    36A      3.153269  
      37A      4.115467    38A      4.637540  

    Final Occupation by Irrep:
              A 
    DOCC [     9 ]

  @DF-RHF Final Energy:  -115.03411686597750

   => Energetics <=

    Nuclear Repulsion Energy =             40.2043516074942886
    One-Electron Energy =                -236.6110034733418956
    Two-Electron Energy =                  81.3725349998701120
    Total Energy =                       -115.0341168659774951

Computation Completed


Properties will be evaluated at   0.000000,   0.000000,   0.000000 [a0]

Properties computed using the SCF density matrix

  Nuclear Dipole Moment: [e a0]
     X:    -2.1776      Y:    -0.6954      Z:    -0.2354

  Electronic Dipole Moment: [e a0]
     X:     1.7316      Y:     0.1051      Z:     0.0356

  Dipole Moment: [e a0]
     X:    -0.4460      Y:    -0.5903      Z:    -0.1998     Total:     0.7664

  Dipole Moment: [D]
     X:    -1.1337      Y:    -1.5003      Z:    -0.5078     Total:     1.9479


*** tstop() called on bme-nova.bme.utexas.edu at Sun Dec 29 14:03:19 2019
Module time:
	user time   =       0.41 seconds =       0.01 minutes
	system time =       0.00 seconds =       0.00 minutes
	total time  =          0 seconds =       0.00 minutes
Total time:
	user time   =       4.36 seconds =       0.07 minutes
	system time =       0.06 seconds =       0.00 minutes
	total time  =          4 seconds =       0.07 minutes

*** tstart() called on bme-nova.bme.utexas.edu
*** at Sun Dec 29 14:03:19 2019


  //>>>>>>>>>>>>>>>>>>>>>>>>>>>>>>>>>>>//
  //               DFMP2               //
  //<<<<<<<<<<<<<<<<<<<<<<<<<<<<<<<<<<<//

   => Loading Basis Set <=

    Name: (6-31G* AUX)
    Role: RIFIT
    Keyword: DF_BASIS_MP2
    atoms 1   entry O          line   235 file /home/bdw2292/miniconda3/envs/p4env/share/psi4/basis/cc-pvdz-ri.gbs 
    atoms 2   entry C          line   159 file /home/bdw2292/miniconda3/envs/p4env/share/psi4/basis/cc-pvdz-ri.gbs 
    atoms 3-6 entry H          line    19 file /home/bdw2292/miniconda3/envs/p4env/share/psi4/basis/cc-pvdz-ri.gbs 

	 --------------------------------------------------------
	                          DF-MP2                         
	      2nd-Order Density-Fitted Moller-Plesset Theory     
	              RMP2 Wavefunction,   1 Threads             
	                                                         
	        Rob Parrish, Justin Turney, Andy Simmonett,      
	           Ed Hohenstein, and C. David Sherrill          
	 --------------------------------------------------------

   => Auxiliary Basis Set <=

  Basis Set: (6-31G* AUX)
    Blend: CC-PVDZ-RI
    Number of shells: 60
    Number of basis function: 168
    Number of Cartesian functions: 192
    Spherical Harmonics?: true
    Max angular momentum: 3

	 --------------------------------------------------------
	                 NBF =    38, NAUX =   168
	 --------------------------------------------------------
	   CLASS    FOCC     OCC    AOCC    AVIR     VIR    FVIR
	   PAIRS       0       9       9      29      29       0
	 --------------------------------------------------------

  DFHelper Memory: AOs need 0.004 GiB; user supplied 0.489 GiB. Using in-core AOs.


         ------------------------------------------------------------
                                     CPHF                           
                                  Rob Parrish                       
         ------------------------------------------------------------

  ==> Geometry <==

    Molecular point group: c1
    Full point group: C1

    Geometry (in Angstrom), charge = 0, multiplicity = 1:

       Center              X                  Y                   Z               Mass       
    ------------   -----------------  -----------------  -----------------  -----------------
         O            0.693690146401     0.037164741073     0.012584016425    15.994914619570
         C           -0.729241010977     0.012776814693     0.004319836608    12.000000000000
         H           -1.136719304926    -0.738656445925     0.691357061048     1.007825032230
         H           -1.136707737576    -0.166885778708    -0.997879410183     1.007825032230
         H           -1.053310700057     0.998092894950     0.337826683955     1.007825032230
         H            1.000319507828    -0.834513424482    -0.282457361871     1.007825032230

  Nuclear repulsion =   40.204351607494289
  Reference energy  = -115.034116865977495

  ==> Basis Set <==

  Basis Set: 6-31G*
    Blend: 6-31G*
    Number of shells: 20
    Number of basis function: 38
    Number of Cartesian functions: 38
    Spherical Harmonics?: false
    Max angular momentum: 2

  ==> CGRSolver (by Rob Parrish) <==

   Number of roots    =         1
   Preconditioning    =    JACOBI
   Convergence cutoff =     1E-06
   Maximum iterations =       100

  ==> CPHFRHamiltonian (by Rob Parrish) <== 

  ==> MemDFJK: Density-Fitted J/K Matrices <==

    J tasked:                   Yes
    K tasked:                   Yes
    wK tasked:                   No
    OpenMP threads:               1
    Memory [MiB]:               500
    Algorithm:                 Core
    Schwarz Cutoff:           1E-12
    Mask sparsity (%):       0.0000
    Fitting Condition:        1E-10

   => Auxiliary Basis Set <=

  Basis Set: (6-31G* AUX)
    Blend: CC-PVDZ-JKFIT
    Number of shells: 84
    Number of basis function: 262
    Number of Cartesian functions: 262
    Spherical Harmonics?: false
    Max angular momentum: 3

  ==> CPHF Iterations <==

  => Iterations <=

             Iter  Converged  Remaining    Residual
  CGR           1          0          1   8.322E-02
  CGR           2          0          1   1.846E-02
  CGR           3          0          1   6.614E-03
  CGR           4          0          1   9.687E-04
  CGR           5          0          1   2.205E-04
  CGR           6          0          1   4.160E-05
  CGR           7          0          1   9.336E-06
  CGR           8          1          0   9.771E-07

    CGRSolver converged.

  ==> DFCorrGrad: Density-Fitted Correlated Gradients <==

    OpenMP threads:              1
    Integrals threads:           1
    Memory [GiB]:            0.489
    Schwarz Cutoff:          0E+00
    Fitting Condition:       1E-10

   => Auxiliary Basis Set <=

  Basis Set: (6-31G* AUX)
    Blend: CC-PVDZ-JKFIT
    Number of shells: 84
    Number of basis function: 262
    Number of Cartesian functions: 262
    Spherical Harmonics?: false
    Max angular momentum: 3

	-----------------------------------------------------------
	 ==================> DF-MP2 Energies <==================== 
	-----------------------------------------------------------
	 Reference Energy          =    -115.0341168659774951 [Eh]
	 Singles Energy            =      -0.0000000000000000 [Eh]
	 Same-Spin Energy          =      -0.0778891630899275 [Eh]
	 Opposite-Spin Energy      =      -0.2410838689102439 [Eh]
	 Correlation Energy        =      -0.3189730320001715 [Eh]
	 Total Energy              =    -115.3530898979776680 [Eh]
	-----------------------------------------------------------
	 ================> DF-SCS-MP2 Energies <================== 
	-----------------------------------------------------------
	 SCS Same-Spin Scale       =       0.3333333333333333 [-]
	 SCS Opposite-Spin Scale   =       1.2000000000000000 [-]
	 SCS Same-Spin Energy      =      -0.0259630543633092 [Eh]
	 SCS Opposite-Spin Energy  =      -0.2893006426922927 [Eh]
	 SCS Correlation Energy    =      -0.3152636970556019 [Eh]
	 SCS Total Energy          =    -115.3493805630330939 [Eh]
	-----------------------------------------------------------


  -Total Gradient:
     Atom            X                  Y                   Z
    ------   -----------------  -----------------  -----------------
       1        0.000084072936     0.000110663856     0.000037417725
       2       -0.000146106140    -0.000130067619    -0.000043914712
       3        0.000032368281     0.000014247468    -0.000000343049
       4        0.000032376324     0.000011043983     0.000008777623
       5        0.000086305615     0.000002247195     0.000000808754
       6       -0.000089017016    -0.000008134883    -0.000002746341


*** tstop() called on bme-nova.bme.utexas.edu at Sun Dec 29 14:03:20 2019
Module time:
	user time   =       0.83 seconds =       0.01 minutes
	system time =       0.01 seconds =       0.00 minutes
	total time  =          1 seconds =       0.02 minutes
Total time:
	user time   =       5.19 seconds =       0.09 minutes
	system time =       0.07 seconds =       0.00 minutes
	total time  =          5 seconds =       0.08 minutes

			-----------------------------------------
			 OPTKING 2.0: for geometry optimizations 
			  - R.A. King,  Bethel University        
			-----------------------------------------

	Previous internal coordinate definitions found.
	---Fragment 1 Geometry and Gradient---
	 O           1.3108843926        0.0702311822        0.0237803446
	 C          -1.3780657902        0.0241446805        0.0081633081
	 H          -2.1480881678       -1.3958583836        1.3064755003
	 H          -2.1480663087       -0.3153684160       -1.8857187915
	 H          -1.9904687481        1.8861222192        0.6383999105
	 H           1.8903299077       -1.5770018203       -0.5337670561
	             0.0000840729        0.0001106639        0.0000374177
	            -0.0001461061       -0.0001300676       -0.0000439147
	             0.0000323683        0.0000142475       -0.0000003430
	             0.0000323763        0.0000110440        0.0000087776
	             0.0000863056        0.0000022472        0.0000008088
	            -0.0000890170       -0.0000081349       -0.0000027463

	---Fragment 1 Intrafragment Coordinates---
	 - Coordinate -           - BOHR/RAD -       - ANG/DEG -
	 R(1,2)           =         2.689390	       1.423164
	 R(1,6)           =         1.833028	       0.969997
	 R(2,3)           =         2.072428	       1.096682
	 R(2,4)           =         2.072428	       1.096682
	 R(2,5)           =         2.058931	       1.089539
	 B(1,2,3)         =         1.960159	     112.308826
	 B(1,2,4)         =         1.960158	     112.308797
	 B(1,2,5)         =         1.854709	     106.267010
	 B(2,1,6)         =         1.874332	     107.391324
	 B(3,2,4)         =         1.898846	     108.795845
	 B(3,2,5)         =         1.893749	     108.503845
	 B(4,2,5)         =         1.893750	     108.503884
	 D(3,2,1,6)       =         1.073469	      61.505225
	 D(4,2,1,6)       =        -1.073471	     -61.505371
	 D(5,2,1,6)       =         3.141593	     180.000000

	Current energy   :      -115.3530898980

	Energy change for the previous step:
		Projected    :        -0.0000028058
		Actual       :        -0.0000008988

	Performing BFGS update.
	Previous computed or guess Hessian on step 1.
	Steps to be used in Hessian update: 3 2
	Taking RFO optimization step.
	Going to follow RFO solution 1.
	Using RFO vector 1.
	Norm of target step-size    0.00102
	Projected energy change by RFO approximation:         0.0000000228

	Back-transformation to cartesian coordinates...
	Could not converge backtransformation.
	Using first guess instead.

	--- Internal Coordinate Step in ANG or DEG, aJ/ANG or AJ/DEG ---
	 ---------------------------------------------------------------------------
	   Coordinate                Previous        Force       Change         New 
	   ----------                --------       ------       ------       ------
	    1 R(1,2)          =      1.423164     0.000025    -0.000063     1.423101
	    2 R(1,6)          =      0.969997     0.000165     0.000005     0.970001
	    3 R(2,3)          =      1.096682     0.000181     0.000036     1.096717
	    4 R(2,4)          =      1.096682     0.000180     0.000036     1.096717
	    5 R(2,5)          =      1.089539     0.000193     0.000014     1.089553
	    6 B(1,2,3)        =    112.308826     0.000001     0.003210   112.312036
	    7 B(1,2,4)        =    112.308797     0.000001     0.003237   112.312034
	    8 B(1,2,5)        =    106.267010     0.000009     0.030566   106.297576
	    9 B(2,1,6)        =    107.391324     0.000012     0.041595   107.432920
	   10 B(3,2,4)        =    108.795845    -0.000003    -0.017435   108.778410
	   11 B(3,2,5)        =    108.503845    -0.000004    -0.009722   108.494122
	   12 B(4,2,5)        =    108.503884    -0.000004    -0.009777   108.494107
	   13 D(3,2,1,6)      =     61.505225    -0.000000    -0.009019    61.496206
	   14 D(4,2,1,6)      =    -61.505371     0.000000     0.009104   -61.496267
	   15 D(5,2,1,6)      =    180.000000     0.000000     0.000000   180.000000
	 ---------------------------------------------------------------------------
	Successfully symmetrized geometry.

  ==> Convergence Check <==

  Measures of convergence in internal coordinates in au.
  Criteria marked as inactive (o), active & met (*), and active & unmet ( ).
  ---------------------------------------------------------------------------------------------
   Step     Total Energy     Delta E     MAX Force     RMS Force      MAX Disp      RMS Disp   
  ---------------------------------------------------------------------------------------------
    Convergence Criteria    1.00e-06 *    3.00e-04 *             o    1.20e-03 *             o
  ---------------------------------------------------------------------------------------------
      4    -115.35308990   -8.99e-07 *    1.60e-04 *    5.77e-05 o    7.26e-04 *    2.64e-04 o  ~
  ---------------------------------------------------------------------------------------------


  **** Optimization is complete! (in 4 steps) ****

  ==> Optimization Summary <==

  Measures of convergence in internal coordinates in au.
  --------------------------------------------------------------------------------------------------------------- ~
   Step         Total Energy             Delta E       MAX Force       RMS Force        MAX Disp        RMS Disp  ~
  --------------------------------------------------------------------------------------------------------------- ~
      1    -115.352163917270   -115.352163917270      0.00974736      0.00542884      0.06287113      0.03243997  ~
      2    -115.352986573111     -0.000822655842      0.00333003      0.00175791      0.01640260      0.00821173  ~
      3    -115.353088999198     -0.000102426087      0.00083534      0.00023254      0.00185532      0.00068161  ~
      4    -115.353089897978     -0.000000898780      0.00015978      0.00005773      0.00072598      0.00026366  ~
  --------------------------------------------------------------------------------------------------------------- ~

	Writing optimization data to binary file.
	Final energy is   -115.3530898979777
	Final (previous) structure:
	Cartesian Geometry (in Angstrom)
	    O     0.6936901437   0.0371647409   0.0125840164
	    C    -0.7292410081   0.0127768146   0.0043198366
	    H    -1.1367193005  -0.7386564430   0.6913570583
	    H    -1.1367077331  -0.1668857781  -0.9978794063
	    H    -1.0533106959   0.9980928910   0.3378266826
	    H     1.0003195039  -0.8345134212  -0.2824573608
	Saving final (previous) structure.
			--------------------------
			 OPTKING Finished Execution 
			--------------------------

    Final optimized geometry and variables:
    Molecular point group: c1
    Full point group: C1

    Geometry (in Angstrom), charge = 0, multiplicity = 1:

    O            0.693690146401     0.037164741073     0.012584016425
    C           -0.729241010977     0.012776814693     0.004319836608
    H           -1.136719304926    -0.738656445925     0.691357061048
    H           -1.136707737576    -0.166885778708    -0.997879410183
    H           -1.053310700057     0.998092894950     0.337826683955
    H            1.000319507828    -0.834513424482    -0.282457361871

	Removing binary optimization data file.
	Cleaning optimization helper files.

    Psi4 stopped on: Sunday, 29 December 2019 02:03PM
    Psi4 wall time for execution: 0:00:05.33

*** Psi4 exiting successfully. Buy a developer a beer!
