Generated by Psi4
        SP                        DF-MP2                      6-311G**
Number of atoms                            I                6
Charge                                     I                0
Multiplicity                               I                1
Number of electrons                        I               16
Number of alpha electrons                  I                8
Number of beta electrons                   I                8
Number of basis functions                  I               60
Number of independent functions            I               60
Atomic numbers                             I   N=           6
           6           6           1           1           1           1
Nuclear charges                            R   N=           6
  6.00000000e+00  6.00000000e+00  1.00000000e+00  1.00000000e+00  1.00000000e+00
  1.00000000e+00
Current cartesian coordinates              R   N=          18
  1.13919551e-05  1.26141632e+00  0.00000000e+00 -1.16118945e-05 -1.26141621e+00
  0.00000000e+00 -1.74398823e+00  2.33854958e+00  0.00000000e+00  1.74403228e+00
  2.33852150e+00  0.00000000e+00  1.74398734e+00 -2.33855191e+00  0.00000000e+00
 -1.74402877e+00 -2.33852051e+00  0.00000000e+00
Integer atomic weights                     I   N=           6
          12          12           1           1           1           1
Real atomic weights                        R   N=           6
  1.20000000e+01  1.20000000e+01  1.00782503e+00  1.00782503e+00  1.00782503e+00
  1.00782503e+00
Number of primitive shells                 I               58
Number of contracted shells                I               32
Pure/Cartesian d shells                    I                0
Pure/Cartesian f shells                    I                0
Highest angular momentum                   I                2
Largest degree of contraction              I                6
Shell types                                I   N=          32
           0           0           1           0           1           0
           1          -2           0           0           1           0
           1           0           1          -2           0           0
           0           1           0           0           0           1
           0           0           0           1           0           0
           0           1
Number of primitives per shell             I   N=          32
           6           3           3           1           1           1
           1           1           6           3           3           1
           1           1           1           1           3           1
           1           1           3           1           1           1
           3           1           1           1           3           1
           1           1
Shell to atom map                          I   N=          32
           1           1           1           1           1           1
           1           1           2           2           2           2
           2           2           2           2           3           3
           3           3           4           4           4           4
           5           5           5           5           6           6
           6           6
Primitive exponents                        R   N=          58
  4.56324000e+03  6.82024000e+02  1.54973000e+02  4.44553000e+01  1.30290000e+01
  1.82773000e+00  2.09642000e+01  4.80331000e+00  1.45933000e+00  2.09642000e+01
  4.80331000e+00  1.45933000e+00  4.83456000e-01  4.83456000e-01  1.45585000e-01
  1.45585000e-01  6.26000000e-01  4.56324000e+03  6.82024000e+02  1.54973000e+02
  4.44553000e+01  1.30290000e+01  1.82773000e+00  2.09642000e+01  4.80331000e+00
  1.45933000e+00  2.09642000e+01  4.80331000e+00  1.45933000e+00  4.83456000e-01
  4.83456000e-01  1.45585000e-01  1.45585000e-01  6.26000000e-01  3.38650000e+01
  5.09479000e+00  1.15879000e+00  3.25840000e-01  1.02741000e-01  7.50000000e-01
  3.38650000e+01  5.09479000e+00  1.15879000e+00  3.25840000e-01  1.02741000e-01
  7.50000000e-01  3.38650000e+01  5.09479000e+00  1.15879000e+00  3.25840000e-01
  1.02741000e-01  7.50000000e-01  3.38650000e+01  5.09479000e+00  1.15879000e+00
  3.25840000e-01  1.02741000e-01  7.50000000e-01
Contraction coefficients                   R   N=          58
  1.96665025e-03  1.52306019e-02  7.61269097e-02  2.60801033e-01  6.16462078e-01
  2.21006028e-01  1.14660081e-01  9.19999648e-01 -3.03068213e-03  4.02486927e-02
  2.37593957e-01  8.15853851e-01  1.00000000e+00  1.00000000e+00  1.00000000e+00
  1.00000000e+00  1.00000000e+00  1.96665025e-03  1.52306019e-02  7.61269097e-02
  2.60801033e-01  6.16462078e-01  2.21006028e-01  1.14660081e-01  9.19999648e-01
 -3.03068213e-03  4.02486927e-02  2.37593957e-01  8.15853851e-01  1.00000000e+00
  1.00000000e+00  1.00000000e+00  1.00000000e+00  1.00000000e+00  2.54938145e-02
  1.90373109e-01  8.52161486e-01  1.00000000e+00  1.00000000e+00  1.00000000e+00
  2.54938145e-02  1.90373109e-01  8.52161486e-01  1.00000000e+00  1.00000000e+00
  1.00000000e+00  2.54938145e-02  1.90373109e-01  8.52161486e-01  1.00000000e+00
  1.00000000e+00  1.00000000e+00  2.54938145e-02  1.90373109e-01  8.52161486e-01
  1.00000000e+00  1.00000000e+00  1.00000000e+00
Coordinates of each shell                  R   N=          96
  1.13919551e-05  1.26141632e+00  0.00000000e+00  1.13919551e-05  1.26141632e+00
  0.00000000e+00  1.13919551e-05  1.26141632e+00  0.00000000e+00  1.13919551e-05
  1.26141632e+00  0.00000000e+00  1.13919551e-05  1.26141632e+00  0.00000000e+00
  1.13919551e-05  1.26141632e+00  0.00000000e+00  1.13919551e-05  1.26141632e+00
  0.00000000e+00  1.13919551e-05  1.26141632e+00  0.00000000e+00 -1.16118945e-05
 -1.26141621e+00  0.00000000e+00 -1.16118945e-05 -1.26141621e+00  0.00000000e+00
 -1.16118945e-05 -1.26141621e+00  0.00000000e+00 -1.16118945e-05 -1.26141621e+00
  0.00000000e+00 -1.16118945e-05 -1.26141621e+00  0.00000000e+00 -1.16118945e-05
 -1.26141621e+00  0.00000000e+00 -1.16118945e-05 -1.26141621e+00  0.00000000e+00
 -1.16118945e-05 -1.26141621e+00  0.00000000e+00 -1.74398823e+00  2.33854958e+00
  0.00000000e+00 -1.74398823e+00  2.33854958e+00  0.00000000e+00 -1.74398823e+00
  2.33854958e+00  0.00000000e+00 -1.74398823e+00  2.33854958e+00  0.00000000e+00
  1.74403228e+00  2.33852150e+00  0.00000000e+00  1.74403228e+00  2.33852150e+00
  0.00000000e+00  1.74403228e+00  2.33852150e+00  0.00000000e+00  1.74403228e+00
  2.33852150e+00  0.00000000e+00  1.74398734e+00 -2.33855191e+00  0.00000000e+00
  1.74398734e+00 -2.33855191e+00  0.00000000e+00  1.74398734e+00 -2.33855191e+00
  0.00000000e+00  1.74398734e+00 -2.33855191e+00  0.00000000e+00 -1.74402877e+00
 -2.33852051e+00  0.00000000e+00 -1.74402877e+00 -2.33852051e+00  0.00000000e+00
 -1.74402877e+00 -2.33852051e+00  0.00000000e+00 -1.74402877e+00 -2.33852051e+00
  0.00000000e+00
Total Energy                               R     -7.834422331205863e+01
Alpha Orbital Energies                     R   N=          60
 -1.12300287e+01 -1.12283396e+01 -1.03091071e+00 -7.90911033e-01 -6.39976202e-01
 -5.86182525e-01 -5.04708221e-01 -3.74784466e-01  1.61746772e-01  1.71271916e-01
  1.97167605e-01  1.98939691e-01  2.62478158e-01  4.50054887e-01  4.54997643e-01
  4.73055564e-01  5.64374637e-01  5.89322575e-01  5.97665890e-01  7.17397037e-01
  7.83732611e-01  8.47109083e-01  8.72097963e-01  8.99187338e-01  9.19958702e-01
  1.04484653e+00  1.23527911e+00  1.34357586e+00  1.36096255e+00  1.60177368e+00
  1.63263541e+00  1.68683682e+00  1.80810969e+00  1.82765558e+00  1.84889192e+00
  1.86339280e+00  2.04411497e+00  2.07526032e+00  2.18973124e+00  2.27253937e+00
  2.39567829e+00  2.40749247e+00  2.45773821e+00  2.48124436e+00  2.60316036e+00
  2.64515558e+00  2.85983236e+00  2.87886485e+00  2.88518563e+00  2.95082444e+00
  3.03696072e+00  3.14330812e+00  3.23755272e+00  3.47975870e+00  3.80610445e+00
  4.04275779e+00  4.22020377e+00  4.51998863e+00  2.48823986e+01  2.54191956e+01
Alpha MO coefficients                      R   N=        3600
  3.98281336e-01  3.29842670e-01  1.55154912e-09  5.30254054e-05  0.00000000e+00
  3.05440031e-03 -6.50066327e-09 -3.19102697e-04  0.00000000e+00 -2.42955979e-04
  3.36587884e-11  1.05264761e-05  0.00000000e+00 -2.25971720e-04  0.00000000e+00
  0.00000000e+00 -2.37027952e-04  2.53458979e-09  3.98230233e-01  3.29800342e-01
 -3.95114381e-10 -5.29661049e-05  0.00000000e+00  3.05403855e-03  1.97025342e-09
  3.19008804e-04  0.00000000e+00 -2.42959337e-04  4.82301983e-10 -1.05237397e-05
  0.00000000e+00 -2.25919709e-04  0.00000000e+00  0.00000000e+00 -2.36991081e-04
  4.91441770e-09  2.99177610e-04 -5.78882428e-05  1.49549797e-04 -8.77347117e-06
 -4.53345637e-05  0.00000000e+00  2.99176538e-04 -5.78832978e-05  1.49547686e-04
  8.77097658e-06 -4.53359416e-05  0.00000000e+00  2.99139912e-04 -5.78923736e-05
  1.49541450e-04  8.77956261e-06  4.53321862e-05  0.00000000e+00  2.99140039e-04
 -5.78932417e-05  1.49542044e-04 -8.77939235e-06  4.53321593e-05  0.00000000e+00
  3.98403978e-01  3.29998347e-01  5.12612227e-09  4.61439944e-04  0.00000000e+00
  2.85748149e-03 -9.75771606e-09 -7.19810941e-04  0.00000000e+00  2.51379511e-05
 -4.94805199e-10  2.46281545e-05  0.00000000e+00 -4.15643308e-04  0.00000000e+00
  0.00000000e+00 -2.87686627e-04  3.50057220e-09 -3.98455056e-01 -3.30040649e-01
  4.09233452e-09  4.61446559e-04  0.00000000e+00 -2.85787740e-03 -5.70991277e-09
 -7.19850258e-04  0.00000000e+00 -2.51061518e-05  1.10569483e-09  2.46295445e-05
  0.00000000e+00  4.15673074e-04  0.00000000e+00  0.00000000e+00  2.87716727e-04
 -5.86628484e-09  2.93701463e-04  3.84472657e-05  5.82009113e-05  4.74200977e-05
 -2.34128464e-05  0.00000000e+00  2.93700428e-04  3.84518490e-05  5.81996689e-05
 -4.74219381e-05 -2.34131878e-05  0.00000000e+00 -2.93739798e-04 -3.84415640e-05
 -5.82199062e-05  4.74191547e-05 -2.34193436e-05  0.00000000e+00 -2.93740095e-04
 -3.84396558e-05 -5.82200655e-05 -4.74189609e-05 -2.34182654e-05  0.00000000e+00
  8.35986005e-02  1.37569192e-01  5.74861130e-07  4.96072015e-02  0.00000000e+00
 -3.47038379e-01  8.05451964e-07  7.73636428e-02  0.00000000e+00 -1.86216539e-01
  1.62438493e-07  1.35528004e-02  0.00000000e+00  1.16189558e-02  0.00000000e+00
  0.00000000e+00  1.37412125e-02 -2.47806041e-07  8.35986586e-02  1.37569285e-01
 -4.09031986e-07 -4.96071093e-02  0.00000000e+00 -3.47038566e-01 -6.51931406e-07
 -7.73635525e-02  0.00000000e+00 -1.86216597e-01 -1.08345327e-07 -1.35527621e-02
  0.00000000e+00  1.16189660e-02  0.00000000e+00  0.00000000e+00  1.37412195e-02
 -2.50414620e-07 -5.11762493e-02 -6.62331707e-02  3.98606381e-03 -1.07204405e-02
  8.71583160e-03  0.00000000e+00 -5.11759905e-02 -6.62329124e-02  3.98602139e-03
  1.07205504e-02  8.71561037e-03  0.00000000e+00 -5.11761930e-02 -6.62331166e-02
  3.98604213e-03  1.07204196e-02 -8.71583160e-03  0.00000000e+00 -5.11762679e-02
 -6.62331921e-02  3.98604293e-03 -1.07205800e-02 -8.71565299e-03  0.00000000e+00
  6.38049681e-02  1.06224897e-01 -3.41961266e-07 -7.08593350e-02  0.00000000e+00
 -2.72202279e-01 -6.82407608e-07 -1.16040557e-01  0.00000000e+00 -2.07088426e-01
 -3.21227487e-07 -4.85837878e-02  0.00000000e+00  9.28010421e-03  0.00000000e+00
  0.00000000e+00 -1.35769235e-02  2.86177116e-07 -6.38049014e-02 -1.06224781e-01
 -6.54746739e-07 -7.08597611e-02  0.00000000e+00  2.72201926e-01 -1.04792486e-06
 -1.16041140e-01  0.00000000e+00  2.07088161e-01 -4.29638860e-07 -4.85839702e-02
  0.00000000e+00 -9.28010316e-03  0.00000000e+00  0.00000000e+00  1.35769549e-02
 -2.09195976e-07 -8.78715873e-02 -1.25025037e-01 -1.65585189e-02 -1.51375689e-02
  5.49237758e-03  0.00000000e+00 -8.78711363e-02 -1.25024528e-01 -1.65584592e-02
  1.51376235e-02  5.49208862e-03  0.00000000e+00  8.78714876e-02  1.25024917e-01
  1.65585115e-02 -1.51375648e-02  5.49236998e-03  0.00000000e+00  8.78715738e-02
  1.25024997e-01  1.65585249e-02  1.51376617e-02  5.49210510e-03  0.00000000e+00
 -9.01880169e-08 -1.55684638e-07  1.40427044e-01 -1.74833283e-06  0.00000000e+00
  4.36113718e-07  2.14524257e-01 -2.60503322e-06  0.00000000e+00  4.38445135e-07
  1.12970856e-01 -1.30815708e-06  0.00000000e+00 -2.05282552e-10  0.00000000e+00
  0.00000000e+00 -1.89181560e-08  4.39423306e-03  1.05362457e-09  4.09633013e-10
  1.40427180e-01 -6.79877429e-07  0.00000000e+00  1.61050245e-08  2.14524386e-01
 -1.07054236e-06  0.00000000e+00 -9.34594395e-08  1.12970913e-01 -6.43347626e-07
  0.00000000e+00  7.50149636e-09  0.00000000e+00  0.00000000e+00 -1.59052843e-07
 -4.39428122e-03 -9.41426797e-02 -1.45160235e-01 -3.87394445e-02 -1.06765263e-02
  1.02846508e-02  0.00000000e+00  9.41423474e-02  1.45159882e-01  3.87393709e-02
 -1.06766743e-02 -1.02844992e-02  0.00000000e+00  9.41423619e-02  1.45159783e-01
  3.87393303e-02 -1.06764597e-02  1.02846976e-02  0.00000000e+00 -9.41428693e-02
 -1.45160541e-01 -3.87395432e-02 -1.06767225e-02 -1.02845019e-02  0.00000000e+00
  6.01490816e-03  1.00855721e-02  1.92626785e-06  1.82795123e-01  0.00000000e+00
 -3.11413974e-02  2.94729397e-06  2.74184668e-01  0.00000000e+00  2.21944566e-02
  1.60791134e-06  1.41868710e-01  0.00000000e+00 -2.03592297e-03  0.00000000e+00
  0.00000000e+00  2.44146765e-02 -4.45676128e-07  6.01503412e-03  1.00857855e-02
 -1.28541045e-06 -1.82795018e-01  0.00000000e+00 -3.11419626e-02 -1.88845752e-06
 -2.74184378e-01  0.00000000e+00  2.21937325e-02 -9.53383031e-07 -1.41868572e-01
  0.00000000e+00 -2.03591996e-03  0.00000000e+00  0.00000000e+00  2.44145893e-02
 -4.60140577e-07  7.45968897e-02  1.18184734e-01  4.17634424e-02  1.25918094e-02
  2.38048080e-03  0.00000000e+00  7.45973260e-02  1.18185533e-01  4.17636864e-02
 -1.25918249e-02  2.38061335e-03  0.00000000e+00  7.45972313e-02  1.18185311e-01
  4.17636030e-02 -1.25918540e-02 -2.38040503e-03  0.00000000e+00  7.45967528e-02
  1.18184507e-01  4.17632995e-02  1.25917658e-02 -2.38068384e-03  0.00000000e+00
 -4.29516562e-08 -7.61175472e-08  1.33114805e-01 -1.18740891e-06  0.00000000e+00
  1.99538300e-07  2.05669504e-01 -1.77056895e-06  0.00000000e+00  4.51585726e-07
  1.60050556e-01 -1.34660791e-06  0.00000000e+00 -1.66961264e-09  0.00000000e+00
  0.00000000e+00  7.10041688e-07  4.04413564e-02  1.56151846e-08  2.70142032e-08
 -1.33114796e-01  1.25972941e-06  0.00000000e+00 -6.99822836e-08 -2.05669459e-01
  1.97132620e-06  0.00000000e+00 -1.32072810e-07 -1.60050473e-01  1.55125013e-06
  0.00000000e+00  1.95206081e-09  0.00000000e+00  0.00000000e+00  7.10685689e-07
  4.04413942e-02 -1.11047352e-01 -1.78557261e-01 -8.18478437e-02 -6.60313851e-03
  9.11853054e-03  0.00000000e+00  1.11047437e-01  1.78557542e-01  8.18480553e-02
 -6.60332883e-03 -9.11841807e-03  0.00000000e+00 -1.11047430e-01 -1.78557409e-01
 -8.18479673e-02  6.60313504e-03 -9.11853330e-03  0.00000000e+00  1.11047323e-01
  1.78557193e-01  8.18478600e-02  6.60326834e-03  9.11841959e-03  0.00000000e+00
  0.00000000e+00  0.00000000e+00  0.00000000e+00  0.00000000e+00  1.65286142e-01
  0.00000000e+00  0.00000000e+00  0.00000000e+00  2.69163026e-01  0.00000000e+00
  0.00000000e+00  0.00000000e+00  2.79463240e-01  0.00000000e+00 -2.95867451e-07
 -3.09472292e-02  0.00000000e+00  0.00000000e+00  0.00000000e+00  0.00000000e+00
  0.00000000e+00  0.00000000e+00  1.65286126e-01  0.00000000e+00  0.00000000e+00
  0.00000000e+00  2.69163004e-01  0.00000000e+00  0.00000000e+00  0.00000000e+00
  2.79463244e-01  0.00000000e+00  2.73968452e-07  3.09472155e-02  0.00000000e+00
  0.00000000e+00  0.00000000e+00  0.00000000e+00  0.00000000e+00  0.00000000e+00
  0.00000000e+00  1.24842847e-02  0.00000000e+00  0.00000000e+00  0.00000000e+00
  0.00000000e+00  0.00000000e+00  1.24842536e-02  0.00000000e+00  0.00000000e+00
  0.00000000e+00  0.00000000e+00  0.00000000e+00  1.24842716e-02  0.00000000e+00
  0.00000000e+00  0.00000000e+00  0.00000000e+00  0.00000000e+00  1.24842829e-02
  0.00000000e+00  0.00000000e+00  0.00000000e+00  0.00000000e+00  1.62451544e-01
  0.00000000e+00  0.00000000e+00  0.00000000e+00  2.04641807e-01  0.00000000e+00
  0.00000000e+00  0.00000000e+00  7.89486027e-01  0.00000000e+00  2.35276671e-07
  2.76806252e-02  0.00000000e+00  0.00000000e+00  0.00000000e+00  0.00000000e+00
  0.00000000e+00  0.00000000e+00 -1.62451530e-01  0.00000000e+00  0.00000000e+00
  0.00000000e+00 -2.04641803e-01  0.00000000e+00  0.00000000e+00  0.00000000e+00
 -7.89486026e-01  0.00000000e+00  2.57790688e-07  2.76806409e-02  0.00000000e+00
  0.00000000e+00  0.00000000e+00  0.00000000e+00  0.00000000e+00  0.00000000e+00
  0.00000000e+00  1.84521866e-02  0.00000000e+00  0.00000000e+00  0.00000000e+00
  0.00000000e+00  0.00000000e+00  1.84521730e-02  0.00000000e+00  0.00000000e+00
  0.00000000e+00  0.00000000e+00  0.00000000e+00 -1.84521830e-02  0.00000000e+00
  0.00000000e+00  0.00000000e+00  0.00000000e+00  0.00000000e+00 -1.84522012e-02
  2.75626017e-02  4.31279784e-02 -7.25566227e-07 -6.02099502e-02  0.00000000e+00
 -3.85970153e-02 -7.92769755e-07 -5.89034006e-02  0.00000000e+00 -1.26582307e+00
 -4.75705240e-06 -4.28146817e-01  0.00000000e+00  3.09765295e-03  0.00000000e+00
  0.00000000e+00  5.05945437e-03 -4.64783668e-08  2.75625082e-02  4.31278199e-02
  4.19116136e-07  6.02098527e-02  0.00000000e+00 -3.85966125e-02  4.19137668e-07
  5.89033105e-02  0.00000000e+00 -1.26582128e+00  3.35348955e-06  4.28146850e-01
  0.00000000e+00  3.09768930e-03  0.00000000e+00  0.00000000e+00  5.05943844e-03
 -1.59780892e-07  9.34900127e-03 -5.30551915e-02  8.88996694e-01 -7.10128592e-03
  1.04579761e-03  0.00000000e+00  9.34913743e-03 -5.30551890e-02  8.88998542e-01
  7.10128223e-03  1.04567285e-03  0.00000000e+00  9.34898904e-03 -5.30550946e-02
  8.88997182e-01  7.10127252e-03 -1.04581910e-03  0.00000000e+00  9.34884293e-03
 -5.30551322e-02  8.88995390e-01 -7.10127208e-03 -1.04565458e-03  0.00000000e+00
 -8.09105042e-07 -1.36726877e-06  9.92032849e-02  1.37240345e-07  0.00000000e+00
  2.34771244e-06  4.14756020e-02 -1.22747388e-06  0.00000000e+00  2.76006285e-05
  6.65177147e-01  2.81192907e-06  0.00000000e+00 -9.05906887e-08  0.00000000e+00
  0.00000000e+00 -1.16000130e-06 -3.61808732e-02  8.61491595e-07  1.42548371e-06
  9.92031396e-02  1.53549714e-07  0.00000000e+00 -2.03541406e-06  4.14752305e-02
 -1.42741717e-06  0.00000000e+00 -3.21867225e-05  6.65175801e-01  3.54381107e-06
  0.00000000e+00  9.72726467e-08  0.00000000e+00  0.00000000e+00  1.19473523e-06
  3.61810066e-02  1.60881639e-02 -9.43615385e-02  1.19567760e+00 -2.26923378e-02
  1.38825341e-02  0.00000000e+00 -1.60891716e-02  9.43653863e-02 -1.19572659e+00
 -2.26929397e-02 -1.38827068e-02  0.00000000e+00 -1.60882589e-02  9.43611648e-02
 -1.19567412e+00 -2.26923083e-02  1.38825558e-02  0.00000000e+00  1.60890088e-02
 -9.43661054e-02  1.19572904e+00 -2.26930747e-02 -1.38828332e-02  0.00000000e+00
  3.36504252e-02  5.60599187e-02  1.92379076e-06 -4.26129404e-02  0.00000000e+00
 -8.29809950e-02  1.03535775e-06  4.33744991e-02  0.00000000e+00 -1.26503510e+00
  1.28240812e-05 -3.64147763e-01  0.00000000e+00  4.17619839e-03  0.00000000e+00
  0.00000000e+00  2.32545444e-02 -1.33444795e-06 -3.36504502e-02 -5.60599457e-02
  2.10102461e-06 -4.26130031e-02  0.00000000e+00  8.29807796e-02  1.51822178e-06
  4.33745836e-02  0.00000000e+00  1.26503835e+00  1.32448065e-05 -3.64148914e-01
  0.00000000e+00 -4.17621811e-03  0.00000000e+00  0.00000000e+00 -2.32545270e-02
  1.27681607e-06  1.62219740e-02 -9.57299352e-02  1.08604114e+00 -9.88463152e-03
  1.32481204e-02  0.00000000e+00  1.62213404e-02 -9.57251441e-02  1.08598180e+00
  9.88363550e-03  1.32472542e-02  0.00000000e+00 -1.62219341e-02  9.57302835e-02
 -1.08604271e+00 -9.88457969e-03  1.32481607e-02  0.00000000e+00 -1.62211953e-02
  9.57252895e-02 -1.08598430e+00  9.88371408e-03  1.32473220e-02  0.00000000e+00
  6.75996123e-09  1.52512210e-09  9.31774045e-02 -8.01785588e-07  0.00000000e+00
  1.87780949e-07  3.43616926e-02 -6.72217052e-08  0.00000000e+00 -3.13102773e-06
  1.40531785e+00 -1.23021188e-05  0.00000000e+00  3.91695320e-08  0.00000000e+00
  0.00000000e+00  7.70692357e-08  1.92541905e-03  7.84188305e-09  1.46218463e-08
 -9.31774856e-02  7.93246756e-07  0.00000000e+00 -1.14357257e-07 -3.43615507e-02
  4.24655489e-07  0.00000000e+00  1.69929075e-06 -1.40531835e+00  1.26801913e-05
  0.00000000e+00 -8.67373699e-09  0.00000000e+00  0.00000000e+00  1.85183298e-08
  1.92531974e-03 -1.12353636e-02 -4.20079470e-02  1.66241187e+00 -1.31602177e-02
  2.84027386e-03  0.00000000e+00  1.12351487e-02  4.20076858e-02 -1.66240882e+00
 -1.31601680e-02 -2.83995370e-03  0.00000000e+00 -1.12352514e-02 -4.20082474e-02
  1.66241253e+00  1.31602556e-02 -2.84027019e-03  0.00000000e+00  1.12353194e-02
  4.20084008e-02 -1.66241429e+00  1.31603286e-02  2.84007803e-03  0.00000000e+00
  1.50564347e-02  2.34348581e-02  6.24742967e-07  7.12969023e-02  0.00000000e+00
  1.71144529e-02  4.78557449e-07  6.10255574e-02  0.00000000e+00 -3.56576118e+00
  2.88701683e-05  3.35350636e+00  0.00000000e+00  5.36991137e-03  0.00000000e+00
  0.00000000e+00 -1.25504893e-02  1.79278043e-07 -1.50571702e-02 -2.34364804e-02
  5.97760992e-07  7.12981546e-02  0.00000000e+00 -1.71076816e-02  5.14453273e-07
  6.10367377e-02  0.00000000e+00  3.56583332e+00  3.12928014e-05  3.35342911e+00
  0.00000000e+00 -5.36934676e-03  0.00000000e+00  0.00000000e+00  1.25501033e-02
 -2.65662613e-07 -2.00580721e-02 -3.20506068e-01 -5.76299310e-01  4.34953758e-03
  3.80104452e-03  0.00000000e+00 -2.00580404e-02 -3.20506127e-01 -5.76295714e-01
 -4.34956676e-03  3.80112797e-03  0.00000000e+00  2.00563237e-02  3.20456473e-01
  5.76296318e-01  4.35029496e-03  3.79907638e-03  0.00000000e+00  2.00562226e-02
  3.20456423e-01  5.76298576e-01 -4.35019969e-03  3.79920727e-03  0.00000000e+00
  1.05138832e-02  2.35118979e-02 -1.56283008e-08  2.17231645e-02  0.00000000e+00
 -1.02101970e-01  1.45383571e-06  1.73877481e-01  0.00000000e+00 -1.10345023e+00
 -8.25242551e-06 -1.17071332e+00  0.00000000e+00 -6.27365957e-03  0.00000000e+00
  0.00000000e+00  5.71728694e-03  1.51738593e-07  1.05127539e-02  2.35101418e-02
 -2.54671217e-07 -2.17182819e-02  0.00000000e+00 -1.02103265e-01 -1.89001629e-06
 -1.73873033e-01  0.00000000e+00 -1.10319655e+00  6.42206218e-06  1.17095252e+00
  0.00000000e+00 -6.27397491e-03  0.00000000e+00  0.00000000e+00  5.71817637e-03
 -1.77671470e-07  2.27688475e-02  7.25966741e-01  2.83503533e-02  1.10494626e-02
 -2.89469810e-02  0.00000000e+00  2.27693117e-02  7.25969052e-01  2.83455724e-02
 -1.10498502e-02 -2.89465003e-02  0.00000000e+00  2.27704082e-02  7.25992155e-01
  2.83904532e-02 -1.10493064e-02  2.89470801e-02  0.00000000e+00  2.27700380e-02
  7.25985767e-01  2.83921879e-02  1.10495583e-02  2.89468805e-02  0.00000000e+00
 -6.07621626e-08 -6.06837914e-08  3.09853577e-02 -3.43830587e-08  0.00000000e+00
 -5.52482656e-07  1.36366600e-01 -8.02211976e-08  0.00000000e+00 -2.89249065e-06
  6.83783127e-01 -1.17888663e-05  0.00000000e+00  1.39501397e-07  0.00000000e+00
  0.00000000e+00 -2.36068199e-07 -1.33577728e-02  9.64482993e-08  2.02638271e-07
  3.09852515e-02 -6.36575169e-07  0.00000000e+00 -9.15218900e-07  1.36366805e-01
 -2.35438047e-06  0.00000000e+00 -6.43053514e-06  6.83787113e-01 -2.06821603e-06
  0.00000000e+00  5.07766218e-08  0.00000000e+00  0.00000000e+00  2.08386494e-07
  1.33574576e-02  6.22751850e-02  8.21220132e-01 -1.73223122e-01  3.90157196e-02
  1.05902410e-02  0.00000000e+00 -6.22754173e-02 -8.21219400e-01  1.73228105e-01
  3.90152783e-02 -1.05911739e-02  0.00000000e+00 -6.22752454e-02 -8.21218044e-01
  1.73224085e-01  3.90156347e-02  1.05902371e-02  0.00000000e+00  6.22754119e-02
  8.21224032e-01 -1.73224141e-01  3.90156089e-02 -1.05906289e-02  0.00000000e+00
  8.05862906e-03  2.19678216e-02  9.64490854e-07  9.61561101e-02  0.00000000e+00
 -3.70043342e-01  3.51442323e-06  4.81631823e-01  0.00000000e+00  8.11766042e-01
 -6.27164862e-06 -4.22410200e-01  0.00000000e+00  2.66581847e-02  0.00000000e+00
  0.00000000e+00  1.35009164e-02 -4.67311787e-07  8.05891094e-03  2.19682901e-02
 -9.42250874e-07 -9.61562415e-02  0.00000000e+00 -3.70043677e-01 -4.83253146e-06
 -4.81631651e-01  0.00000000e+00  8.11740504e-01  1.53110217e-06  4.22392996e-01
  0.00000000e+00  2.66580778e-02  0.00000000e+00  0.00000000e+00  1.35006974e-02
 -1.14947032e-07 -3.08299999e-02 -5.87353926e-01  6.13884063e-02 -2.92433244e-02
  8.50303841e-03  0.00000000e+00 -3.08299528e-02 -5.87350218e-01  6.13920060e-02
  2.92428392e-02  8.50216412e-03  0.00000000e+00 -3.08295513e-02 -5.87346077e-01
  6.13849709e-02  2.92429528e-02 -8.50277888e-03  0.00000000e+00 -3.08298151e-02
 -5.87350779e-01  6.13855342e-02 -2.92434636e-02 -8.50229100e-03  0.00000000e+00
  0.00000000e+00  0.00000000e+00  0.00000000e+00  0.00000000e+00  1.31966053e-01
  0.00000000e+00  0.00000000e+00  0.00000000e+00  6.39565710e-01  0.00000000e+00
  0.00000000e+00  0.00000000e+00 -6.87287866e-01  0.00000000e+00 -5.63183446e-07
 -6.01287301e-02  0.00000000e+00  0.00000000e+00  0.00000000e+00  0.00000000e+00
  0.00000000e+00  0.00000000e+00  1.31966007e-01  0.00000000e+00  0.00000000e+00
  0.00000000e+00  6.39565597e-01  0.00000000e+00  0.00000000e+00  0.00000000e+00
 -6.87287701e-01  0.00000000e+00  5.36911262e-07  6.01287316e-02  0.00000000e+00
  0.00000000e+00  0.00000000e+00  0.00000000e+00  0.00000000e+00  0.00000000e+00
  0.00000000e+00  5.00627447e-03  0.00000000e+00  0.00000000e+00  0.00000000e+00
  0.00000000e+00  0.00000000e+00  5.00618832e-03  0.00000000e+00  0.00000000e+00
  0.00000000e+00  0.00000000e+00  0.00000000e+00  5.00624654e-03  0.00000000e+00
  0.00000000e+00  0.00000000e+00  0.00000000e+00  0.00000000e+00  5.00626636e-03
  4.39315922e-02  7.70768101e-02 -9.86499978e-09  3.57760713e-02  0.00000000e+00
 -6.48994966e-02 -7.08693475e-07 -1.06891781e-01  0.00000000e+00 -3.79398390e+00
  1.79991148e-05  1.48136781e+00  0.00000000e+00  1.74726467e-03  0.00000000e+00
  0.00000000e+00 -5.88113584e-02  1.33045399e-06 -4.39314697e-02 -7.70765749e-02
  5.86836793e-07  3.57757346e-02  0.00000000e+00  6.48967801e-02 -6.33669471e-07
 -1.06894236e-01  0.00000000e+00  3.79399765e+00  1.46296074e-05  1.48136423e+00
  0.00000000e+00 -1.74728063e-03  0.00000000e+00  0.00000000e+00  5.88115196e-02
 -1.04942740e-06  4.93914044e-02  9.86625813e-01 -4.57138183e-01  2.61097507e-02
 -2.91323863e-02  0.00000000e+00  4.93913781e-02  9.86621783e-01 -4.57143183e-01
 -2.61095666e-02 -2.91315599e-02  0.00000000e+00 -4.93916334e-02 -9.86631834e-01
  4.57139371e-01  2.61099036e-02 -2.91323420e-02  0.00000000e+00 -4.93913435e-02
 -9.86627689e-01  4.57137571e-01 -2.61103583e-02 -2.91321204e-02  0.00000000e+00
  0.00000000e+00  0.00000000e+00  0.00000000e+00  0.00000000e+00  1.82397311e-01
  0.00000000e+00  0.00000000e+00  0.00000000e+00  7.23861933e-01  0.00000000e+00
  0.00000000e+00  0.00000000e+00 -1.21744766e+00  0.00000000e+00  3.29618968e-07
  3.75375514e-02  0.00000000e+00  0.00000000e+00  0.00000000e+00  0.00000000e+00
  0.00000000e+00  0.00000000e+00 -1.82397320e-01  0.00000000e+00  0.00000000e+00
  0.00000000e+00 -7.23862027e-01  0.00000000e+00  0.00000000e+00  0.00000000e+00
  1.21744777e+00  0.00000000e+00  3.39604200e-07  3.75375465e-02  0.00000000e+00
  0.00000000e+00  0.00000000e+00  0.00000000e+00  0.00000000e+00  0.00000000e+00
  0.00000000e+00  2.65169428e-02  0.00000000e+00  0.00000000e+00  0.00000000e+00
  0.00000000e+00  0.00000000e+00  2.65167607e-02  0.00000000e+00  0.00000000e+00
  0.00000000e+00  0.00000000e+00  0.00000000e+00 -2.65168715e-02  0.00000000e+00
  0.00000000e+00  0.00000000e+00  0.00000000e+00  0.00000000e+00 -2.65168943e-02
 -1.53116188e-07 -3.14395598e-07  1.53969481e-01 -1.10730039e-06  0.00000000e+00
  2.55445330e-06  7.36273955e-01 -6.12566968e-06  0.00000000e+00 -6.87859946e-06
 -1.33152236e+00  1.10326642e-05  0.00000000e+00  1.05360044e-07  0.00000000e+00
  0.00000000e+00 -1.54527041e-06 -7.38110247e-02 -1.24582405e-07 -2.49719828e-07
  1.53968628e-01 -1.49421852e-06  0.00000000e+00  1.51470337e-06  7.36271701e-01
 -6.74325989e-06  0.00000000e+00 -3.47574998e-07 -1.33152649e+00  1.40883857e-05
  0.00000000e+00  2.10491551e-08  0.00000000e+00  0.00000000e+00  1.22010193e-06
  7.38111069e-02  2.14175272e-02  1.28801288e-01 -1.02871275e+00 -2.67514163e-02
  6.79734588e-03  0.00000000e+00 -2.14176870e-02 -1.28798654e-01  1.02871419e+00
 -2.67523319e-02 -6.79713225e-03  0.00000000e+00 -2.14175044e-02 -1.28796113e-01
  1.02871374e+00 -2.67518370e-02  6.79738345e-03  0.00000000e+00  2.14173256e-02
  1.28795734e-01 -1.02871122e+00 -2.67515839e-02 -6.79677014e-03  0.00000000e+00
 -4.73672059e-07 -1.00846054e-06  2.05646098e-01 -8.25328393e-07  0.00000000e+00
  8.48269500e-06  7.44522939e-01 -4.15851620e-06  0.00000000e+00 -2.27700604e-05
 -2.21819229e+00  1.56017800e-05  0.00000000e+00  3.04183421e-07  0.00000000e+00
  0.00000000e+00 -7.35707187e-07 -9.86151181e-03 -3.17804419e-07 -6.61164730e-07
 -2.05646549e-01  1.82808894e-06  0.00000000e+00  3.94874073e-06 -7.44525809e-01
  7.25814502e-06  0.00000000e+00 -4.22012758e-07  2.21819603e+00 -1.64777994e-05
  0.00000000e+00  9.72492839e-09  0.00000000e+00  0.00000000e+00 -3.67719304e-07
 -9.86168746e-03  3.30336301e-02  1.14640165e-01 -1.24743418e+00 -2.81078070e-02
  6.76038646e-02  0.00000000e+00 -3.30342214e-02 -1.14635311e-01  1.24744454e+00
 -2.81111818e-02 -6.76041189e-02  0.00000000e+00  3.30338933e-02  1.14638054e-01
 -1.24744174e+00  2.81083999e-02 -6.76041124e-02  0.00000000e+00 -3.30340795e-02
 -1.14640914e-01  1.24744668e+00  2.81101105e-02  6.76038101e-02  0.00000000e+00
  7.56331931e-02  1.61070527e-01  4.54053554e-07 -9.83769918e-02  0.00000000e+00
 -1.20316772e+00  3.04564457e-06 -2.01440278e-01  0.00000000e+00  2.13372797e+00
 -1.89283958e-05  6.04355175e-01  0.00000000e+00 -3.51395151e-02  0.00000000e+00
  0.00000000e+00  8.61464120e-02 -2.15433579e-06  7.56329599e-02  1.61069981e-01
  1.91351344e-07  9.83757578e-02  0.00000000e+00 -1.20316141e+00 -5.93758484e-07
  2.01434539e-01  0.00000000e+00  2.13370318e+00  1.39777169e-05 -6.04351995e-01
  0.00000000e+00 -3.51393474e-02  0.00000000e+00  0.00000000e+00  8.61460216e-02