
    -----------------------------------------------------------------------
          Psi4: An Open-Source Ab Initio Electronic Structure Package
                               Psi4 1.3.2 release

                         Git: Rev {HEAD} ecbda83 


    R. M. Parrish, L. A. Burns, D. G. A. Smith, A. C. Simmonett,
    A. E. DePrince III, E. G. Hohenstein, U. Bozkaya, A. Yu. Sokolov,
    R. Di Remigio, R. M. Richard, J. F. Gonthier, A. M. James,
    H. R. McAlexander, A. Kumar, M. Saitow, X. Wang, B. P. Pritchard,
    P. Verma, H. F. Schaefer III, K. Patkowski, R. A. King, E. F. Valeev,
    F. A. Evangelista, J. M. Turney, T. D. Crawford, and C. D. Sherrill,
    J. Chem. Theory Comput. 13(7) pp 3185--3197 (2017).
    (doi: 10.1021/acs.jctc.7b00174)


                         Additional Contributions by
    P. Kraus, H. Kruse, M. H. Lechner, M. C. Schieber, R. A. Shaw,
    A. Alenaizan, R. Galvelis, Z. L. Glick, S. Lehtola, and J. P. Misiewicz

    -----------------------------------------------------------------------


    Psi4 started on: Monday, 31 May 2021 05:33PM

    Process ID: 30340
    Host:       daniele-Precision-5750
    PSIDATADIR: /home/daniele/anaconda3/envs/poltype/share/psi4
    Memory:     500.0 MiB
    Threads:    1
    
  ==> Input File <==

--------------------------------------------------------------------------
molecule { 
0 1
 C    0.739494    0.049641   -0.027842
 C   -0.739604   -0.049252    0.027206
 C    1.428892   -0.025476   -1.277555
 C   -1.373653   -1.252289    0.466800
 C    1.503235    0.221807    1.167854
 C   -1.558742    1.056688   -0.358418
 C    2.833397    0.069460   -1.320687
 C   -2.778526   -1.337593    0.516220
 C    2.907207    0.314538    1.106666
 C   -2.962258    0.954184   -0.303251
 C    3.570510    0.238765   -0.133007
 C   -3.570626   -0.238527    0.132575
 H    0.869687   -0.156855   -2.202338
 H   -0.771622   -2.108891    0.765359
 H    1.001393    0.282377    2.132098
 H   -1.099693    1.984158   -0.696494
 H    3.351394    0.011511   -2.276290
 H   -3.254190   -2.257210    0.852289
 H    3.482093    0.445515    2.021671
 H   -3.579507    1.800727   -0.598645
 H    4.655969    0.311215   -0.173351
 H   -4.656056   -0.311056    0.173040
}
set optking { 
  frozen_dihedral = ("
    3 1 2 4
    3 1 2 6
    5 1 2 4
    5 1 2 6
  ")
}
set {
  geom_maxiter 400
  g_convergence GAU_LOOSE
  dynamic_level 1
}
memory 700MB
set_num_threads(3)
psi4_io.set_default_path("/home/daniele/PSI4_sctatch/Psi4-biphenyl")
for _ in range(1):
  try:
    set opt_coordinates both
    optimize('wb97x-d/6-311G')
    break
  except OptimizationConvergenceError:
    break
  else:
    try:
      set opt_coordinates cartesian
      optimize('wb97x-d/6-311G')
      break
    except OptimizationConvergenceError:
      pass
clean()
--------------------------------------------------------------------------

  Memory set to 667.572 MiB by Python driver.
  Threads set to 3 by Python driver.
gradient() will perform analytic gradient computation.

*** tstart() called on daniele-Precision-5750
*** at Mon May 31 17:33:41 2021

   => Loading Basis Set <=

    Name: 6-311G
    Role: ORBITAL
    Keyword: BASIS
    atoms 1-12  entry C          line    92 file /home/daniele/anaconda3/envs/poltype/share/psi4/basis/6-311g.gbs 
    atoms 13-22 entry H          line    21 file /home/daniele/anaconda3/envs/poltype/share/psi4/basis/6-311g.gbs 


         ---------------------------------------------------------
                                   SCF
               by Justin Turney, Rob Parrish, Andy Simmonett
                          and Daniel G. A. Smith
                              RKS Reference
                        3 Threads,    667 MiB Core
         ---------------------------------------------------------

  ==> Geometry <==

    Molecular point group: c1
    Full point group: C1

    Geometry (in Angstrom), charge = 0, multiplicity = 1:

       Center              X                  Y                   Z               Mass       
    ------------   -----------------  -----------------  -----------------  -----------------
         C            0.739549972617     0.049479688023    -0.027556756480    12.000000000000
         C           -0.739548027383    -0.049413311977     0.027491243520    12.000000000000
         C            1.428947972617    -0.025637311977    -1.277269756480    12.000000000000
         C           -1.373597027383    -1.252450311977     0.467085243520    12.000000000000
         C            1.503290972617     0.221645688023     1.168139243520    12.000000000000
         C           -1.558686027383     1.056526688023    -0.358132756480    12.000000000000
         C            2.833452972617     0.069298688023    -1.320401756480    12.000000000000
         C           -2.778470027383    -1.337754311977     0.516505243520    12.000000000000
         C            2.907262972617     0.314376688023     1.106951243520    12.000000000000
         C           -2.962202027383     0.954022688023    -0.302965756480    12.000000000000
         C            3.570565972617     0.238603688023    -0.132721756480    12.000000000000
         C           -3.570570027383    -0.238688311977     0.132860243520    12.000000000000
         H            0.869742972617    -0.157016311977    -2.202052756480     1.007825032230
         H           -0.771566027383    -2.109052311977     0.765644243520     1.007825032230
         H            1.001448972617     0.282215688023     2.132383243520     1.007825032230
         H           -1.099637027383     1.983996688023    -0.696208756480     1.007825032230
         H            3.351449972617     0.011349688023    -2.276004756480     1.007825032230
         H           -3.254134027383    -2.257371311977     0.852574243520     1.007825032230
         H            3.482148972617     0.445353688023     2.021956243520     1.007825032230
         H           -3.579451027383     1.800565688023    -0.598359756480     1.007825032230
         H            4.656024972617     0.311053688023    -0.173065756480     1.007825032230
         H           -4.656000027383    -0.311217311977     0.173325243520     1.007825032230

  Running in c1 symmetry.

  Rotational constants: A =      0.09261  B =      0.01709  C =      0.01636 [cm^-1]
  Rotational constants: A =   2776.49058  B =    512.35508  C =    490.47991 [MHz]
  Nuclear repulsion =  592.359634262825693

  Charge       = 0
  Multiplicity = 1
  Electrons    = 82
  Nalpha       = 41
  Nbeta        = 41

  ==> Algorithm <==

  SCF Algorithm Type is DF.
  DIIS enabled.
  MOM disabled.
  Fractional occupation disabled.
  Guess Type is SAD.
  Energy threshold   = 1.00e-08
  Density threshold  = 1.00e-08
  Integral threshold = 0.00e+00

  ==> Primary Basis <==

  Basis Set: 6-311G
    Blend: 6-311G
    Number of shells: 114
    Number of basis function: 186
    Number of Cartesian functions: 186
    Spherical Harmonics?: true
    Max angular momentum: 1

  ==> DFT Potential <==

   => Composite Functional: WB97X-D <= 

    wB97X-D Hyb-GGA Exchange-Correlation Functional

    J.-D. Chai and M. Head-Gordon, Phys. Chem. Chem. Phys. 10, 6615 (2008)

    Deriv               =              1
    GGA                 =           TRUE
    Meta                =          FALSE

    Exchange Hybrid     =           TRUE
    MP2 Hybrid          =          FALSE

   => Exchange-Correlation Functionals <=

    1.0000   wB97D range-separated functional

   => Exact (HF) Exchange <=

    0.7780            HF,LR [omega = 0.2000]
    0.2220               HF 

   => Molecular Quadrature <=

    Radial Scheme          =       TREUTLER
    Pruning Scheme         =           FLAT
    Nuclear Scheme         =       TREUTLER

    BS radius alpha        =              1
    Pruning alpha          =              1
    Radial Points          =             75
    Spherical Points       =            302
    Total Points           =         491640
    Total Blocks           =           3651
    Max Points             =            256
    Max Functions          =            155

   => WB97X-D: Empirical Dispersion <=

    Chai and Head-Gordon Dispersion Correction
    Chai, J.-D.; Head-Gordon, M. (2010), J. Chem. Phys., 132: 6615-6620

        s6 =       1.000000

   => Loading Basis Set <=

    Name: (6-311G AUX)
    Role: JKFIT
    Keyword: DF_BASIS_SCF
    atoms 1-12  entry C          line   125 file /home/daniele/anaconda3/envs/poltype/share/psi4/basis/cc-pvtz-jkfit.gbs 
    atoms 13-22 entry H          line    51 file /home/daniele/anaconda3/envs/poltype/share/psi4/basis/cc-pvtz-jkfit.gbs 

  ==> Pre-Iterations <==

   -------------------------------------------------------
    Irrep   Nso     Nmo     Nalpha   Nbeta   Ndocc  Nsocc
   -------------------------------------------------------
     A        186     186       0       0       0       0
   -------------------------------------------------------
    Total     186     186      41      41      41       0
   -------------------------------------------------------

  ==> Integral Setup <==

  ==> DiskDFJK: Density-Fitted J/K Matrices <==

    J tasked:                  Yes
    K tasked:                  Yes
    wK tasked:                 Yes
    Omega:               2.000E-01
    OpenMP threads:              3
    Integrals threads:           3
    Memory [MiB]:              172
    Algorithm:                Disk
    Integral Cache:           NONE
    Schwarz Cutoff:          1E-12
    Fitting Condition:       1E-10

   => Auxiliary Basis Set <=

  Basis Set: (6-311G AUX)
    Blend: CC-PVTZ-JKFIT
    Number of shells: 400
    Number of basis function: 1248
    Number of Cartesian functions: 1502
    Spherical Harmonics?: true
    Max angular momentum: 4

  Cached 25.0% of DFT collocation blocks in 0.378 [GiB].

  Minimum eigenvalue in the overlap matrix is 2.7659395140E-04.
  Using Symmetric Orthogonalization.

  SCF Guess: Superposition of Atomic Densities via on-the-fly atomic UHF.

  ==> Iterations <==

                           Total Energy        Delta E     RMS |[F,P]|

   @DF-RKS iter SAD:  -462.20273866202939   -4.62203e+02   0.00000e+00 
   @DF-RKS iter   1:  -462.81726392418943   -6.14525e-01   3.93528e-03 DIIS
   @DF-RKS iter   2:  -463.01717897235596   -1.99915e-01   2.40057e-03 DIIS
   @DF-RKS iter   3:  -463.12167253667752   -1.04494e-01   2.11838e-04 DIIS
   @DF-RKS iter   4:  -463.12203580442457   -3.63268e-04   1.89621e-04 DIIS
   @DF-RKS iter   5:  -463.12272247504183   -6.86671e-04   1.83704e-05 DIIS
   @DF-RKS iter   6:  -463.12273084200984   -8.36697e-06   3.78072e-06 DIIS
   @DF-RKS iter   7:  -463.12273108322421   -2.41214e-07   1.76282e-06 DIIS
   @DF-RKS iter   8:  -463.12273114062180   -5.73976e-08   1.73109e-07 DIIS
   @DF-RKS iter   9:  -463.12273114222239   -1.60060e-09   8.33346e-08 DIIS
   @DF-RKS iter  10:  -463.12273114239008   -1.67688e-10   3.23945e-08 DIIS
   @DF-RKS iter  11:  -463.12273114242754   -3.74598e-11   4.20053e-09 DIIS
  Energy and wave function converged.


  ==> Post-Iterations <==

    Orbital Energies [Eh]
    ---------------------

    Doubly Occupied:                                                      

       1A    -10.312735     2A    -10.312440     3A    -10.299144  
       4A    -10.299143     5A    -10.299130     6A    -10.299128  
       7A    -10.298063     8A    -10.298061     9A    -10.297951  
      10A    -10.297949    11A    -10.296796    12A    -10.296796  
      13A     -0.970746    14A     -0.949478    15A     -0.880140  
      16A     -0.850629    17A     -0.848574    18A     -0.821515  
      19A     -0.724382    20A     -0.706682    21A     -0.698737  
      22A     -0.674334    23A     -0.624011    24A     -0.596061  
      25A     -0.560745    26A     -0.548909    27A     -0.540562  
      28A     -0.537337    29A     -0.513555    30A     -0.512709  
      31A     -0.508485    32A     -0.457360    33A     -0.455346  
      34A     -0.452172    35A     -0.431751    36A     -0.427919  
      37A     -0.419120    38A     -0.334881    39A     -0.333913  
      40A     -0.329030    41A     -0.316294  

    Virtual:                                                              

      42A      0.048324    43A      0.049858    44A      0.066957  
      45A      0.069184    46A      0.127079    47A      0.129638  
      48A      0.155391    49A      0.161286    50A      0.165102  
      51A      0.179316    52A      0.197190    53A      0.203742  
      54A      0.205527    55A      0.212658    56A      0.221413  
      57A      0.222802    58A      0.294124    59A      0.310982  
      60A      0.348829    61A      0.349573    62A      0.351639  
      63A      0.362522    64A      0.364240    65A      0.376401  
      66A      0.376654    67A      0.397400    68A      0.433809  
      69A      0.440999    70A      0.459163    71A      0.478936  
      72A      0.482713    73A      0.486880    74A      0.490093  
      75A      0.493370    76A      0.505556    77A      0.506309  
      78A      0.514236    79A      0.514460    80A      0.514901  
      81A      0.514960    82A      0.550122    83A      0.552181  
      84A      0.560853    85A      0.562965    86A      0.579931  
      87A      0.586258    88A      0.597658    89A      0.609338  
      90A      0.617861    91A      0.671129    92A      0.672694  
      93A      0.680656    94A      0.684788    95A      0.691553  
      96A      0.696626    97A      0.697337    98A      0.708548  
      99A      0.721364   100A      0.726862   101A      0.728565  
     102A      0.741444   103A      0.743341   104A      0.751086  
     105A      0.755034   106A      0.821293   107A      0.841327  
     108A      0.846750   109A      0.853067   110A      0.855797  
     111A      0.866589   112A      0.877539   113A      0.906557  
     114A      0.908009   115A      0.930936   116A      0.952299  
     117A      0.955211   118A      0.993763   119A      1.002285  
     120A      1.018082   121A      1.078945   122A      1.113590  
     123A      1.118931   124A      1.129642   125A      1.145265  
     126A      1.167907   127A      1.337865   128A      1.389582  
     129A      2.276065   130A      2.317950   131A      2.343532  
     132A      2.347660   133A      2.379543   134A      2.431641  
     135A      2.446504   136A      2.454719   137A      2.582829  
     138A      2.635286   139A      2.636019   140A      2.643702  
     141A      2.657217   142A      2.671674   143A      2.706767  
     144A      2.720918   145A      2.787615   146A      2.789068  
     147A      2.805768   148A      2.822084   149A      2.842690  
     150A      2.863011   151A      2.864418   152A      2.885303  
     153A      2.931208   154A      2.931782   155A      2.938712  
     156A      2.950165   157A      3.010996   158A      3.019711  
     159A      3.113715   160A      3.133806   161A      3.170530  
     162A      3.189359   163A      3.189413   164A      3.241269  
     165A      3.256170   166A      3.275976   167A      3.297330  
     168A      3.327711   169A      3.329839   170A      3.334619  
     171A      3.357756   172A      3.392908   173A      3.466173  
     174A      3.622745   175A     23.238785   176A     23.318137  
     177A     23.471990   178A     23.479202   179A     23.492895  
     180A     23.521829   181A     23.714433   182A     23.734202  
     183A     23.736654   184A     23.745278   185A     23.968348  
     186A     23.988546  

    Final Occupation by Irrep:
              A 
    DOCC [    41 ]

  @DF-RKS Final Energy:  -463.12273114242754

   => Energetics <=

    Nuclear Repulsion Energy =            592.3596342628256934
    One-Electron Energy =               -1797.7206320286486516
    Two-Electron Energy =                 789.3607031586651601
    DFT Exchange-Correlation Energy =     -47.1106457383173804
    Empirical Dispersion Energy =          -0.0117907969523070
    VV10 Nonlocal Energy =                  0.0000000000000000
    Total Energy =                       -463.1227311424274831

Computation Completed


Properties will be evaluated at   0.000000,   0.000000,   0.000000 [a0]

Properties computed using the SCF density matrix

  Nuclear Dipole Moment: [e a0]
     X:     0.0000      Y:    -0.0001      Z:     0.0002

  Electronic Dipole Moment: [e a0]
     X:    -0.0000      Y:     0.0001      Z:    -0.0002

  Dipole Moment: [e a0]
     X:     0.0000      Y:     0.0000      Z:     0.0000     Total:     0.0000

  Dipole Moment: [D]
     X:     0.0000      Y:     0.0000      Z:     0.0000     Total:     0.0000


*** tstop() called on daniele-Precision-5750 at Mon May 31 17:34:13 2021
Module time:
	user time   =      89.89 seconds =       1.50 minutes
	system time =       3.67 seconds =       0.06 minutes
	total time  =         32 seconds =       0.53 minutes
Total time:
	user time   =      89.89 seconds =       1.50 minutes
	system time =       3.67 seconds =       0.06 minutes
	total time  =         32 seconds =       0.53 minutes

*** tstart() called on daniele-Precision-5750
*** at Mon May 31 17:34:13 2021


         ------------------------------------------------------------
                                   SCF GRAD                          
                          Rob Parrish, Justin Turney,                
                       Andy Simmonett, and Alex Sokolov              
         ------------------------------------------------------------

  ==> Geometry <==

    Molecular point group: c1
    Full point group: C1

    Geometry (in Angstrom), charge = 0, multiplicity = 1:

       Center              X                  Y                   Z               Mass       
    ------------   -----------------  -----------------  -----------------  -----------------
         C            0.739549972617     0.049479688023    -0.027556756480    12.000000000000
         C           -0.739548027383    -0.049413311977     0.027491243520    12.000000000000
         C            1.428947972617    -0.025637311977    -1.277269756480    12.000000000000
         C           -1.373597027383    -1.252450311977     0.467085243520    12.000000000000
         C            1.503290972617     0.221645688023     1.168139243520    12.000000000000
         C           -1.558686027383     1.056526688023    -0.358132756480    12.000000000000
         C            2.833452972617     0.069298688023    -1.320401756480    12.000000000000
         C           -2.778470027383    -1.337754311977     0.516505243520    12.000000000000
         C            2.907262972617     0.314376688023     1.106951243520    12.000000000000
         C           -2.962202027383     0.954022688023    -0.302965756480    12.000000000000
         C            3.570565972617     0.238603688023    -0.132721756480    12.000000000000
         C           -3.570570027383    -0.238688311977     0.132860243520    12.000000000000
         H            0.869742972617    -0.157016311977    -2.202052756480     1.007825032230
         H           -0.771566027383    -2.109052311977     0.765644243520     1.007825032230
         H            1.001448972617     0.282215688023     2.132383243520     1.007825032230
         H           -1.099637027383     1.983996688023    -0.696208756480     1.007825032230
         H            3.351449972617     0.011349688023    -2.276004756480     1.007825032230
         H           -3.254134027383    -2.257371311977     0.852574243520     1.007825032230
         H            3.482148972617     0.445353688023     2.021956243520     1.007825032230
         H           -3.579451027383     1.800565688023    -0.598359756480     1.007825032230
         H            4.656024972617     0.311053688023    -0.173065756480     1.007825032230
         H           -4.656000027383    -0.311217311977     0.173325243520     1.007825032230

  Nuclear repulsion =  592.359634262825693

  ==> Basis Set <==

  Basis Set: 6-311G
    Blend: 6-311G
    Number of shells: 114
    Number of basis function: 186
    Number of Cartesian functions: 186
    Spherical Harmonics?: true
    Max angular momentum: 1

  ==> DFJKGrad: Density-Fitted SCF Gradients <==

    Gradient:                    1
    J tasked:                  Yes
    K tasked:                  Yes
    wK tasked:                 Yes
    Omega:               2.000E-01
    OpenMP threads:              3
    Integrals threads:           3
    Memory [MiB]:              500
    Schwarz Cutoff:          0E+00
    Fitting Condition:       1E-10

   => Auxiliary Basis Set <=

  Basis Set: (6-311G AUX)
    Blend: CC-PVTZ-JKFIT
    Number of shells: 400
    Number of basis function: 1248
    Number of Cartesian functions: 1502
    Spherical Harmonics?: true
    Max angular momentum: 4

  ==> DFT Potential <==

   => Composite Functional: WB97X-D <= 

    wB97X-D Hyb-GGA Exchange-Correlation Functional

    J.-D. Chai and M. Head-Gordon, Phys. Chem. Chem. Phys. 10, 6615 (2008)

    Deriv               =              1
    GGA                 =           TRUE
    Meta                =          FALSE

    Exchange Hybrid     =           TRUE
    MP2 Hybrid          =          FALSE

   => Exchange-Correlation Functionals <=

    1.0000   wB97D range-separated functional

   => Exact (HF) Exchange <=

    0.7780            HF,LR [omega = 0.2000]
    0.2220               HF 

   => Molecular Quadrature <=

    Radial Scheme          =       TREUTLER
    Pruning Scheme         =           FLAT
    Nuclear Scheme         =       TREUTLER

    BS radius alpha        =              1
    Pruning alpha          =              1
    Radial Points          =             75
    Spherical Points       =            302
    Total Points           =         491640
    Total Blocks           =           3651
    Max Points             =            256
    Max Functions          =            155


  -Total Gradient:
     Atom            X                  Y                   Z
    ------   -----------------  -----------------  -----------------
       1       -0.025916543301    -0.001720270917     0.000962966341
       2        0.025932139273     0.001694769045    -0.000933632292
       3       -0.002624764496    -0.003243741220    -0.017688125077
       4        0.003451210064    -0.017121294326     0.004716253122
       5       -0.001707129813     0.002933242790     0.017811197377
       6        0.000796271370     0.017483682375    -0.004912572004
       7        0.005190673992    -0.000749568971    -0.009165206665
       8       -0.004717205878    -0.008909290414     0.003034247193
       9        0.005694829120     0.001480755250     0.008743738014
      10       -0.006088149903     0.008183225126    -0.002629290185
      11        0.007968317940     0.000536393935    -0.000276269757
      12       -0.007999091859    -0.000545704263     0.000298495183
      13       -0.000518885999    -0.000397233271    -0.005169542194
      14        0.000767522499    -0.004841582669     0.001881345893
      15       -0.000193025617     0.000356749018     0.005219240919
      16       -0.000037314177     0.004859858961    -0.001898977993
      17        0.002463711693    -0.000143144585    -0.003930398132
      18       -0.002305099370    -0.003769652353     0.001457239274
      19        0.002713343735     0.000490758046     0.003743301578
      20       -0.002882302807     0.003422839069    -0.001264362038
      21        0.004709764261     0.000310819653    -0.000176973297
      22       -0.004698356259    -0.000311375956     0.000176971593


*** tstop() called on daniele-Precision-5750 at Mon May 31 17:34:29 2021
Module time:
	user time   =      47.69 seconds =       0.79 minutes
	system time =       0.62 seconds =       0.01 minutes
	total time  =         16 seconds =       0.27 minutes
Total time:
	user time   =     137.59 seconds =       2.29 minutes
	system time =       4.29 seconds =       0.07 minutes
	total time  =         48 seconds =       0.80 minutes

			-----------------------------------------
			 OPTKING 2.0: for geometry optimizations 
			  - R.A. King,  Bethel University        
			-----------------------------------------
	At level 1: Red. Int., RFO, no backsteps, dynamic trust

	Internal coordinates to be generated automatically.
	Detected frag 1 with atoms:  1 2 3 4 5 6 7 8 9 10 11 12 13 14 15 16 17 18 19 20
	 21 22
	---Fragment 1 Bond Connectivity---
	 1 : 2 3 5
	 2 : 1 4 6
	 3 : 1 7 13
	 4 : 2 8 14
	 5 : 1 9 15
	 6 : 2 10 16
	 7 : 3 11 17
	 8 : 4 12 18
	 9 : 5 11 19
	 10 : 6 12 20
	 11 : 7 9 21
	 12 : 8 10 22
	 13 : 3
	 14 : 4
	 15 : 5
	 16 : 6
	 17 : 7
	 18 : 8
	 19 : 9
	 20 : 10
	 21 : 11
	 22 : 12

	Assuming in current code that numbering for constraints corresponds to unified fragment.
	Frozen dihedral atom list: 
	     3     1     2     4
	     3     1     2     6
	     5     1     2     4
	     5     1     2     6
	---Fragment 1 Geometry and Gradient---
	 C           1.3975469043        0.0935030591       -0.0520747227
	 C          -1.3975432284       -0.0933776266        0.0519509211
	 C           2.7003203158       -0.0484474982       -2.4136900281
	 C          -2.5957221885       -2.3667880754        0.8826631875
	 C           2.8408082251        0.4188496473        2.2074632467
	 C          -2.9454897073        1.9965460846       -0.6767728263
	 C           5.3544501076        0.1309555412       -2.4951976953
	 C          -5.2505473995       -2.5279892728        0.9760534526
	 C           5.4939307929        0.5940858406        2.0918346845
	 C          -5.5977505600        1.8028415978       -0.5725223051
	 C           6.7473918011        0.4508956229       -0.2508077706
	 C          -6.7473994635       -0.4510555390        0.2510694732
	 H           1.6435760178       -0.2967178269       -4.1612766236
	 H          -1.4580484795       -3.9855312539        1.4468579298
	 H           1.8924642869        0.5333103587        4.0296203248
	 H          -2.0780128192        3.7492103742       -1.3156438759
	 H           6.3333225714        0.0214478020       -4.3010256500
	 H          -6.1494220873       -4.2658135431        1.6111318219
	 H           6.5803078863        0.8415964993        3.8209435379
	 H          -6.7641821212        3.4025760213       -1.1307360642
	 H           8.7986120315        0.5878062807       -0.3270468814
	 H          -8.7985648919       -0.5881154851        0.3275372409
	            -0.0259165433       -0.0017202709        0.0009629663
	             0.0259321393        0.0016947690       -0.0009336323
	            -0.0026247645       -0.0032437412       -0.0176881251
	             0.0034512101       -0.0171212943        0.0047162531
	            -0.0017071298        0.0029332428        0.0178111974
	             0.0007962714        0.0174836824       -0.0049125720
	             0.0051906740       -0.0007495690       -0.0091652067
	            -0.0047172059       -0.0089092904        0.0030342472
	             0.0056948291        0.0014807552        0.0087437380
	            -0.0060881499        0.0081832251       -0.0026292902
	             0.0079683179        0.0005363939       -0.0002762698
	            -0.0079990919       -0.0005457043        0.0002984952
	            -0.0005188860       -0.0003972333       -0.0051695422
	             0.0007675225       -0.0048415827        0.0018813459
	            -0.0001930256        0.0003567490        0.0052192409
	            -0.0000373142        0.0048598590       -0.0018989780
	             0.0024637117       -0.0001431446       -0.0039303981
	            -0.0023050994       -0.0037696524        0.0014572393
	             0.0027133437        0.0004907580        0.0037433016
	            -0.0028823028        0.0034228391       -0.0012643620
	             0.0047097643        0.0003108197       -0.0001769733
	            -0.0046983563       -0.0003113760        0.0001769716

	Previous optimization step data not found.  Starting new optimization.

	---Fragment 1 Intrafragment Coordinates---
	 - Coordinate -           - BOHR/RAD -       - ANG/DEG -
	 R(1,2)           =         2.803261	       1.483422
	 R(1,3)           =         2.700851	       1.429229
	 R(1,5)           =         2.700808	       1.429206
	 R(2,4)           =         2.700761	       1.429181
	 R(2,6)           =         2.700918	       1.429264
	 R(3,7)           =         2.661435	       1.408371
	 R(3,13)          =         2.057281	       1.088666
	 R(4,8)           =         2.661354	       1.408328
	 R(4,14)          =         2.057413	       1.088736
	 R(5,9)           =         2.661416	       1.408361
	 R(5,15)          =         2.057356	       1.088706
	 R(6,10)          =         2.661368	       1.408335
	 R(6,16)          =         2.057305	       1.088679
	 R(7,11)          =         2.660815	       1.408042
	 R(7,17)          =         2.056988	       1.088511
	 R(8,12)          =         2.660793	       1.408031
	 R(8,18)          =         2.057021	       1.088528
	 R(9,11)          =         2.660760	       1.408013
	 R(9,19)          =         2.057011	       1.088523
	 R(10,12)         =         2.660836	       1.408054
	 R(10,20)         =         2.057016	       1.088526
	 R(11,21)         =         2.057197	       1.088622
	 R(12,22)         =         2.057161	       1.088603
	 B(1,2,4)         =         2.105845	     120.656008
	 B(1,2,6)         =         2.105808	     120.653927
	 B(1,3,7)         =         2.099331	     120.282821
	 B(1,3,13)        =         2.095947	     120.088940
	 B(1,5,9)         =         2.099367	     120.284883
	 B(1,5,15)        =         2.095955	     120.089367
	 B(2,1,3)         =         2.105859	     120.656813
	 B(2,1,5)         =         2.105758	     120.651074
	 B(2,4,8)         =         2.099410	     120.287342
	 B(2,4,14)        =         2.095918	     120.087247
	 B(2,6,10)        =         2.099333	     120.282900
	 B(2,6,16)        =         2.095930	     120.087922
	 B(3,1,5)         =         2.071568	     118.692113
	 B(3,7,11)        =         2.099411	     120.287412
	 B(3,7,17)        =         2.091935	     119.859050
	 B(4,2,6)         =         2.071532	     118.690065
	 B(4,8,12)        =         2.099411	     120.287368
	 B(4,8,18)        =         2.091987	     119.862022
	 B(5,9,11)        =         2.099404	     120.287008
	 B(5,9,19)        =         2.091960	     119.860502
	 B(6,10,12)       =         2.099439	     120.288991
	 B(6,10,20)       =         2.091944	     119.859585
	 B(7,3,13)        =         2.087907	     119.628238
	 B(7,11,9)        =         2.097288	     120.165760
	 B(7,11,21)       =         2.092922	     119.915582
	 B(8,4,14)        =         2.087857	     119.625408
	 B(8,12,10)       =         2.097246	     120.163330
	 B(8,12,22)       =         2.092992	     119.919635
	 B(9,5,15)        =         2.087863	     119.625747
	 B(9,11,21)       =         2.092975	     119.918657
	 B(10,6,16)       =         2.087923	     119.629174
	 B(10,12,22)      =         2.092947	     119.917035
	 B(11,7,17)       =         2.091839	     119.853537
	 B(11,9,19)       =         2.091821	     119.852489
	 B(12,8,18)       =         2.091788	     119.850609
	 B(12,10,20)      =         2.091802	     119.851423
	 D(1,2,4,8)       =         3.141418	     179.989965
	 D(1,2,4,14)      =        -0.000484	      -0.027717
	 D(1,2,6,10)      =         3.141458	     179.992274
	 D(1,2,6,16)      =        -0.000500	      -0.028658
	 D(1,3,7,11)      =         0.000351	       0.020107
	 D(1,3,7,17)      =        -3.141449	    -179.991769
	 D(1,5,9,11)      =         0.000273	       0.015620
	 D(1,5,9,19)      =        -3.141488	    -179.993992
	 D(2,1,3,7)       =         3.141490	     179.994142
	 D(2,1,3,13)      =        -0.000373	      -0.021383
	 D(2,1,5,9)       =         3.141384	     179.988073
	 D(2,1,5,15)      =        -0.000610	      -0.034934
	 D(2,4,8,12)      =         0.000345	       0.019761
	 D(2,4,8,18)      =        -3.141435	    -179.990939
	 D(2,6,10,12)     =         0.000278	       0.015918
	 D(2,6,10,20)     =        -3.141503	    -179.994886
	*D(3,1,2,4)       =         1.814715	     103.975485
	*D(3,1,2,6)       =        -1.326809	     -76.020529
	 D(3,1,5,9)       =        -0.000117	      -0.006719
	 D(3,1,5,15)      =         3.141074	     179.970274
	 D(3,7,11,9)      =        -0.000196	      -0.011236
	 D(3,7,11,21)     =         3.141352	     179.986230
	*D(4,2,1,5)       =        -1.326785	     -76.019205
	 D(4,2,6,10)      =        -0.000067	      -0.003817
	 D(4,2,6,16)      =         3.141161	     179.975251
	 D(4,8,12,10)     =        -0.000133	      -0.007622
	 D(4,8,12,22)     =         3.141500	     179.994680
	*D(5,1,2,6)       =         1.814877	     103.984781
	 D(5,1,3,7)       =        -0.000193	      -0.011066
	 D(5,1,3,13)      =         3.141129	     179.973409
	 D(5,9,11,7)      =        -0.000117	      -0.006682
	 D(5,9,11,21)     =         3.141520	     179.995852
	 D(6,2,4,8)       =        -0.000243	      -0.013944
	 D(6,2,4,14)      =         3.141041	     179.968374
	 D(6,10,12,8)     =        -0.000179	      -0.010271
	 D(6,10,12,22)    =         3.141373	     179.987426
	 D(7,11,9,19)     =        -3.141542	    -179.997071
	 D(8,12,10,20)    =         3.141593	     180.000000
	 D(9,11,7,17)     =         3.141593	     180.000000
	 D(10,12,8,18)    =        -3.141539	    -179.996924
	 D(11,7,3,13)     =        -3.140972	    -179.964439
	 D(11,9,5,15)     =        -3.140920	    -179.961479
	 D(12,8,4,14)     =        -3.140941	    -179.962638
	 D(12,10,6,16)    =        -3.140951	    -179.963245
	 D(13,3,7,17)     =         0.000413	       0.023684
	 D(14,4,8,18)     =         0.000465	       0.026662
	 D(15,5,9,19)     =         0.000505	       0.028909
	 D(16,6,10,20)    =         0.000453	       0.025951
	 D(17,7,11,21)    =        -0.000033	      -0.001894
	 D(18,8,12,22)    =         0.000094	       0.005379
	 D(19,9,11,21)    =         0.000095	       0.005463
	 D(20,10,12,22)   =        -0.000031	      -0.001770

	Current energy   :      -463.1227311424

	Generating empirical Hessian (Schlegel '84) for each fragment.
	Taking RFO optimization step.
	Going to follow RFO solution 1.
	Using RFO vector 1.
	Norm of target step-size    0.16447
	Projected energy change by RFO approximation:        -0.0105212891

	Back-transformation to cartesian coordinates...
	Could not converge backtransformation.
	Using first guess instead.

	Back-transformation to cartesian coordinates to adjust frozen coordinates...
	Successfully converged to displaced geometry.

	--- Internal Coordinate Step in ANG or DEG, aJ/ANG or AJ/DEG ---
	 ---------------------------------------------------------------------------
	   Coordinate                Previous        Force       Change         New 
	   ----------                --------       ------       ------       ------
	    1 R(1,2)          =      1.483422     0.018336     0.003338     1.486760
	    2 R(1,3)          =      1.429229    -0.210165    -0.032466     1.396763
	    3 R(1,5)          =      1.429206    -0.210062    -0.032447     1.396760
	    4 R(2,4)          =      1.429181    -0.209961    -0.032428     1.396754
	    5 R(2,6)          =      1.429264    -0.210307    -0.032491     1.396773
	    6 R(3,7)          =      1.408371    -0.118812    -0.016788     1.391583
	    7 R(3,13)         =      1.088666    -0.038770    -0.006742     1.081924
	    8 R(4,8)          =      1.408328    -0.118505    -0.016741     1.391587
	    9 R(4,14)         =      1.088736    -0.039131    -0.006809     1.081927
	   10 R(5,9)          =      1.408361    -0.118724    -0.016774     1.391587
	   11 R(5,15)         =      1.088706    -0.038981    -0.006782     1.081924
	   12 R(6,10)         =      1.408335    -0.118621    -0.016759     1.391576
	   13 R(6,16)         =      1.088679    -0.038839    -0.006755     1.081924
	   14 R(7,11)         =      1.408042    -0.122293    -0.016829     1.391214
	   15 R(7,17)         =      1.088511    -0.038150    -0.006757     1.081754
	   16 R(8,12)         =      1.408031    -0.122259    -0.016823     1.391208
	   17 R(8,18)         =      1.088528    -0.038243    -0.006774     1.081754
	   18 R(9,11)         =      1.408013    -0.122145    -0.016806     1.391208
	   19 R(9,19)         =      1.088523    -0.038217    -0.006769     1.081754
	   20 R(10,12)        =      1.408054    -0.122328    -0.016835     1.391219
	   21 R(10,20)        =      1.088526    -0.038223    -0.006770     1.081756
	   22 R(11,21)        =      1.088622    -0.038914    -0.006929     1.081693
	   23 R(12,22)        =      1.088603    -0.038821    -0.006911     1.081691
	   24 B(1,2,4)        =    120.656008    -0.000039    -0.025787   120.630220
	   25 B(1,2,6)        =    120.653927    -0.000039    -0.025140   120.628786
	   26 B(1,3,7)        =    120.282821     0.000139     0.362244   120.645065
	   27 B(1,3,13)       =    120.088940    -0.000244    -0.954038   119.134901
	   28 B(1,5,9)        =    120.284883     0.000139     0.360588   120.645470
	   29 B(1,5,15)       =    120.089367    -0.000244    -0.954381   119.134986
	   30 B(2,1,3)        =    120.656813    -0.000039    -0.026900   120.629913
	   31 B(2,1,5)        =    120.651074    -0.000038    -0.022703   120.628371
	   32 B(2,4,8)        =    120.287342     0.000138     0.358781   120.646123
	   33 B(2,4,14)       =    120.087247    -0.000244    -0.952820   119.134426
	   34 B(2,6,10)       =    120.282900     0.000139     0.362281   120.645181
	   35 B(2,6,16)       =    120.087922    -0.000244    -0.953792   119.134130
	   36 B(3,1,5)        =    118.692113     0.000077     0.049603   118.741715
	   37 B(3,7,11)       =    120.287412    -0.000059    -0.094652   120.192760
	   38 B(3,7,17)       =    119.859050     0.000006    -0.055660   119.803391
	   39 B(4,2,6)        =    118.690065     0.000078     0.050928   118.740993
	   40 B(4,8,12)       =    120.287368    -0.000059    -0.094829   120.192539
	   41 B(4,8,18)       =    119.862022     0.000006    -0.057755   119.804267
	   42 B(5,9,11)       =    120.287008    -0.000059    -0.094623   120.192385
	   43 B(5,9,19)       =    119.860502     0.000006    -0.056810   119.803692
	   44 B(6,10,12)      =    120.288991    -0.000059    -0.095709   120.193282
	   45 B(6,10,20)      =    119.859585     0.000006    -0.055810   119.803776
	   46 B(7,3,13)       =    119.628238     0.000105     0.591637   120.219875
	   47 B(7,11,9)       =    120.165760    -0.000237    -0.583250   119.582510
	   48 B(7,11,21)      =    119.915582     0.000119     0.292421   120.208003
	   49 B(8,4,14)       =    119.625408     0.000106     0.593882   120.219291
	   50 B(8,12,10)      =    120.163330    -0.000237    -0.581542   119.581788
	   51 B(8,12,22)      =    119.919635     0.000118     0.290148   120.209783
	   52 B(9,5,15)       =    119.625747     0.000106     0.593636   120.219383
	   53 B(9,11,21)      =    119.918657     0.000118     0.290830   120.209487
	   54 B(10,6,16)      =    119.629174     0.000105     0.591355   120.220529
	   55 B(10,12,22)     =    119.917035     0.000118     0.291394   120.208429
	   56 B(11,7,17)      =    119.853537     0.000053     0.150112   120.003649
	   57 B(11,9,19)      =    119.852489     0.000054     0.151235   120.003725
	   58 B(12,8,18)      =    119.850609     0.000054     0.152384   120.002993
	   59 B(12,10,20)     =    119.851423     0.000054     0.151321   120.002744
	   60 D(1,2,4,8)      =    179.989965    -0.000000    -0.034419   179.955546
	   61 D(1,2,4,14)     =     -0.027717    -0.000001    -0.161559    -0.189276
	   62 D(1,2,6,10)     =    179.992274    -0.000000    -0.039483   179.952791
	   63 D(1,2,6,16)     =     -0.028658    -0.000001    -0.163805    -0.192463
	   64 D(1,3,7,11)     =      0.020107     0.000001     0.072533     0.092640
	   65 D(1,3,7,17)     =   -179.991769    -0.000001    -0.078324  -180.070094
	   66 D(1,5,9,11)     =      0.015620     0.000001     0.075641     0.091261
	   67 D(1,5,9,19)     =   -179.993992    -0.000001    -0.076985  -180.070976
	   68 D(2,1,3,7)      =    179.994142    -0.000000    -0.036018   179.958124
	   69 D(2,1,3,13)     =     -0.021383    -0.000001    -0.164957    -0.186339
	   70 D(2,1,5,9)      =    179.988073    -0.000000    -0.037875   179.950198
	   71 D(2,1,5,15)     =     -0.034934    -0.000001    -0.160483    -0.195417
	   72 D(2,4,8,12)     =      0.019761     0.000001     0.073144     0.092905
	   73 D(2,4,8,18)     =   -179.990939    -0.000001    -0.079225  -180.070164
	   74 D(2,6,10,12)    =      0.015918     0.000001     0.075049     0.090967
	   75 D(2,6,10,20)    =   -179.994886    -0.000001    -0.076047  -180.070933
	   76 *D(3,1,2,4)     =    103.975485    -0.000000    -0.000000   103.975485
	   77 *D(3,1,2,6)     =    -76.020529     0.000000     0.000000   -76.020529
	   78 D(3,1,5,9)      =     -0.006719    -0.000000    -0.037871    -0.044590
	   79 D(3,1,5,15)     =    179.970274    -0.000001    -0.160479   179.809795
	   80 D(3,7,11,9)     =     -0.011236    -0.000000    -0.034482    -0.045718
	   81 D(3,7,11,21)    =    179.986230    -0.000000    -0.033180   179.953050
	   82 *D(4,2,1,5)     =    -76.019205    -0.000000    -0.000000   -76.019205
	   83 D(4,2,6,10)     =     -0.003817    -0.000000    -0.039480    -0.043297
	   84 D(4,2,6,16)     =    179.975251    -0.000001    -0.163802   179.811448
	   85 D(4,8,12,10)    =     -0.007622    -0.000000    -0.037342    -0.044964
	   86 D(4,8,12,22)    =    179.994680    -0.000000    -0.039314   179.955367
	   87 *D(5,1,2,6)     =    103.984781    -0.000000     0.000000   103.984781
	   88 D(5,1,3,7)      =     -0.011066    -0.000000    -0.036022    -0.047088
	   89 D(5,1,3,13)     =    179.973409    -0.000001    -0.164960   179.808449
	   90 D(5,9,11,7)     =     -0.006682    -0.000000    -0.038824    -0.045506
	   91 D(5,9,11,21)    =    179.995852    -0.000000    -0.040126   179.955726
	   92 D(6,2,4,8)      =     -0.013944    -0.000000    -0.034422    -0.048366
	   93 D(6,2,4,14)     =    179.968374    -0.000001    -0.161562   179.806812
	   94 D(6,10,12,8)    =     -0.010271    -0.000000    -0.035974    -0.046245
	   95 D(6,10,12,22)   =    179.987426    -0.000000    -0.034002   179.953424
	   96 D(7,11,9,19)    =   -179.997071     0.000001     0.114129  -179.882943
	   97 D(8,12,10,20)   =    180.000000     0.000001     0.115978   180.115978
	   98 D(9,11,7,17)    =    180.000000     0.000001     0.117343   180.117343
	   99 D(10,12,8,18)   =   -179.996924     0.000001     0.115354  -179.881570
	  100 D(11,7,3,13)    =   -179.964439     0.000002     0.203110  -179.761329
	  101 D(11,9,5,15)    =   -179.961479     0.000002     0.199934  -179.761546
	  102 D(12,8,4,14)    =   -179.962638     0.000002     0.201937  -179.760702
	  103 D(12,10,6,16)   =   -179.963245     0.000002     0.201045  -179.762201
	  104 D(13,3,7,17)    =      0.023684     0.000000     0.052253     0.075937
	  105 D(14,4,8,18)    =      0.026662     0.000000     0.049567     0.076229
	  106 D(15,5,9,19)    =      0.028909     0.000000     0.047308     0.076217
	  107 D(16,6,10,20)   =      0.025951     0.000000     0.049949     0.075900
	  108 D(17,7,11,21)   =     -0.001894     0.000001     0.118005     0.116111
	  109 D(18,8,12,22)   =      0.005379     0.000001     0.113382     0.118761
	  110 D(19,9,11,21)   =      0.005463     0.000001     0.112826     0.118289
	  111 D(20,10,12,22)  =     -0.001770     0.000001     0.117418     0.115648
	 ---------------------------------------------------------------------------
	Successfully symmetrized geometry.

  ==> Convergence Check <==

  Measures of convergence in internal coordinates in au.
  Criteria marked as inactive (o), active & met (*), and active & unmet ( ).
  --------------------------------------------------------------------------------------------- ~
   Step     Total Energy     Delta E     MAX Force     RMS Force      MAX Disp      RMS Disp    ~
  --------------------------------------------------------------------------------------------- ~
    Convergence Criteria             o    2.50e-03 *    1.70e-03 *    1.00e-02 *    6.70e-03 *  ~
  --------------------------------------------------------------------------------------------- ~
      1    -463.12273114   -4.63e+02 o    2.55e-02      6.46e-03      6.14e-02      1.56e-02    ~
  ---------------------------------------------------------------------------------------------

	Writing optimization data to binary file.
	Structure for next step:
	Cartesian Geometry (in Angstrom)
	    C     0.7412152792   0.0496097249  -0.0275554369
	    C    -0.7412112465  -0.0495093923   0.0276025338
	    C     1.4143921238  -0.0238695987  -1.2491857731
	    C    -1.3603116357  -1.2255164466   0.4573029929
	    C     1.4871398869   0.2178645717   1.1413005042
	    C    -1.5412249589   1.0316166055  -0.3493862350
	    C     2.8018460055   0.0697358174  -1.3012648553
	    C    -2.7478016432  -1.3183400453   0.5099341181
	    C     2.8747557428   0.3096473945   1.0901888520
	    C    -2.9287866425   0.9388844439  -0.2988217864
	    C     3.5362542457   0.2363172265  -0.1314908645
	    C    -3.5362533658  -0.2363950958   0.1315174882
	    H     0.8430968390  -0.1572867979  -2.1582411131
	    H    -0.7467768860  -2.0679797511   0.7478149145
	    H     0.9719842807   0.2787002371   2.0907603650
	    H    -1.0683012055   1.9467012002  -0.6803282299
	    H     3.3093499937   0.0099568231  -2.2547103993
	    H    -3.2129987549  -2.2361159766   0.8438075509
	    H     3.4389208069   0.4410124487   2.0037819910
	    H    -3.5352705736   1.7849972353  -0.5928726972
	    H     4.6148009192   0.3083459385  -0.1716118269
	    H    -4.6147938132  -0.3084884264   0.1716332644
			--------------------------
			 OPTKING Finished Execution 
			--------------------------

    Structure for next step:
    Molecular point group: c1
    Full point group: C1

    Geometry (in Angstrom), charge = 0, multiplicity = 1:

    C            0.741214132141     0.049607231720    -0.027566681531
    C           -0.741212399440    -0.049511885872     0.027591289362
    C            1.414390979303    -0.023872092163    -1.249197022583
    C           -1.360312791095    -1.225518944719     0.457291750110
    C            1.487138742708     0.217862079186     1.141289264180
    C           -1.541226114985     1.031614116190    -0.349397480905
    C            2.801844866515     0.069733324364    -1.301276104967
    C           -2.747802804024    -1.318342543814     0.509922875525
    C            2.874754604045     0.309644902348     1.090177611758
    C           -2.928787804012     0.938881954288    -0.298833032123
    C            3.536253109611     0.236314734100    -0.131502109533
    C           -3.536254529671    -0.236397590071     0.131506244152
    H            0.843095692293    -0.157289291894    -2.158252366133
    H           -0.746778039001    -2.067982252554     0.747803672846
    H            0.971983134503     0.278697744868     2.090749128681
    H           -1.068302359725     1.946698714522    -0.680339477128
    H            3.309348856708     0.009954329842    -2.254721652684
    H           -3.212999917566    -2.236118478725     0.843796309671
    H            3.438919670360     0.441009957119     2.003770754364
    H           -3.535271737531     1.784994748941    -0.592883944059
    H            4.614799787363     0.308343446362    -0.171623072168
    H           -4.614794981384    -0.308490920980     0.171622020510

gradient() will perform analytic gradient computation.

*** tstart() called on daniele-Precision-5750
*** at Mon May 31 17:34:30 2021

   => Loading Basis Set <=

    Name: 6-311G
    Role: ORBITAL
    Keyword: BASIS
    atoms 1-12  entry C          line    92 file /home/daniele/anaconda3/envs/poltype/share/psi4/basis/6-311g.gbs 
    atoms 13-22 entry H          line    21 file /home/daniele/anaconda3/envs/poltype/share/psi4/basis/6-311g.gbs 


         ---------------------------------------------------------
                                   SCF
               by Justin Turney, Rob Parrish, Andy Simmonett
                          and Daniel G. A. Smith
                              RKS Reference
                        3 Threads,    667 MiB Core
         ---------------------------------------------------------

  ==> Geometry <==

    Molecular point group: c1
    Full point group: C1

    Geometry (in Angstrom), charge = 0, multiplicity = 1:

       Center              X                  Y                   Z               Mass       
    ------------   -----------------  -----------------  -----------------  -----------------
         C            0.741214132141     0.049607231720    -0.027566681531    12.000000000000
         C           -0.741212399440    -0.049511885872     0.027591289362    12.000000000000
         C            1.414390979303    -0.023872092163    -1.249197022583    12.000000000000
         C           -1.360312791095    -1.225518944719     0.457291750110    12.000000000000
         C            1.487138742708     0.217862079186     1.141289264180    12.000000000000
         C           -1.541226114985     1.031614116190    -0.349397480905    12.000000000000
         C            2.801844866515     0.069733324364    -1.301276104967    12.000000000000
         C           -2.747802804024    -1.318342543814     0.509922875525    12.000000000000
         C            2.874754604045     0.309644902348     1.090177611758    12.000000000000
         C           -2.928787804012     0.938881954288    -0.298833032123    12.000000000000
         C            3.536253109611     0.236314734100    -0.131502109533    12.000000000000
         C           -3.536254529671    -0.236397590071     0.131506244152    12.000000000000
         H            0.843095692293    -0.157289291894    -2.158252366133     1.007825032230
         H           -0.746778039001    -2.067982252554     0.747803672846     1.007825032230
         H            0.971983134503     0.278697744868     2.090749128681     1.007825032230
         H           -1.068302359725     1.946698714522    -0.680339477128     1.007825032230
         H            3.309348856708     0.009954329842    -2.254721652684     1.007825032230
         H           -3.212999917566    -2.236118478725     0.843796309671     1.007825032230
         H            3.438919670360     0.441009957119     2.003770754364     1.007825032230
         H           -3.535271737531     1.784994748941    -0.592883944059     1.007825032230
         H            4.614799787363     0.308343446362    -0.171623072168     1.007825032230
         H           -4.614794981384    -0.308490920980     0.171622020510     1.007825032230

  Running in c1 symmetry.

  Rotational constants: A =      0.09600  B =      0.01747  C =      0.01673 [cm^-1]
  Rotational constants: A =   2877.93054  B =    523.73509  C =    501.65359 [MHz]
  Nuclear repulsion =  600.171174639444303

  Charge       = 0
  Multiplicity = 1
  Electrons    = 82
  Nalpha       = 41
  Nbeta        = 41

  ==> Algorithm <==

  SCF Algorithm Type is DF.
  DIIS enabled.
  MOM disabled.
  Fractional occupation disabled.
  Guess Type is READ.
  Energy threshold   = 1.00e-08
  Density threshold  = 1.00e-08
  Integral threshold = 0.00e+00

  ==> Primary Basis <==

  Basis Set: 6-311G
    Blend: 6-311G
    Number of shells: 114
    Number of basis function: 186
    Number of Cartesian functions: 186
    Spherical Harmonics?: true
    Max angular momentum: 1

  ==> DFT Potential <==

   => Composite Functional: WB97X-D <= 

    wB97X-D Hyb-GGA Exchange-Correlation Functional

    J.-D. Chai and M. Head-Gordon, Phys. Chem. Chem. Phys. 10, 6615 (2008)

    Deriv               =              1
    GGA                 =           TRUE
    Meta                =          FALSE

    Exchange Hybrid     =           TRUE
    MP2 Hybrid          =          FALSE

   => Exchange-Correlation Functionals <=

    1.0000   wB97D range-separated functional

   => Exact (HF) Exchange <=

    0.7780            HF,LR [omega = 0.2000]
    0.2220               HF 

   => Molecular Quadrature <=

    Radial Scheme          =       TREUTLER
    Pruning Scheme         =           FLAT
    Nuclear Scheme         =       TREUTLER

    BS radius alpha        =              1
    Pruning alpha          =              1
    Radial Points          =             75
    Spherical Points       =            302
    Total Points           =         491600
    Total Blocks           =           3639
    Max Points             =            256
    Max Functions          =            155

   => WB97X-D: Empirical Dispersion <=

    Chai and Head-Gordon Dispersion Correction
    Chai, J.-D.; Head-Gordon, M. (2010), J. Chem. Phys., 132: 6615-6620

        s6 =       1.000000

   => Loading Basis Set <=

    Name: (6-311G AUX)
    Role: JKFIT
    Keyword: DF_BASIS_SCF
    atoms 1-12  entry C          line   125 file /home/daniele/anaconda3/envs/poltype/share/psi4/basis/cc-pvtz-jkfit.gbs 
    atoms 13-22 entry H          line    51 file /home/daniele/anaconda3/envs/poltype/share/psi4/basis/cc-pvtz-jkfit.gbs 

   => Loading Basis Set <=

    Name: 6-311G
    Role: ORBITAL
    Keyword: BASIS
    atoms 1-12  entry C          line    92 file /home/daniele/anaconda3/envs/poltype/share/psi4/basis/6-311g.gbs 
    atoms 13-22 entry H          line    21 file /home/daniele/anaconda3/envs/poltype/share/psi4/basis/6-311g.gbs 

  Reading orbitals from file 180, no projection.

  ==> Pre-Iterations <==

   -------------------------------------------------------
    Irrep   Nso     Nmo     Nalpha   Nbeta   Ndocc  Nsocc
   -------------------------------------------------------
     A        186     186       0       0       0       0
   -------------------------------------------------------
    Total     186     186      41      41      41       0
   -------------------------------------------------------

  ==> Integral Setup <==

  ==> DiskDFJK: Density-Fitted J/K Matrices <==

    J tasked:                  Yes
    K tasked:                  Yes
    wK tasked:                 Yes
    Omega:               2.000E-01
    OpenMP threads:              3
    Integrals threads:           3
    Memory [MiB]:              173
    Algorithm:                Disk
    Integral Cache:           NONE
    Schwarz Cutoff:          1E-12
    Fitting Condition:       1E-10

   => Auxiliary Basis Set <=

  Basis Set: (6-311G AUX)
    Blend: CC-PVTZ-JKFIT
    Number of shells: 400
    Number of basis function: 1248
    Number of Cartesian functions: 1502
    Spherical Harmonics?: true
    Max angular momentum: 4

  Cached 25.0% of DFT collocation blocks in 0.380 [GiB].

  Minimum eigenvalue in the overlap matrix is 2.3722269262E-04.
  Using Symmetric Orthogonalization.

  SCF Guess: Orbitals guess was supplied from a previous computation.

  ==> Iterations <==

                           Total Energy        Delta E     RMS |[F,P]|

   @DF-RKS iter   0:  -463.27512843773951   -4.63275e+02   8.00389e-04 
   @DF-RKS iter   1:  -463.12727756973715    1.47851e-01   1.51981e-04 DIIS
   @DF-RKS iter   2:  -463.12748375991339   -2.06190e-04   1.32950e-04 DIIS
   @DF-RKS iter   3:  -463.12781674970353   -3.32990e-04   2.91746e-05 DIIS
   @DF-RKS iter   4:  -463.12783118850064   -1.44388e-05   7.33843e-06 DIIS
   @DF-RKS iter   5:  -463.12783223247811   -1.04398e-06   8.34320e-07 DIIS
   @DF-RKS iter   6:  -463.12783225129652   -1.88184e-08   4.01537e-07 DIIS
   @DF-RKS iter   7:  -463.12783225413949   -2.84297e-09   7.20863e-08 DIIS
   @DF-RKS iter   8:  -463.12783225432287   -1.83377e-10   1.05562e-08 DIIS
   @DF-RKS iter   9:  -463.12783225433026   -7.38964e-12   6.33282e-09 DIIS
  Energy and wave function converged.


  ==> Post-Iterations <==

    Orbital Energies [Eh]
    ---------------------

    Doubly Occupied:                                                      

       1A    -10.303654     2A    -10.303365     3A    -10.292566  
       4A    -10.292561     5A    -10.292427     6A    -10.292427  
       7A    -10.291449     8A    -10.291448     9A    -10.291320  
      10A    -10.291320    11A    -10.291244    12A    -10.291242  
      13A     -0.981524    14A     -0.959992    15A     -0.885790  
      16A     -0.854720    17A     -0.852465    18A     -0.828970  
      19A     -0.724958    20A     -0.711180    21A     -0.702669  
      22A     -0.677972    23A     -0.630473    24A     -0.600260  
      25A     -0.556598    26A     -0.554680    27A     -0.546697  
      28A     -0.536809    29A     -0.514455    30A     -0.513606  
      31A     -0.512512    32A     -0.463457    33A     -0.458295  
      34A     -0.457054    35A     -0.431181    36A     -0.427556  
      37A     -0.417443    38A     -0.338013    39A     -0.336804  
      40A     -0.330645    41A     -0.320881  

    Virtual:                                                              

      42A      0.053609    43A      0.055269    44A      0.073385  
      45A      0.074152    46A      0.127853    47A      0.130716  
      48A      0.156554    49A      0.162594    50A      0.166331  
      51A      0.181116    52A      0.199703    53A      0.206074  
      54A      0.207594    55A      0.214675    56A      0.232980  
      57A      0.234187    58A      0.301988    59A      0.322286  
      60A      0.356081    61A      0.357247    62A      0.358826  
      63A      0.371571    64A      0.372091    65A      0.381718  
      66A      0.383220    67A      0.401353    68A      0.438638  
      69A      0.443056    70A      0.463771    71A      0.480407  
      72A      0.488010    73A      0.492148    74A      0.498476  
      75A      0.505246    76A      0.512234    77A      0.513289  
      78A      0.514206    79A      0.517803    80A      0.519652  
      81A      0.521023    82A      0.549040    83A      0.553110  
      84A      0.566523    85A      0.571774    86A      0.587216  
      87A      0.589897    88A      0.606734    89A      0.612851  
      90A      0.622428    91A      0.676552    92A      0.678386  
      93A      0.688720    94A      0.692348    95A      0.695588  
      96A      0.698010    97A      0.703348    98A      0.713193  
      99A      0.727900   100A      0.730461   101A      0.730544  
     102A      0.752054   103A      0.753777   104A      0.756776  
     105A      0.757038   106A      0.845177   107A      0.850291  
     108A      0.851637   109A      0.858750   110A      0.862136  
     111A      0.883051   112A      0.904007   113A      0.917197  
     114A      0.919257   115A      0.934404   116A      0.966712  
     117A      0.971093   118A      1.002502   119A      1.010695  
     120A      1.034584   121A      1.091456   122A      1.122179  
     123A      1.126074   124A      1.137551   125A      1.151325  
     126A      1.177459   127A      1.343204   128A      1.398571  
     129A      2.278620   130A      2.326804   131A      2.359759  
     132A      2.360316   133A      2.389060   134A      2.445108  
     135A      2.457883   136A      2.466056   137A      2.596713  
     138A      2.642164   139A      2.643109   140A      2.656432  
     141A      2.661327   142A      2.675265   143A      2.716501  
     144A      2.727836   145A      2.763618   146A      2.766136  
     147A      2.801715   148A      2.818639   149A      2.823368  
     150A      2.864815   151A      2.866753   152A      2.887939  
     153A      2.925732   154A      2.926351   155A      2.934077  
     156A      2.952226   157A      3.013066   158A      3.021352  
     159A      3.129989   160A      3.148884   161A      3.177494  
     162A      3.198652   163A      3.200344   164A      3.265371  
     165A      3.269477   166A      3.305570   167A      3.320414  
     168A      3.348421   169A      3.349339   170A      3.370081  
     171A      3.405593   172A      3.429661   173A      3.476372  
     174A      3.658143   175A     23.239434   176A     23.312827  
     177A     23.480018   178A     23.488094   179A     23.498261  
     180A     23.523152   181A     23.742709   182A     23.756343  
     183A     23.758438   184A     23.765402   185A     24.014376  
     186A     24.033278  

    Final Occupation by Irrep:
              A 
    DOCC [    41 ]

  @DF-RKS Final Energy:  -463.12783225433026

   => Energetics <=

    Nuclear Repulsion Energy =            600.1711746394443026
    One-Electron Energy =               -1813.2264243676963815
    Two-Electron Energy =                 797.1838954636053813
    DFT Exchange-Correlation Energy =     -47.2445280431701349
    Empirical Dispersion Energy =          -0.0119499465135900
    VV10 Nonlocal Energy =                  0.0000000000000000
    Total Energy =                       -463.1278322543303148

Computation Completed


Properties will be evaluated at   0.000000,   0.000000,   0.000000 [a0]

Properties computed using the SCF density matrix

  Nuclear Dipole Moment: [e a0]
     X:     0.0000      Y:    -0.0002      Z:    -0.0001

  Electronic Dipole Moment: [e a0]
     X:     0.0000      Y:     0.0001      Z:     0.0001

  Dipole Moment: [e a0]
     X:     0.0000      Y:    -0.0000      Z:    -0.0000     Total:     0.0000

  Dipole Moment: [D]
     X:     0.0000      Y:    -0.0001      Z:    -0.0000     Total:     0.0001


*** tstop() called on daniele-Precision-5750 at Mon May 31 17:34:56 2021
Module time:
	user time   =      76.20 seconds =       1.27 minutes
	system time =       2.86 seconds =       0.05 minutes
	total time  =         26 seconds =       0.43 minutes
Total time:
	user time   =     214.18 seconds =       3.57 minutes
	system time =       7.21 seconds =       0.12 minutes
	total time  =         75 seconds =       1.25 minutes

*** tstart() called on daniele-Precision-5750
*** at Mon May 31 17:34:56 2021


         ------------------------------------------------------------
                                   SCF GRAD                          
                          Rob Parrish, Justin Turney,                
                       Andy Simmonett, and Alex Sokolov              
         ------------------------------------------------------------

  ==> Geometry <==

    Molecular point group: c1
    Full point group: C1

    Geometry (in Angstrom), charge = 0, multiplicity = 1:

       Center              X                  Y                   Z               Mass       
    ------------   -----------------  -----------------  -----------------  -----------------
         C            0.741214132141     0.049607231720    -0.027566681531    12.000000000000
         C           -0.741212399440    -0.049511885872     0.027591289362    12.000000000000
         C            1.414390979303    -0.023872092163    -1.249197022583    12.000000000000
         C           -1.360312791095    -1.225518944719     0.457291750110    12.000000000000
         C            1.487138742708     0.217862079186     1.141289264180    12.000000000000
         C           -1.541226114985     1.031614116190    -0.349397480905    12.000000000000
         C            2.801844866515     0.069733324364    -1.301276104967    12.000000000000
         C           -2.747802804024    -1.318342543814     0.509922875525    12.000000000000
         C            2.874754604045     0.309644902348     1.090177611758    12.000000000000
         C           -2.928787804012     0.938881954288    -0.298833032123    12.000000000000
         C            3.536253109611     0.236314734100    -0.131502109533    12.000000000000
         C           -3.536254529671    -0.236397590071     0.131506244152    12.000000000000
         H            0.843095692293    -0.157289291894    -2.158252366133     1.007825032230
         H           -0.746778039001    -2.067982252554     0.747803672846     1.007825032230
         H            0.971983134503     0.278697744868     2.090749128681     1.007825032230
         H           -1.068302359725     1.946698714522    -0.680339477128     1.007825032230
         H            3.309348856708     0.009954329842    -2.254721652684     1.007825032230
         H           -3.212999917566    -2.236118478725     0.843796309671     1.007825032230
         H            3.438919670360     0.441009957119     2.003770754364     1.007825032230
         H           -3.535271737531     1.784994748941    -0.592883944059     1.007825032230
         H            4.614799787363     0.308343446362    -0.171623072168     1.007825032230
         H           -4.614794981384    -0.308490920980     0.171622020510     1.007825032230

  Nuclear repulsion =  600.171174639444303

  ==> Basis Set <==

  Basis Set: 6-311G
    Blend: 6-311G
    Number of shells: 114
    Number of basis function: 186
    Number of Cartesian functions: 186
    Spherical Harmonics?: true
    Max angular momentum: 1

  ==> DFJKGrad: Density-Fitted SCF Gradients <==

    Gradient:                    1
    J tasked:                  Yes
    K tasked:                  Yes
    wK tasked:                 Yes
    Omega:               2.000E-01
    OpenMP threads:              3
    Integrals threads:           3
    Memory [MiB]:              500
    Schwarz Cutoff:          0E+00
    Fitting Condition:       1E-10

   => Auxiliary Basis Set <=

  Basis Set: (6-311G AUX)
    Blend: CC-PVTZ-JKFIT
    Number of shells: 400
    Number of basis function: 1248
    Number of Cartesian functions: 1502
    Spherical Harmonics?: true
    Max angular momentum: 4

  ==> DFT Potential <==

   => Composite Functional: WB97X-D <= 

    wB97X-D Hyb-GGA Exchange-Correlation Functional

    J.-D. Chai and M. Head-Gordon, Phys. Chem. Chem. Phys. 10, 6615 (2008)

    Deriv               =              1
    GGA                 =           TRUE
    Meta                =          FALSE

    Exchange Hybrid     =           TRUE
    MP2 Hybrid          =          FALSE

   => Exchange-Correlation Functionals <=

    1.0000   wB97D range-separated functional

   => Exact (HF) Exchange <=

    0.7780            HF,LR [omega = 0.2000]
    0.2220               HF 

   => Molecular Quadrature <=

    Radial Scheme          =       TREUTLER
    Pruning Scheme         =           FLAT
    Nuclear Scheme         =       TREUTLER

    BS radius alpha        =              1
    Pruning alpha          =              1
    Radial Points          =             75
    Spherical Points       =            302
    Total Points           =         491600
    Total Blocks           =           3639
    Max Points             =            256
    Max Functions          =            155


  -Total Gradient:
     Atom            X                  Y                   Z
    ------   -----------------  -----------------  -----------------
       1       -0.001308772605    -0.000078166896     0.000044421128
       2        0.001315371552     0.000075845414    -0.000036016772
       3        0.000763470921    -0.000819079710     0.002171653661
       4       -0.000796564869     0.001575978819    -0.001700808360
       5        0.000480503864     0.000895769499    -0.002220059343
       6       -0.000460077341    -0.001645992424     0.001737635008
       7       -0.000684805880     0.000184521599     0.002167202901
       8        0.000588398241     0.002077801617    -0.000732288851
       9       -0.000809837008    -0.000285333212    -0.002112838637
      10        0.000919019956    -0.001977879258     0.000677666010
      11       -0.001590917945    -0.000104538601     0.000063715081
      12        0.001583779153     0.000100686788    -0.000058070651
      13       -0.000003797316     0.000041612010     0.000271657143
      14       -0.000008237940     0.000261873513    -0.000078967016
      15       -0.000018020663    -0.000041887540    -0.000270643583
      16        0.000032667119    -0.000262479601     0.000078029357
      17        0.000107757687     0.000006910254     0.000135790649
      18       -0.000115344407     0.000119574443    -0.000056827414
      19        0.000097734348     0.000007246526    -0.000143915312
      20       -0.000093351735    -0.000132750391     0.000063618131
      21        0.000092603814     0.000005129773    -0.000004709754
      22       -0.000091579988    -0.000004830682     0.000003838911


*** tstop() called on daniele-Precision-5750 at Mon May 31 17:35:13 2021
Module time:
	user time   =      48.21 seconds =       0.80 minutes
	system time =       0.64 seconds =       0.01 minutes
	total time  =         17 seconds =       0.28 minutes
Total time:
	user time   =     262.39 seconds =       4.37 minutes
	system time =       7.85 seconds =       0.13 minutes
	total time  =         92 seconds =       1.53 minutes

			-----------------------------------------
			 OPTKING 2.0: for geometry optimizations 
			  - R.A. King,  Bethel University        
			-----------------------------------------
	At level 1: Red. Int., RFO, no backsteps, dynamic trust

	Previous internal coordinate definitions found.
	---Fragment 1 Geometry and Gradient---
	 C           1.4006917101        0.0937440818       -0.0520934783
	 C          -1.4006884357       -0.0935639043        0.0521399803
	 C           2.6728115852       -0.0451117162       -2.3606402494
	 C          -2.5706186201       -2.3158951671        0.8641561671
	 C           2.8102849343        0.4116996628        2.1567241392
	 C          -2.9124952547        1.9494681468       -0.6602655478
	 C           5.2947194437        0.1317768849       -2.4590554520
	 C          -5.1925947464       -2.4913063473        0.9636145798
	 C           5.4324988795        0.5851440616        2.0601371143
	 C          -5.5346068292        1.7742297577       -0.5647125880
	 C           6.6825498875        0.4465701269       -0.2485029719
	 C          -6.6825525710       -0.4467267020        0.2485107852
	 H           1.5932199560       -0.2972336841       -4.0785058816
	 H          -1.4112059702       -3.9079200896        1.4131441373
	 H           1.8367819228        0.5266624096        3.9509432502
	 H          -2.0187988791        3.6787274192       -1.2856552841
	 H           6.2537629928        0.0188109572       -4.2608064127
	 H          -6.0716898853       -4.2256515089        1.5945439310
	 H           6.4986163444        0.8333880376        3.7865779440
	 H          -6.6806953630        3.3731512109       -1.1203882785
	 H           8.7207077219        0.5826846662       -0.3243206032
	 H          -8.7206986400       -0.5829633528        0.3243186159
	            -0.0013087726       -0.0000781669        0.0000444211
	             0.0013153716        0.0000758454       -0.0000360168
	             0.0007634709       -0.0008190797        0.0021716537
	            -0.0007965649        0.0015759788       -0.0017008084
	             0.0004805039        0.0008957695       -0.0022200593
	            -0.0004600773       -0.0016459924        0.0017376350
	            -0.0006848059        0.0001845216        0.0021672029
	             0.0005883982        0.0020778016       -0.0007322889
	            -0.0008098370       -0.0002853332       -0.0021128386
	             0.0009190200       -0.0019778793        0.0006776660
	            -0.0015909179       -0.0001045386        0.0000637151
	             0.0015837792        0.0001006868       -0.0000580707
	            -0.0000037973        0.0000416120        0.0002716571
	            -0.0000082379        0.0002618735       -0.0000789670
	            -0.0000180207       -0.0000418875       -0.0002706436
	             0.0000326671       -0.0002624796        0.0000780294
	             0.0001077577        0.0000069103        0.0001357906
	            -0.0001153444        0.0001195744       -0.0000568274
	             0.0000977343        0.0000072465       -0.0001439153
	            -0.0000933517       -0.0001327504        0.0000636181
	             0.0000926038        0.0000051298       -0.0000047098
	            -0.0000915800       -0.0000048307        0.0000038389

	---Fragment 1 Intrafragment Coordinates---
	 - Coordinate -           - BOHR/RAD -       - ANG/DEG -
	 R(1,2)           =         2.809569	       1.486760
	 R(1,3)           =         2.639500	       1.396763
	 R(1,5)           =         2.639493	       1.396760
	 R(2,4)           =         2.639482	       1.396754
	 R(2,6)           =         2.639519	       1.396773
	 R(3,7)           =         2.629710	       1.391583
	 R(3,13)          =         2.044541	       1.081924
	 R(4,8)           =         2.629719	       1.391587
	 R(4,14)          =         2.044546	       1.081927
	 R(5,9)           =         2.629718	       1.391587
	 R(5,15)          =         2.044541	       1.081924
	 R(6,10)          =         2.629697	       1.391576
	 R(6,16)          =         2.044540	       1.081924
	 R(7,11)          =         2.629013	       1.391214
	 R(7,17)          =         2.044219	       1.081754
	 R(8,12)          =         2.629002	       1.391208
	 R(8,18)          =         2.044219	       1.081754
	 R(9,11)          =         2.629002	       1.391208
	 R(9,19)          =         2.044219	       1.081754
	 R(10,12)         =         2.629022	       1.391219
	 R(10,20)         =         2.044222	       1.081756
	 R(11,21)         =         2.044104	       1.081693
	 R(12,22)         =         2.044100	       1.081691
	 B(1,2,4)         =         2.105395	     120.630220
	 B(1,2,6)         =         2.105369	     120.628786
	 B(1,3,7)         =         2.105654	     120.645065
	 B(1,3,13)        =         2.079296	     119.134901
	 B(1,5,9)         =         2.105661	     120.645470
	 B(1,5,15)        =         2.079298	     119.134986
	 B(2,1,3)         =         2.105389	     120.629913
	 B(2,1,5)         =         2.105362	     120.628371
	 B(2,4,8)         =         2.105672	     120.646123
	 B(2,4,14)        =         2.079288	     119.134426
	 B(2,6,10)        =         2.105656	     120.645181
	 B(2,6,16)        =         2.079283	     119.134130
	 B(3,1,5)         =         2.072434	     118.741715
	 B(3,7,11)        =         2.097759	     120.192760
	 B(3,7,17)        =         2.090964	     119.803391
	 B(4,2,6)         =         2.072421	     118.740993
	 B(4,8,12)        =         2.097756	     120.192539
	 B(4,8,18)        =         2.090979	     119.804267
	 B(5,9,11)        =         2.097753	     120.192385
	 B(5,9,19)        =         2.090969	     119.803692
	 B(6,10,12)       =         2.097769	     120.193282
	 B(6,10,20)       =         2.090970	     119.803776
	 B(7,3,13)        =         2.098233	     120.219875
	 B(7,11,9)        =         2.087109	     119.582510
	 B(7,11,21)       =         2.098025	     120.208003
	 B(8,4,14)        =         2.098222	     120.219291
	 B(8,12,10)       =         2.087096	     119.581788
	 B(8,12,22)       =         2.098057	     120.209783
	 B(9,5,15)        =         2.098224	     120.219383
	 B(9,11,21)       =         2.098051	     120.209487
	 B(10,6,16)       =         2.098244	     120.220529
	 B(10,12,22)      =         2.098033	     120.208429
	 B(11,7,17)       =         2.094459	     120.003649
	 B(11,9,19)       =         2.094460	     120.003725
	 B(12,8,18)       =         2.094447	     120.002993
	 B(12,10,20)      =         2.094443	     120.002744
	 D(1,2,4,8)       =         3.140817	     179.955546
	 D(1,2,4,14)      =        -0.003303	      -0.189276
	 D(1,2,6,10)      =         3.140769	     179.952791
	 D(1,2,6,16)      =        -0.003359	      -0.192463
	 D(1,3,7,11)      =         0.001617	       0.092640
	 D(1,3,7,17)      =         3.140369	     179.929906
	 D(1,5,9,11)      =         0.001593	       0.091261
	 D(1,5,9,19)      =         3.140354	     179.929024
	 D(2,1,3,7)       =         3.140862	     179.958124
	 D(2,1,3,13)      =        -0.003252	      -0.186339
	 D(2,1,5,9)       =         3.140723	     179.950198
	 D(2,1,5,15)      =        -0.003411	      -0.195417
	 D(2,4,8,12)      =         0.001621	       0.092905
	 D(2,4,8,18)      =         3.140368	     179.929836
	 D(2,6,10,12)     =         0.001588	       0.090967
	 D(2,6,10,20)     =         3.140355	     179.929067
	*D(3,1,2,4)       =         1.814715	     103.975485
	*D(3,1,2,6)       =        -1.326809	     -76.020529
	 D(3,1,5,9)       =        -0.000778	      -0.044590
	 D(3,1,5,15)      =         3.138273	     179.809795
	 D(3,7,11,9)      =        -0.000798	      -0.045718
	 D(3,7,11,21)     =         3.140773	     179.953050
	*D(4,2,1,5)       =        -1.326785	     -76.019205
	 D(4,2,6,10)      =        -0.000756	      -0.043297
	 D(4,2,6,16)      =         3.138302	     179.811448
	 D(4,8,12,10)     =        -0.000785	      -0.044964
	 D(4,8,12,22)     =         3.140814	     179.955367
	*D(5,1,2,6)       =         1.814877	     103.984781
	 D(5,1,3,7)       =        -0.000822	      -0.047088
	 D(5,1,3,13)      =         3.138249	     179.808449
	 D(5,9,11,7)      =        -0.000794	      -0.045506
	 D(5,9,11,21)     =         3.140820	     179.955726
	 D(6,2,4,8)       =        -0.000844	      -0.048366
	 D(6,2,4,14)      =         3.138221	     179.806812
	 D(6,10,12,8)     =        -0.000807	      -0.046245
	 D(6,10,12,22)    =         3.140780	     179.953424
	 D(7,11,9,19)     =        -3.139550	    -179.882943
	 D(8,12,10,20)    =        -3.139568	    -179.884022
	 D(9,11,7,17)     =        -3.139545	    -179.882657
	 D(10,12,8,18)    =        -3.139526	    -179.881570
	 D(11,7,3,13)     =        -3.137427	    -179.761329
	 D(11,9,5,15)     =        -3.137431	    -179.761546
	 D(12,8,4,14)     =        -3.137416	    -179.760702
	 D(12,10,6,16)    =        -3.137442	    -179.762201
	 D(13,3,7,17)     =         0.001325	       0.075937
	 D(14,4,8,18)     =         0.001330	       0.076229
	 D(15,5,9,19)     =         0.001330	       0.076217
	 D(16,6,10,20)    =         0.001325	       0.075900
	 D(17,7,11,21)    =         0.002027	       0.116111
	 D(18,8,12,22)    =         0.002073	       0.118761
	 D(19,9,11,21)    =         0.002065	       0.118289
	 D(20,10,12,22)   =         0.002018	       0.115648

	Current energy   :      -463.1278322543

	Energy change for the previous step:
		Projected    :        -0.0105212891
		Actual       :        -0.0051011119

	Performing BFGS update.
	Previous computed or guess Hessian on step 1.
	Steps to be used in Hessian update: 1
	Taking RFO optimization step.
	Going to follow RFO solution 1.
	Using RFO vector 1.
	Norm of target step-size    0.01822
	Projected energy change by RFO approximation:        -0.0001387340

	Back-transformation to cartesian coordinates...
	Successfully converged to displaced geometry.

	Back-transformation to cartesian coordinates to adjust frozen coordinates...
	Successfully converged to displaced geometry.

	--- Internal Coordinate Step in ANG or DEG, aJ/ANG or AJ/DEG ---
	 ---------------------------------------------------------------------------
	   Coordinate                Previous        Force       Change         New 
	   ----------                --------       ------       ------       ------
	    1 R(1,2)          =      1.486760     0.023744     0.004075     1.490835
	    2 R(1,3)          =      1.396763     0.019983     0.002641     1.399404
	    3 R(1,5)          =      1.396760     0.020001     0.002643     1.399403
	    4 R(2,4)          =      1.396754     0.020021     0.002646     1.399399
	    5 R(2,6)          =      1.396773     0.019942     0.002635     1.399409
	    6 R(3,7)          =      1.391583     0.011525     0.001416     1.392999
	    7 R(3,13)         =      1.081924     0.001906     0.000259     1.082183
	    8 R(4,8)          =      1.391587     0.011508     0.001414     1.393001
	    9 R(4,14)         =      1.081927     0.001893     0.000256     1.082183
	   10 R(5,9)          =      1.391587     0.011508     0.001414     1.393001
	   11 R(5,15)         =      1.081924     0.001905     0.000258     1.082183
[...]
	 R(9,19)          =         2.044310	       1.081802
	 R(10,12)         =         2.633690	       1.393689
	 R(10,20)         =         2.044311	       1.081803
	 R(11,21)         =         2.043777	       1.081520
	 R(12,22)         =         2.043776	       1.081520
	 B(1,2,4)         =         2.104371	     120.571574
	 B(1,2,6)         =         2.104366	     120.571264
	 B(1,3,7)         =         2.104583	     120.583743
	 B(1,3,13)        =         2.080559	     119.207252
	 B(1,5,9)         =         2.104586	     120.583869
	 B(1,5,15)        =         2.080560	     119.207317
	 B(2,1,3)         =         2.104370	     120.571528
	 B(2,1,5)         =         2.104364	     120.571203
	 B(2,4,8)         =         2.104587	     120.583941
	 B(2,4,14)        =         2.080560	     119.207321
	 B(2,6,10)        =         2.104584	     120.583801
	 B(2,6,16)        =         2.080554	     119.206980
	 B(3,1,5)         =         2.074451	     118.857269
	 B(3,7,11)        =         2.096731	     120.133823
	 B(3,7,17)        =         2.090540	     119.779097
	 B(4,2,6)         =         2.074449	     118.857162
	 B(4,8,12)        =         2.096729	     120.133746
	 B(4,8,18)        =         2.090540	     119.779117
	 B(5,9,11)        =         2.096728	     120.133681
	 B(5,9,19)        =         2.090539	     119.779088
	 B(6,10,12)       =         2.096731	     120.133824
	 B(6,10,20)       =         2.090544	     119.779335
	 B(7,3,13)        =         2.098039	     120.208785
	 B(7,11,9)        =         2.089290	     119.707513
	 B(7,11,21)       =         2.096943	     120.145960
	 B(8,4,14)        =         2.098034	     120.208518
	 B(8,12,10)       =         2.089289	     119.707424
	 B(8,12,22)       =         2.096954	     120.146602
	 B(9,5,15)        =         2.098036	     120.208593
	 B(9,11,21)       =         2.096952	     120.146527
	 B(10,6,16)       =         2.098043	     120.208998
	 B(10,12,22)      =         2.096943	     120.145974
	 B(11,7,17)       =         2.095912	     120.086894
	 B(11,9,19)       =         2.095914	     120.087047
	 B(12,8,18)       =         2.095913	     120.086951
	 B(12,10,20)      =         2.095908	     120.086657
	 D(1,2,4,8)       =         3.140809	     179.955072
	 D(1,2,4,14)      =        -0.003758	      -0.215341
	 D(1,2,6,10)      =         3.140715	     179.949740
	 D(1,2,6,16)      =        -0.003854	      -0.220844
	 D(1,3,7,11)      =         0.001681	       0.096286
	 D(1,3,7,17)      =         3.140538	     179.939567
	 D(1,5,9,11)      =         0.001648	       0.094407
	 D(1,5,9,19)      =         3.140518	     179.938433
	 D(2,1,3,7)       =         3.140815	     179.955457
	 D(2,1,3,13)      =        -0.003751	      -0.214939
	 D(2,1,5,9)       =         3.140709	     179.949361
	 D(2,1,5,15)      =        -0.003862	      -0.221265
	 D(2,4,8,12)      =         0.001674	       0.095892
	 D(2,4,8,18)      =         3.140531	     179.939180
	 D(2,6,10,12)     =         0.001655	       0.094810
	 D(2,6,10,20)     =         3.140525	     179.938817
	*D(3,1,2,4)       =         1.814715	     103.975485
	*D(3,1,2,6)       =        -1.326809	     -76.020529
	 D(3,1,5,9)       =        -0.000793	      -0.045419
	 D(3,1,5,15)      =         3.137822	     179.783955
	 D(3,7,11,9)      =        -0.000821	      -0.047031
	 D(3,7,11,21)     =         3.140767	     179.952665
	*D(4,2,1,5)       =        -1.326785	     -76.019205
	 D(4,2,6,10)      =        -0.000809	      -0.046341
	 D(4,2,6,16)      =         3.137807	     179.783075
	 D(4,8,12,10)     =        -0.000823	      -0.047172
	 D(4,8,12,22)     =         3.140763	     179.952462
	*D(5,1,2,6)       =         1.814877	     103.984781
	 D(5,1,3,7)       =        -0.000869	      -0.049764
	 D(5,1,3,13)      =         3.137750	     179.779840
	 D(5,9,11,7)      =        -0.000832	      -0.047691
	 D(5,9,11,21)     =         3.140766	     179.952613
	 D(6,2,4,8)       =        -0.000853	      -0.048847
	 D(6,2,4,14)      =         3.137766	     179.780741
	 D(6,10,12,8)     =        -0.000830	      -0.047555
	 D(6,10,12,22)    =         3.140769	     179.952811
	 D(7,11,9,19)     =        -3.139694	    -179.891233
	 D(8,12,10,20)    =        -3.139692	    -179.891079
	 D(9,11,7,17)     =        -3.139670	    -179.889827
	 D(10,12,8,18)    =        -3.139672	    -179.889975
	 D(11,7,3,13)     =        -3.136908	    -179.731611
	 D(11,9,5,15)     =        -3.136937	    -179.733257
	 D(12,8,4,14)     =        -3.136915	    -179.731987
	 D(12,10,6,16)    =        -3.136931	    -179.732895
	 D(13,3,7,17)     =         0.001949	       0.111670
	 D(14,4,8,18)     =         0.001943	       0.111301
	 D(15,5,9,19)     =         0.001933	       0.110769
	 D(16,6,10,20)    =         0.001939	       0.111111
	 D(17,7,11,21)    =         0.001918	       0.109870
	 D(18,8,12,22)    =         0.001914	       0.109659
	 D(19,9,11,21)    =         0.001904	       0.109070
	 D(20,10,12,22)   =         0.001907	       0.109288

	Current energy   :      -463.1279015188

	Energy change for the previous step:
		Projected    :        -0.0001387340
		Actual       :        -0.0000692644

	Performing BFGS update.
	Previous computed or guess Hessian on step 1.
	Steps to be used in Hessian update: 2 1
	Taking RFO optimization step.
	Going to follow RFO solution 1.
	Using RFO vector 1.
	Norm of target step-size    0.00289
	Projected energy change by RFO approximation:        -0.0000015721

	Back-transformation to cartesian coordinates...
	Successfully converged to displaced geometry.

	Back-transformation to cartesian coordinates to adjust frozen coordinates...
	Successfully converged to displaced geometry.

	--- Internal Coordinate Step in ANG or DEG, aJ/ANG or AJ/DEG ---
	 ---------------------------------------------------------------------------
	   Coordinate                Previous        Force       Change         New 
	   ----------                --------       ------       ------       ------
	    1 R(1,2)          =      1.490835     0.002576     0.000574     1.491409
	    2 R(1,3)          =      1.399404    -0.002221    -0.000350     1.399053
	    3 R(1,5)          =      1.399403    -0.002216    -0.000350     1.399053
	    4 R(2,4)          =      1.399399    -0.002204    -0.000347     1.399052
	    5 R(2,6)          =      1.399409    -0.002242    -0.000354     1.399055
	    6 R(3,7)          =      1.392999     0.000968     0.000151     1.393150
	    7 R(3,13)         =      1.082183     0.000012     0.000000     1.082183
	    8 R(4,8)          =      1.393001     0.000962     0.000150     1.393151
	    9 R(4,14)         =      1.082183     0.000010    -0.000000     1.082183
	   10 R(5,9)          =      1.393001     0.000959     0.000149     1.393150
	   11 R(5,15)         =      1.082183     0.000012     0.000001     1.082183
	   12 R(6,10)         =      1.392995     0.000985     0.000153     1.393149
	   13 R(6,16)         =      1.082183     0.000012     0.000001     1.082183
	   14 R(7,11)         =      1.393686    -0.001023    -0.000124     1.393563
	   15 R(7,17)         =      1.081802    -0.000084    -0.000022     1.081780
	   16 R(8,12)         =      1.393683    -0.001014    -0.000122     1.393561
	   17 R(8,18)         =      1.081802    -0.000083    -0.000022     1.081780
	   18 R(9,11)         =      1.393684    -0.001012    -0.000122     1.393562
	   19 R(9,19)         =      1.081802    -0.000083    -0.000022     1.081780
	   20 R(10,12)        =      1.393689    -0.001032    -0.000125     1.393564
	   21 R(10,20)        =      1.081803    -0.000086    -0.000023     1.081780
	   22 R(11,21)        =      1.081520     0.000422     0.000069     1.081589
	   23 R(12,22)        =      1.081520     0.000424     0.000069     1.081589
	   24 B(1,2,4)        =    120.571574    -0.000006    -0.019398   120.552176
	   25 B(1,2,6)        =    120.571264    -0.000006    -0.019010   120.552254
	   26 B(1,3,7)        =    120.583743    -0.000006    -0.020699   120.563044
	   27 B(1,3,13)       =    119.207252     0.000001     0.001352   119.208604
	   28 B(1,5,9)        =    120.583869    -0.000006    -0.020780   120.563088
	   29 B(1,5,15)       =    119.207317     0.000001     0.001325   119.208643
	   30 B(2,1,3)        =    120.571528    -0.000006    -0.019435   120.552093
	   31 B(2,1,5)        =    120.571203    -0.000006    -0.018873   120.552330
	   32 B(2,4,8)        =    120.583941    -0.000006    -0.020874   120.563067
	   33 B(2,4,14)       =    119.207321     0.000001     0.001374   119.208695
	   34 B(2,6,10)       =    120.583801    -0.000006    -0.020726   120.563075
	   35 B(2,6,16)       =    119.206980     0.000001     0.001512   119.208492
	   36 B(3,1,5)        =    118.857269     0.000012     0.038308   118.895577
	   37 B(3,7,11)       =    120.133823     0.000000     0.001190   120.135013
	   38 B(3,7,17)       =    119.779097     0.000002     0.010524   119.789621
	   39 B(4,2,6)        =    118.857162     0.000012     0.038408   118.895570
	   40 B(4,8,12)       =    120.133746     0.000000     0.001246   120.134992
	   41 B(4,8,18)       =    119.779117     0.000002     0.010419   119.789536
	   42 B(5,9,11)       =    120.133681     0.000000     0.001277   120.134958
	   43 B(5,9,19)       =    119.779088     0.000002     0.010493   119.789581
	   44 B(6,10,12)      =    120.133824     0.000000     0.001159   120.134983
	   45 B(6,10,20)      =    119.779335     0.000002     0.010397   119.789732
	   46 B(7,3,13)       =    120.208785     0.000005     0.019402   120.228187
	   47 B(7,11,9)       =    119.707513    -0.000001     0.000695   119.708209
	   48 B(7,11,21)      =    120.145960     0.000001    -0.000148   120.145812
	   49 B(8,4,14)       =    120.208518     0.000005     0.019555   120.228072
	   50 B(8,12,10)      =    119.707424    -0.000001     0.000779   119.708203
	   51 B(8,12,22)      =    120.146602     0.000000    -0.000600   120.146003
	   52 B(9,5,15)       =    120.208593     0.000005     0.019508   120.228101
	   53 B(9,11,21)      =    120.146527     0.000000    -0.000548   120.145979
	   54 B(10,6,16)      =    120.208998     0.000005     0.019267   120.228265
	   55 B(10,12,22)     =    120.145974     0.000001    -0.000179   120.145795
	   56 B(11,7,17)      =    120.086894    -0.000003    -0.011688   120.075206
	   57 B(11,9,19)      =    120.087047    -0.000003    -0.011745   120.075302
	   58 B(12,8,18)      =    120.086951    -0.000003    -0.011639   120.075312
	   59 B(12,10,20)     =    120.086657    -0.000003    -0.011531   120.075126
	   60 D(1,2,4,8)      =    179.955072    -0.000000    -0.002555   179.952517
	   61 D(1,2,4,14)     =     -0.215341     0.000000     0.019915    -0.195426
	   62 D(1,2,6,10)     =    179.949740    -0.000000    -0.001584   179.948156
	   63 D(1,2,6,16)     =     -0.220844     0.000000     0.020258    -0.200586
	   64 D(1,3,7,11)     =      0.096286     0.000000     0.004102     0.100387
	   65 D(1,3,7,17)     =    179.939567     0.000000     0.015119   179.954686
	   66 D(1,5,9,11)     =      0.094407     0.000000     0.004243     0.098650
	   67 D(1,5,9,19)     =    179.938433     0.000000     0.015324   179.953757
	   68 D(2,1,3,7)      =    179.955457    -0.000000    -0.001904   179.953553
	   69 D(2,1,3,13)     =     -0.214939     0.000000     0.020520    -0.194419
	   70 D(2,1,5,9)      =    179.949361    -0.000000    -0.002250   179.947111
	   71 D(2,1,5,15)     =     -0.221265     0.000000     0.019684    -0.201581
	   72 D(2,4,8,12)     =      0.095892     0.000000     0.004416     0.100309
	   73 D(2,4,8,18)     =    179.939180     0.000000     0.015566   179.954747
	   74 D(2,6,10,12)    =      0.094810     0.000000     0.003899     0.098710
	   75 D(2,6,10,20)    =    179.938817     0.000000     0.014871   179.953687
	   76 *D(3,1,2,4)     =    103.975485     0.000000    -0.000000   103.975485
	   77 *D(3,1,2,6)     =    -76.020529     0.000000     0.000000   -76.020529
	   78 D(3,1,5,9)      =     -0.045419    -0.000000    -0.002247    -0.047665
	   79 D(3,1,5,15)     =    179.783955     0.000000     0.019687   179.803643
	   80 D(3,7,11,9)     =     -0.047031    -0.000000    -0.002112    -0.049143
	   81 D(3,7,11,21)    =    179.952665    -0.000000    -0.002233   179.950432
	   82 *D(4,2,1,5)     =    -76.019205     0.000000    -0.000000   -76.019205
	   83 D(4,2,6,10)     =     -0.046341    -0.000000    -0.001582    -0.047923
	   84 D(4,2,6,16)     =    179.783075     0.000000     0.020260   179.803335
	   85 D(4,8,12,10)    =     -0.047172    -0.000000    -0.002094    -0.049266
	   86 D(4,8,12,22)    =    179.952462    -0.000000    -0.002006   179.950456
	   87 *D(5,1,2,6)     =    103.984781     0.000000     0.000000   103.984781
	   88 D(5,1,3,7)      =     -0.049764    -0.000000    -0.001907    -0.051671
	   89 D(5,1,3,13)     =    179.779840     0.000000     0.020517   179.800357
	   90 D(5,9,11,7)     =     -0.047691    -0.000000    -0.002047    -0.049738
	   91 D(5,9,11,21)    =    179.952613    -0.000000    -0.001926   179.950687
	   92 D(6,2,4,8)      =     -0.048847    -0.000000    -0.002557    -0.051404
	   93 D(6,2,4,14)     =    179.780741     0.000000     0.019912   179.800653
	   94 D(6,10,12,8)    =     -0.047555    -0.000000    -0.002050    -0.049605
	   95 D(6,10,12,22)   =    179.952811    -0.000000    -0.002139   179.950673
	   96 D(7,11,9,19)    =   -179.891233    -0.000000    -0.013194  -179.904428
	   97 D(8,12,10,20)   =   -179.891079    -0.000000    -0.013087  -179.904166
	   98 D(9,11,7,17)    =   -179.889827    -0.000000    -0.013196  -179.903023
	   99 D(10,12,8,18)   =   -179.889975    -0.000000    -0.013311  -179.903286
	  100 D(11,7,3,13)    =   -179.731611    -0.000000    -0.018519  -179.750130
	  101 D(11,9,5,15)    =   -179.733257    -0.000000    -0.017883  -179.751140
	  102 D(12,8,4,14)    =   -179.731987    -0.000000    -0.018251  -179.750238
	  103 D(12,10,6,16)   =   -179.732895    -0.000000    -0.018134  -179.751030
	  104 D(13,3,7,17)    =      0.111670    -0.000000    -0.007502     0.104168
	  105 D(14,4,8,18)    =      0.111301    -0.000000    -0.007101     0.104200
	  106 D(15,5,9,19)    =      0.110769    -0.000000    -0.006802     0.103966
	  107 D(16,6,10,20)   =      0.111111    -0.000000    -0.007163     0.103948
	  108 D(17,7,11,21)   =      0.109870    -0.000000    -0.013317     0.096552
	  109 D(18,8,12,22)   =      0.109659    -0.000000    -0.013223     0.096437
	  110 D(19,9,11,21)   =      0.109070    -0.000000    -0.013073     0.095997
	  111 D(20,10,12,22)  =      0.109288    -0.000000    -0.013176     0.096112
	 ---------------------------------------------------------------------------
	Successfully symmetrized geometry.

  ==> Convergence Check <==

  Measures of convergence in internal coordinates in au.
  Criteria marked as inactive (o), active & met (*), and active & unmet ( ).
  ---------------------------------------------------------------------------------------------
   Step     Total Energy     Delta E     MAX Force     RMS Force      MAX Disp      RMS Disp   
  ---------------------------------------------------------------------------------------------
    Convergence Criteria             o    2.50e-03 *    1.70e-03 *    1.00e-02 *    6.70e-03 *
  ---------------------------------------------------------------------------------------------
      3    -463.12790152   -6.93e-05 o    3.13e-04 *    7.55e-05 *    1.08e-03 *    2.74e-04 *  ~
  ---------------------------------------------------------------------------------------------


  **** Optimization is complete! (in 3 steps) ****

  ==> Optimization Summary <==

  Measures of convergence in internal coordinates in au.
  --------------------------------------------------------------------------------------------------------------- ~
   Step         Total Energy             Delta E       MAX Force       RMS Force        MAX Disp        RMS Disp  ~
  --------------------------------------------------------------------------------------------------------------- ~
      1    -463.122731142428   -463.122731142428      0.02552660      0.00646289      0.06139877      0.01560135  ~
      2    -463.127832254330     -0.005101111903      0.00288202      0.00076840      0.00770099      0.00172979  ~
      3    -463.127901518754     -0.000069264424      0.00031270      0.00007553      0.00108387      0.00027417  ~
  --------------------------------------------------------------------------------------------------------------- ~

	Writing optimization data to binary file.
	Final energy is   -463.1279015187543
	Final (previous) structure:
	Cartesian Geometry (in Angstrom)
	    C     0.7432433071   0.0497403466  -0.0276262102
	    C    -0.7432474628  -0.0496380044   0.0276801849
	    C     1.4164487174  -0.0240385644  -1.2522412805
	    C    -1.3622471183  -1.2284700794   0.4583925872
	    C     1.4894018695   0.2182988242   1.1441944097
	    C    -1.5436087622   1.0342864459  -0.3503063448
	    C     2.8053137118   0.0697136369  -1.3043053318
	    C    -2.7511544578  -1.3212921146   0.5110556711
	    C     2.8784267213   0.3101343945   1.0929280044
	    C    -2.9325804368   0.9413615377  -0.2997221284
	    C     3.5397536413   0.2365523352  -0.1316482986
	    C    -3.5397504342  -0.2366313325   0.1316079917
	    H     0.8452749876  -0.1579468860  -2.1616085523
	    H    -0.7488030583  -2.0714242270   0.7486260351
	    H     0.9743447140   0.2796052405   2.0939717833
	    H    -1.0708195346   1.9498623953  -0.6809277807
	    H     3.3124753655   0.0100407866  -2.2579941523
	    H    -3.2160099774  -2.2392198506   0.8451423117
	    H     3.4423031958   0.4413445341   2.0067786759
	    H    -3.5387631864   1.7876663030  -0.5940143211
	    H     4.6181257041   0.3085969627  -0.1717677154
	    H    -4.6181198332  -0.3087327444   0.1716835220
	Saving final (previous) structure.
			--------------------------
			 OPTKING Finished Execution 
			--------------------------

    Final optimized geometry and variables:
    Molecular point group: c1
    Full point group: C1

    Geometry (in Angstrom), charge = 0, multiplicity = 1:

    C            0.743243310046     0.049740346828    -0.027626210283
    C           -0.743247465701    -0.049638004568     0.027680185035
    C            1.416448723010    -0.024038564534    -1.252241285382
    C           -1.362247123642    -1.228470084217     0.458392589021
    C            1.489401875337     0.218298825057     1.144194414196
    C           -1.543608768244     1.034286450003    -0.350306346212
    C            2.805313722807     0.069713637200    -1.304305336936
    C           -2.751154468567    -1.321292119763     0.511055673084
    C            2.878426732593     0.310134395696     1.092928008702
    C           -2.932580448294     0.941361541381    -0.299722129618
    C            3.539753655224     0.236552336164    -0.131648299147
    C           -3.539750448120    -0.236631333476     0.131607992219
    H            0.845274990929    -0.157946886587    -2.161608560839
    H           -0.748803061270    -2.071424235146     0.748626038070
    H            0.974344717849     0.279605241640     2.093971791548
    H           -1.070819538787     1.949862402962    -0.680927783339
    H            3.312475378542     0.010040786683    -2.257994161189
    H           -3.216009990036    -2.239219859360     0.845142315029
    H            3.442303209346     0.441344535859     2.006778683767
    H           -3.538763200358     1.787666310001    -0.594014323484
    H            4.618125722203     0.308596963880    -0.171767716108
    H           -4.618119851350    -0.308732745597     0.171683522680

	Removing binary optimization data file.
	Cleaning optimization helper files.

    Psi4 stopped on: Monday, 31 May 2021 05:35PM
    Psi4 wall time for execution: 0:02:10.53

*** Psi4 exiting successfully. Buy a developer a beer!
