
    -----------------------------------------------------------------------
          Psi4: An Open-Source Ab Initio Electronic Structure Package
                               Psi4 1.3.2 release

                         Git: Rev {HEAD} ecbda83 


    R. M. Parrish, L. A. Burns, D. G. A. Smith, A. C. Simmonett,
    A. E. DePrince III, E. G. Hohenstein, U. Bozkaya, A. Yu. Sokolov,
    R. Di Remigio, R. M. Richard, J. F. Gonthier, A. M. James,
    H. R. McAlexander, A. Kumar, M. Saitow, X. Wang, B. P. Pritchard,
    P. Verma, H. F. Schaefer III, K. Patkowski, R. A. King, E. F. Valeev,
    F. A. Evangelista, J. M. Turney, T. D. Crawford, and C. D. Sherrill,
    J. Chem. Theory Comput. 13(7) pp 3185--3197 (2017).
    (doi: 10.1021/acs.jctc.7b00174)


                         Additional Contributions by
    P. Kraus, H. Kruse, M. H. Lechner, M. C. Schieber, R. A. Shaw,
    A. Alenaizan, R. Galvelis, Z. L. Glick, S. Lehtola, and J. P. Misiewicz

    -----------------------------------------------------------------------


    Psi4 started on: Monday, 31 May 2021 05:51PM

    Process ID: 31288
    Host:       daniele-Precision-5750
    PSIDATADIR: /home/daniele/anaconda3/envs/poltype/share/psi4
    Memory:     500.0 MiB
    Threads:    1
    
  ==> Input File <==

--------------------------------------------------------------------------
molecule { 
0 1
 C    0.745510    0.049899   -0.027717
 C   -0.745516   -0.049820    0.027701
 C    1.400415    0.587764   -1.146709
 C   -1.388052   -0.872250    0.966370
 C    1.546978   -0.390669    1.037131
 C   -1.559347    0.675218   -0.856804
 C    2.787538    0.681292   -1.199383
 C   -2.775177   -0.965722    1.019133
 C    2.934290   -0.298724    0.986699
 C   -2.946646    0.583088   -0.806438
 C    3.564102    0.238298   -0.132469
 C   -3.564098   -0.238364    0.132484
 H    0.831412    0.909589   -2.006524
 H   -0.806755   -1.476853    1.646932
 H    1.090889   -0.781057    1.935013
 H   -1.115554    1.348423   -1.575456
 H    3.260902    1.093408   -2.080379
 H   -3.238201   -1.615470    1.749546
 H    3.522016   -0.639929    1.828261
 H   -3.544706    1.161856   -1.497394
 H    4.642225    0.310361   -0.172540
 H   -4.642216   -0.310479    0.172566
}
memory 700MB
set_num_threads(3)
psi4_io.set_default_path("/home/daniele/PSI4_sctatch/Psi4-biphenyl")
set freeze_core True
E, wfn = energy('wb97x-d/6-311+G*',return_wfn=True)
oeprop(wfn,"WIBERG_LOWDIN_INDICES")
clean()
--------------------------------------------------------------------------

  Memory set to 667.572 MiB by Python driver.
  Threads set to 3 by Python driver.

*** tstart() called on daniele-Precision-5750
*** at Mon May 31 17:51:17 2021

   => Loading Basis Set <=

    Name: 6-311+G*
    Role: ORBITAL
    Keyword: BASIS
    atoms 1-12  entry C          line   130 file /home/daniele/anaconda3/envs/poltype/share/psi4/basis/6-311pgs.gbs 
    atoms 13-22 entry H          line    47 file /home/daniele/anaconda3/envs/poltype/share/psi4/basis/6-311pgs.gbs 


         ---------------------------------------------------------
                                   SCF
               by Justin Turney, Rob Parrish, Andy Simmonett
                          and Daniel G. A. Smith
                              RKS Reference
                        3 Threads,    667 MiB Core
         ---------------------------------------------------------

  ==> Geometry <==

    Molecular point group: c1
    Full point group: C1

    Geometry (in Angstrom), charge = 0, multiplicity = 1:

       Center              X                  Y                   Z               Mass       
    ------------   -----------------  -----------------  -----------------  -----------------
         C            0.745510155156     0.049899208865    -0.027717007760    12.000000000000
         C           -0.745515844844    -0.049819791135     0.027700992240    12.000000000000
         C            1.400415155156     0.587764208865    -1.146709007760    12.000000000000
         C           -1.388051844844    -0.872249791135     0.966369992240    12.000000000000
         C            1.546978155156    -0.390668791135     1.037130992240    12.000000000000
         C           -1.559346844844     0.675218208865    -0.856804007760    12.000000000000
         C            2.787538155156     0.681292208865    -1.199383007760    12.000000000000
         C           -2.775176844844    -0.965721791135     1.019132992240    12.000000000000
         C            2.934290155156    -0.298723791135     0.986698992240    12.000000000000
         C           -2.946645844844     0.583088208865    -0.806438007760    12.000000000000
         C            3.564102155156     0.238298208865    -0.132469007760    12.000000000000
         C           -3.564097844844    -0.238363791135     0.132483992240    12.000000000000
         H            0.831412155156     0.909589208865    -2.006524007760     1.007825032230
         H           -0.806754844844    -1.476852791135     1.646931992240     1.007825032230
         H            1.090889155156    -0.781056791135     1.935012992240     1.007825032230
         H           -1.115553844844     1.348423208865    -1.575456007760     1.007825032230
         H            3.260902155156     1.093408208865    -2.080379007760     1.007825032230
         H           -3.238200844844    -1.615469791135     1.749545992240     1.007825032230
         H            3.522016155156    -0.639928791135     1.828260992240     1.007825032230
         H           -3.544705844844     1.161856208865    -1.497394007760     1.007825032230
         H            4.642225155156     0.310361208865    -0.172540007760     1.007825032230
         H           -4.642215844844    -0.310478791135     0.172565992240     1.007825032230

  Running in c1 symmetry.

  Rotational constants: A =      0.09622  B =      0.01837  C =      0.01553 [cm^-1]
  Rotational constants: A =   2884.48223  B =    550.67819  C =    465.43861 [MHz]
  Nuclear repulsion =  599.339065455621494

  Charge       = 0
  Multiplicity = 1
  Electrons    = 82
  Nalpha       = 41
  Nbeta        = 41

  ==> Algorithm <==

  SCF Algorithm Type is DF.
  DIIS enabled.
  MOM disabled.
  Fractional occupation disabled.
  Guess Type is SAD.
  Energy threshold   = 1.00e-06
  Density threshold  = 1.00e-06
  Integral threshold = 0.00e+00

  ==> Primary Basis <==

  Basis Set: 6-311+G*
    Blend: 6-311+G*
    Number of shells: 150
    Number of basis function: 294
    Number of Cartesian functions: 306
    Spherical Harmonics?: true
    Max angular momentum: 2

  ==> DFT Potential <==

   => Composite Functional: WB97X-D <= 

    wB97X-D Hyb-GGA Exchange-Correlation Functional

    J.-D. Chai and M. Head-Gordon, Phys. Chem. Chem. Phys. 10, 6615 (2008)

    Deriv               =              1
    GGA                 =           TRUE
    Meta                =          FALSE

    Exchange Hybrid     =           TRUE
    MP2 Hybrid          =          FALSE

   => Exchange-Correlation Functionals <=

    1.0000   wB97D range-separated functional

   => Exact (HF) Exchange <=

    0.7780            HF,LR [omega = 0.2000]
    0.2220               HF 

   => Molecular Quadrature <=

    Radial Scheme          =       TREUTLER
    Pruning Scheme         =           FLAT
    Nuclear Scheme         =       TREUTLER

    BS radius alpha        =              1
    Pruning alpha          =              1
    Radial Points          =             75
    Spherical Points       =            302
    Total Points           =         498300
    Total Blocks           =           3697
    Max Points             =            256
    Max Functions          =            262

   => WB97X-D: Empirical Dispersion <=

    Chai and Head-Gordon Dispersion Correction
    Chai, J.-D.; Head-Gordon, M. (2010), J. Chem. Phys., 132: 6615-6620

        s6 =       1.000000

   => Loading Basis Set <=

    Name: (6-311+G* AUX)
    Role: JKFIT
    Keyword: DF_BASIS_SCF
    atoms 1-12  entry C          line   200 file /home/daniele/anaconda3/envs/poltype/share/psi4/basis/heavy-aug-cc-pvtz-jkfit.gbs 
    atoms 13-22 entry H          line   116 file /home/daniele/anaconda3/envs/poltype/share/psi4/basis/heavy-aug-cc-pvtz-jkfit.gbs 

  ==> Pre-Iterations <==

   -------------------------------------------------------
    Irrep   Nso     Nmo     Nalpha   Nbeta   Ndocc  Nsocc
   -------------------------------------------------------
     A        294     294       0       0       0       0
   -------------------------------------------------------
    Total     294     294      41      41      41       0
   -------------------------------------------------------

  ==> Integral Setup <==

  ==> DiskDFJK: Density-Fitted J/K Matrices <==

    J tasked:                  Yes
    K tasked:                  Yes
    wK tasked:                 Yes
    Omega:               2.000E-01
    OpenMP threads:              3
    Integrals threads:           3
    Memory [MiB]:              450
    Algorithm:                Disk
    Integral Cache:           NONE
    Schwarz Cutoff:          1E-12
    Fitting Condition:       1E-10

   => Auxiliary Basis Set <=

  Basis Set: (6-311+G* AUX)
    Blend: HEAVY-AUG-CC-PVTZ-JKFIT
    Number of shells: 460
    Number of basis function: 1548
    Number of Cartesian functions: 1922
    Spherical Harmonics?: true
    Max angular momentum: 4

  Cached 1.8% of DFT collocation blocks in 0.050 [GiB].

  Minimum eigenvalue in the overlap matrix is 6.1976141676E-07.
  Using Symmetric Orthogonalization.

  SCF Guess: Superposition of Atomic Densities via on-the-fly atomic UHF.

  ==> Iterations <==

                           Total Energy        Delta E     RMS |[F,P]|

   @DF-RKS iter SAD:  -462.64675819808951   -4.62647e+02   0.00000e+00 
   @DF-RKS iter   1:  -462.71694537077877   -7.01872e-02   3.28176e-03 DIIS
   @DF-RKS iter   2:  -462.98465049228730   -2.67705e-01   2.37485e-03 DIIS
   @DF-RKS iter   3:  -463.22999854982277   -2.45348e-01   1.59227e-04 DIIS
   @DF-RKS iter   4:  -463.23121582888018   -1.21728e-03   3.43585e-05 DIIS
   @DF-RKS iter   5:  -463.23127968995976   -6.38611e-05   1.49983e-05 DIIS
   @DF-RKS iter   6:  -463.23128835917078   -8.66921e-06   5.25184e-06 DIIS
   @DF-RKS iter   7:  -463.23128969588595   -1.33672e-06   1.26998e-06 DIIS
   @DF-RKS iter   8:  -463.23128977688674   -8.10008e-08   4.16592e-07 DIIS
  Energy and wave function converged.


  ==> Post-Iterations <==

    Orbital Energies [Eh]
    ---------------------

    Doubly Occupied:                                                      

       1A    -10.306668     2A    -10.306392     3A    -10.292112  
       4A    -10.292103     5A    -10.292057     6A    -10.292055  
       7A    -10.291499     8A    -10.291491     9A    -10.291433  
      10A    -10.291430    11A    -10.290615    12A    -10.290614  
      13A     -0.977117    14A     -0.955350    15A     -0.883085  
      16A     -0.857125    17A     -0.847437    18A     -0.825738  
      19A     -0.725699    20A     -0.721889    21A     -0.686372  
      22A     -0.677937    23A     -0.633524    24A     -0.593714  
      25A     -0.569317    26A     -0.559032    27A     -0.532194  
      28A     -0.521970    29A     -0.520144    30A     -0.514131  
      31A     -0.503948    32A     -0.478615    33A     -0.452071  
      34A     -0.451491    35A     -0.443052    36A     -0.425597  
      37A     -0.416432    38A     -0.367573    39A     -0.336944  
      40A     -0.332256    41A     -0.299024  

    Virtual:                                                              

      42A      0.018521    43A      0.043012    44A      0.058490  
      45A      0.064127    46A      0.066718    47A      0.072670  
      48A      0.084349    49A      0.086213    50A      0.090722  
      51A      0.103503    52A      0.103984    53A      0.104478  
      54A      0.113817    55A      0.127277    56A      0.128467  
      57A      0.130086    58A      0.140614    59A      0.141107  
      60A      0.152479    61A      0.161641    62A      0.170043  
      63A      0.177345    64A      0.182233    65A      0.184012  
      66A      0.189808    67A      0.195707    68A      0.197279  
      69A      0.200003    70A      0.209431    71A      0.217682  
      72A      0.220947    73A      0.223325    74A      0.225299  
      75A      0.230240    76A      0.239520    77A      0.242059  
      78A      0.242502    79A      0.250241    80A      0.255034  
      81A      0.260179    82A      0.263394    83A      0.270456  
      84A      0.272160    85A      0.272727    86A      0.275002  
      87A      0.281469    88A      0.288067    89A      0.288519  
      90A      0.293851    91A      0.297133    92A      0.308371  
      93A      0.311275    94A      0.312500    95A      0.318958  
      96A      0.321852    97A      0.326414    98A      0.333755  
      99A      0.335454   100A      0.342398   101A      0.343567  
     102A      0.353208   103A      0.360230   104A      0.373779  
     105A      0.379240   106A      0.384380   107A      0.385975  
     108A      0.403006   109A      0.412005   110A      0.417495  
     111A      0.420290   112A      0.462310   113A      0.469713  
     114A      0.471263   115A      0.520195   116A      0.554980  
     117A      0.583056   118A      0.590793   119A      0.597887  
     120A      0.612245   121A      0.614840   122A      0.615543  
     123A      0.624145   124A      0.625249   125A      0.629452  
     126A      0.639481   127A      0.642072   128A      0.657763  
     129A      0.660071   130A      0.660511   131A      0.662782  
     132A      0.687451   133A      0.689228   134A      0.697666  
     135A      0.721096   136A      0.721709   137A      0.733659  
     138A      0.739598   139A      0.750373   140A      0.750813  
     141A      0.768470   142A      0.773332   143A      0.778277  
     144A      0.788742   145A      0.794365   146A      0.803319  
     147A      0.814345   148A      0.823315   149A      0.848127  
     150A      0.851543   151A      0.870211   152A      0.886382  
     153A      0.910234   154A      0.917452   155A      0.922002  
     156A      0.923321   157A      0.936988   158A      0.937187  
     159A      0.939389   160A      0.940376   161A      0.975490  
     162A      0.989817   163A      0.990079   164A      0.990217  
     165A      0.995113   166A      1.032219   167A      1.037348  
     168A      1.047415   169A      1.054855   170A      1.087223  
     171A      1.099177   172A      1.111290   173A      1.112750  
     174A      1.158608   175A      1.192588   176A      1.195092  
     177A      1.201930   178A      1.212311   179A      1.281831  
     180A      1.293642   181A      1.307422   182A      1.312712  
     183A      1.320146   184A      1.332465   185A      1.352817  
     186A      1.395477   187A      1.407076   188A      1.413866  
     189A      1.565082   190A      1.575736   191A      1.583650  
     192A      1.586916   193A      1.616398   194A      1.617765  
     195A      1.631117   196A      1.648650   197A      1.690365  
     198A      1.761564   199A      1.808597   200A      1.809568  
     201A      1.845407   202A      1.852386   203A      1.857340  
     204A      1.859213   205A      1.876848   206A      1.922645  
     207A      1.932639   208A      1.945004   209A      1.949757  
     210A      1.959453   211A      1.999505   212A      2.012413  
     213A      2.028477   214A      2.035926   215A      2.036775  
     216A      2.052736   217A      2.090234   218A      2.093669  
     219A      2.117363   220A      2.119175   221A      2.216062  
     222A      2.284360   223A      2.289875   224A      2.341771  
     225A      2.350601   226A      2.354063   227A      2.394880  
     228A      2.403571   229A      2.410735   230A      2.450202  
     231A      2.457106   232A      2.480141   233A      2.484688  
     234A      2.485069   235A      2.529654   236A      2.562167  
     237A      2.565068   238A      2.729738   239A      2.756409  
     240A      2.768187   241A      2.791828   242A      2.812564  
     243A      2.841684   244A      2.864737   245A      2.868119  
     246A      2.890815   247A      2.935830   248A      2.950961  
     249A      2.952864   250A      2.990080   251A      2.993446  
     252A      3.036148   253A      3.073760   254A      3.106214  
     255A      3.182556   256A      3.184929   257A      3.277086  
     258A      3.281286   259A      3.328463   260A      3.390937  
     261A      3.412015   262A      3.414158   263A      3.419353  
     264A      3.425051   265A      3.439247   266A      3.443033  
     267A      3.452419   268A      3.538502   269A      3.539080  
     270A      3.654656   271A      3.702076   272A      3.747130  
     273A      3.752631   274A      3.773917   275A      3.812653  
     276A      4.035378   277A      4.109867   278A      4.123964  
     279A      4.152030   280A      4.594604   281A      4.866413  
     282A      4.916115   283A     23.395013   284A     23.577919  
     285A     23.966176   286A     23.984216   287A     24.003446  
     288A     24.031004   289A     24.143015   290A     24.171599  
     291A     24.183454   292A     24.186023   293A     24.279961  
     294A     24.280897  

    Final Occupation by Irrep:
              A 
    DOCC [    41 ]

  @DF-RKS Final Energy:  -463.23128977688674

   => Energetics <=

    Nuclear Repulsion Energy =            599.3390654556214940
    One-Electron Energy =               -1811.7971876763479031
    Two-Electron Energy =                 796.4865455818711553
    DFT Exchange-Correlation Energy =     -47.2477951560371423
    Empirical Dispersion Energy =          -0.0119179819943340
    VV10 Nonlocal Energy =                  0.0000000000000000
    Total Energy =                       -463.2312897768866833

Computation Completed


Properties will be evaluated at   0.000000,   0.000000,   0.000000 [a0]

Properties computed using the SCF density matrix

  Nuclear Dipole Moment: [e a0]
     X:     0.0000      Y:    -0.0001      Z:     0.0000

  Electronic Dipole Moment: [e a0]
     X:    -0.0000      Y:     0.0001      Z:    -0.0000

  Dipole Moment: [e a0]
     X:    -0.0000      Y:     0.0000      Z:    -0.0000     Total:     0.0000

  Dipole Moment: [D]
     X:    -0.0000      Y:     0.0000      Z:    -0.0001     Total:     0.0001


*** tstop() called on daniele-Precision-5750 at Mon May 31 17:52:15 2021
Module time:
	user time   =     162.53 seconds =       2.71 minutes
	system time =       6.83 seconds =       0.11 minutes
	total time  =         58 seconds =       0.97 minutes
Total time:
	user time   =     162.53 seconds =       2.71 minutes
	system time =       6.83 seconds =       0.11 minutes
	total time  =         58 seconds =       0.97 minutes


Properties will be evaluated at   0.000000,   0.000000,   0.000000 [a0]
OEProp: No title given, name of density matrix used for the following properties is 'SCF density'


  Wiberg Bond Indices using Orthogonal Lowdin Orbitals:

  Irrep: 1 Size: 22 x 22

                 1                   2                   3                   4                   5

    1     0.00000000000000     1.04258308833412     1.41069004258236     0.11176857002773     1.41068646362413
    2     1.04258308833412     0.00000000000000     0.11177267137090     1.41069453382505     0.11177317525299
    3     1.41069004258236     0.11177267137090     0.00000000000000     0.02849011246986     0.12856195783535
    4     0.11176857002773     1.41069453382505     0.02849011246986     0.00000000000000     0.06147402985992
    5     1.41068646362413     0.11177317525299     0.12856195783535     0.06147402985992     0.00000000000000
    6     0.11177225370724     1.41068142718774     0.06146769472595     0.12856646219267     0.02848934583664
    7     0.13156013448934     0.01651615465997     1.52948057284868     0.00337264357504     0.14338531662464
    8     0.01651642240682     0.13155811176044     0.00337223551155     1.52947580248807     0.00597335208787
    9     0.13155702151708     0.01651745890791     0.14338294901376     0.00597268949716     1.52948731920643
   10     0.01651658549094     0.13155879427189     0.00597185424279     0.14338295554125     0.00337286339752
   11     0.13630488036679     0.00788550957583     0.13770630957282     0.00864629077579     0.13770806117751
   12     0.00788545981572     0.13630632478657     0.00864632931593     0.13770701651145     0.00864608078952
   13     0.05388913675208     0.01548264793658     0.81442862198757     0.00089370273311     0.00993504902847
   14     0.01548057320711     0.05389127174796     0.00089341488025     0.81442511748678     0.01639897162781
   15     0.05388819370760     0.01548290635060     0.00993479046149     0.01639782513036     0.81442548691912
   16     0.01548143311622     0.05388934712928     0.01639353879765     0.00993518832757     0.00089380804191
   17     0.01059032503846     0.00107701033985     0.06030668341705     0.00033022750798     0.00250121368665
   18     0.00107679466025     0.01059036995133     0.00033021761987     0.06030761910651     0.00023294475318
   19     0.01059048342359     0.00107695799682     0.00250125198102     0.00023290469596     0.06030728465226
   20     0.00107677756840     0.01059044486095     0.00023291518634     0.00250150391011     0.00033021212282
   21     0.00264052714778     0.00031121975688     0.01113872612675     0.00012758123918     0.01113818332049
   22     0.00031113176397     0.00264042624780     0.00012749310513     0.01113842463953     0.00012765501677

                 6                   7                   8                   9                  10

    1     0.11177225370724     0.13156013448934     0.01651642240682     0.13155702151708     0.01651658549094
    2     1.41068142718774     0.01651615465997     0.13155811176044     0.01651745890791     0.13155879427189
    3     0.06146769472595     1.52948057284868     0.00337223551155     0.14338294901376     0.00597185424279
    4     0.12856646219267     0.00337264357504     1.52947580248807     0.00597268949716     0.14338295554125
    5     0.02848934583664     0.14338531662464     0.00597335208787     1.52948731920643     0.00337286339752
    6     0.00000000000000     0.00597206270242     0.14338490189330     0.00337259182148     1.52949315029697
    7     0.00597206270242     0.00000000000000     0.00096449398646     0.13811182988820     0.00059638778651
    8     0.14338490189330     0.00096449398646     0.00000000000000     0.00059654826905     0.13811183310298
    9     0.00337259182148     0.13811182988820     0.00059654826905     0.00000000000000     0.00096460097558
   10     1.52949315029697     0.00059638778651     0.13811183310298     0.00096460097558     0.00000000000000
   11     0.00864619363125     1.51715089882859     0.00072548472731     1.51715112797883     0.00072548425979
   12     0.13770489866401     0.00072549512204     1.51715688602981     0.00072550475594     1.51714656551498
   13     0.01639366769495     0.05646449719791     0.00025790309897     0.00222806864619     0.00140672931403
   14     0.00993584691155     0.00025795195073     0.05646254982589     0.00140698073482     0.00222794414741
   15     0.00089351445254     0.00222795291374     0.00140696701440     0.05646557929582     0.00025795884007
   16     0.81442745157651     0.00140666455196     0.00222813520209     0.00025794175160     0.05646611985646
   17     0.00023284150143     0.83398498847846     0.00006291334125     0.01139078662826     0.00004395810688
   18     0.00250156401240     0.00006292641369     0.83398346015393     0.00004396300476     0.01139064799428
   19     0.00033021411671     0.01139097233478     0.00004397193644     0.83398359457496     0.00006291769183
   20     0.06030800072493     0.00004396779822     0.01139065156549     0.00006290931168     0.83398279489701
   21     0.00012753456609     0.05926649591356     0.00003529238019     0.05926673463867     0.00003531380048
   22     0.01113850068708     0.00003529452582     0.05926753522074     0.00003530151073     0.05926731464446

                11                  12                  13                  14                  15

    1     0.13630488036679     0.00788545981572     0.05388913675208     0.01548057320711     0.05388819370760
    2     0.00788550957583     0.13630632478657     0.01548264793658     0.05389127174796     0.01548290635060
    3     0.13770630957282     0.00864632931593     0.81442862198757     0.00089341488025     0.00993479046149
    4     0.00864629077579     0.13770701651145     0.00089370273311     0.81442511748678     0.01639782513036
    5     0.13770806117751     0.00864608078952     0.00993504902847     0.01639897162781     0.81442548691912
    6     0.00864619363125     0.13770489866401     0.01639366769495     0.00993584691155     0.00089351445254
    7     1.51715089882859     0.00072549512204     0.05646449719791     0.00025795195073     0.00222795291374
    8     0.00072548472731     1.51715688602981     0.00025790309897     0.05646254982589     0.00140696701440
    9     1.51715112797883     0.00072550475594     0.00222806864619     0.00140698073482     0.05646557929582
   10     0.00072548425979     1.51714656551498     0.00140672931403     0.00222794414741     0.00025795884007
   11     0.00000000000000     0.00534996652801     0.01043379018658     0.00029327316384     0.01043370034270
   12     0.00534996652801     0.00000000000000     0.00029324786899     0.01043360948919     0.00029326797788
   13     0.01043379018658     0.00029324786899     0.00000000000000     0.00009499905751     0.00038190606672
   14     0.00029327316384     0.01043360948919     0.00009499905751     0.00000000000000     0.00450489440200
   15     0.01043370034270     0.00029326797788     0.00038190606672     0.00450489440200     0.00000000000000
   16     0.00029323371248     0.01043382545953     0.00450224436955     0.00038191936080     0.00009500447680
   17     0.05887015634421     0.00003220920289     0.00558832934319     0.00005984146861     0.00025706899947
   18     0.00003220909953     0.05887044868322     0.00005983210692     0.00558831512880     0.00004646366570
   19     0.05887041432868     0.00003220134371     0.00025708675412     0.00004646697375     0.00558826596434
   20     0.00003220850734     0.05887089906241     0.00004645795326     0.00025705763195     0.00005983811902
   21     0.83586009787129     0.00002216089322     0.00022343758527     0.00002399853748     0.00022344583782
   22     0.00002216106052     0.83585873628256     0.00002399661950     0.00022344832378     0.00002399568390

                16                  17                  18                  19                  20

    1     0.01548143311622     0.01059032503846     0.00107679466025     0.01059048342359     0.00107677756840
    2     0.05388934712928     0.00107701033985     0.01059036995133     0.00107695799682     0.01059044486095
    3     0.01639353879765     0.06030668341705     0.00033021761987     0.00250125198102     0.00023291518634
    4     0.00993518832757     0.00033022750798     0.06030761910651     0.00023290469596     0.00250150391011
    5     0.00089380804191     0.00250121368665     0.00023294475318     0.06030728465226     0.00033021212282
    6     0.81442745157651     0.00023284150143     0.00250156401240     0.00033021411671     0.06030800072493
    7     0.00140666455196     0.83398498847846     0.00006292641369     0.01139097233478     0.00004396779822
    8     0.00222813520209     0.00006291334125     0.83398346015393     0.00004397193644     0.01139065156549
    9     0.00025794175160     0.01139078662826     0.00004396300476     0.83398359457496     0.00006290931168
   10     0.05646611985646     0.00004395810688     0.01139064799428     0.00006291769183     0.83398279489701
   11     0.00029323371248     0.05887015634421     0.00003220909953     0.05887041432868     0.00003220850734
   12     0.01043382545953     0.00003220920289     0.05887044868322     0.00003220134371     0.05887089906241
   13     0.00450224436955     0.00558832934319     0.00005983210692     0.00025708675412     0.00004645795326
   14     0.00038191936080     0.00005984146861     0.00558831512880     0.00004646697375     0.00025705763195
   15     0.00009500447680     0.00025706899947     0.00004646366570     0.00558826596434     0.00005983811902
   16     0.00000000000000     0.00004646486405     0.00025706954824     0.00005983499210     0.00558841692633
   17     0.00004646486405     0.00000000000000     0.00001860382955     0.00026829448728     0.00000677040017
   18     0.00025706954824     0.00001860382955     0.00000000000000     0.00000677069738     0.00026829129531
   19     0.00005983499210     0.00026829448728     0.00000677069738     0.00000000000000     0.00001860486919
   20     0.00558841692633     0.00000677040017     0.00026829129531     0.00001860486919     0.00000000000000
   21     0.00002399872951     0.00514625432364     0.00000164332576     0.00514625066117     0.00000164323975
   22     0.00022344015898     0.00000164274031     0.00514628361169     0.00000164315941     0.00514637653047

                21                  22

    1     0.00264052714778     0.00031113176397
    2     0.00031121975688     0.00264042624780
    3     0.01113872612675     0.00012749310513
    4     0.00012758123918     0.01113842463953
    5     0.01113818332049     0.00012765501677
    6     0.00012753456609     0.01113850068708
    7     0.05926649591356     0.00003529452582
    8     0.00003529238019     0.05926753522074
    9     0.05926673463867     0.00003530151073
   10     0.00003531380048     0.05926731464446
   11     0.83586009787129     0.00002216106052
   12     0.00002216089322     0.83585873628256
   13     0.00022343758527     0.00002399661950
   14     0.00002399853748     0.00022344832378
   15     0.00022344583782     0.00002399568390
   16     0.00002399872951     0.00022344015898
   17     0.00514625432364     0.00000164274031
   18     0.00000164332576     0.00514628361169
   19     0.00514625066117     0.00000164315941
   20     0.00000164323975     0.00514637653047
   21     0.00000000000000     0.00000083801292
   22     0.00000083801292     0.00000000000000



  Atomic Valences: 

 #  #
 Irrep: 1
      1:  4.6928663
      2:  4.6928799
      3:  4.4858304
      4:  4.4858412
      5:  4.4858488
      6:  4.4858401
      7:  4.4529777
      8:  4.4529755
      9:  4.4529815
     10:  4.4529828
     11:  4.4531415
     12:  4.4531411
     13:  0.9932854
     14:  0.9932884
     15:  0.9932890
     16:  0.9932851
     17:  0.9908166
     18:  0.9908164
     19:  0.9908164
     20:  0.9908167
     21:  0.9907614
     22:  0.9907616


    Psi4 stopped on: Monday, 31 May 2021 05:52PM
    Psi4 wall time for execution: 0:00:57.34

*** Psi4 exiting successfully. Buy a developer a beer!
