
    -----------------------------------------------------------------------
          Psi4: An Open-Source Ab Initio Electronic Structure Package
                               Psi4 1.3.2 release

                         Git: Rev {HEAD} ecbda83 


    R. M. Parrish, L. A. Burns, D. G. A. Smith, A. C. Simmonett,
    A. E. DePrince III, E. G. Hohenstein, U. Bozkaya, A. Yu. Sokolov,
    R. Di Remigio, R. M. Richard, J. F. Gonthier, A. M. James,
    H. R. McAlexander, A. Kumar, M. Saitow, X. Wang, B. P. Pritchard,
    P. Verma, H. F. Schaefer III, K. Patkowski, R. A. King, E. F. Valeev,
    F. A. Evangelista, J. M. Turney, T. D. Crawford, and C. D. Sherrill,
    J. Chem. Theory Comput. 13(7) pp 3185--3197 (2017).
    (doi: 10.1021/acs.jctc.7b00174)


                         Additional Contributions by
    P. Kraus, H. Kruse, M. H. Lechner, M. C. Schieber, R. A. Shaw,
    A. Alenaizan, R. Galvelis, Z. L. Glick, S. Lehtola, and J. P. Misiewicz

    -----------------------------------------------------------------------


    Psi4 started on: Monday, 31 May 2021 05:05PM

    Process ID: 29108
    Host:       daniele-Precision-5750
    PSIDATADIR: /home/daniele/anaconda3/envs/poltype/share/psi4
    Memory:     500.0 MiB
    Threads:    1
    
  ==> Input File <==

--------------------------------------------------------------------------
molecule { 
0 1
 C    0.745104    0.049717   -0.027381
 C   -0.745126   -0.049974    0.027991
 C    1.385706    1.094649   -0.769237
 C   -1.420309   -0.315567    1.263389
 C    1.572748   -0.896612    0.659703
 C   -1.538253    0.117409   -1.153337
 C    2.790609    1.181205   -0.816038
 C   -2.825120   -0.406925    1.305669
 C    2.976257   -0.794992    0.600851
 C   -2.942010    0.021662   -1.092264
 C    3.583673    0.240010   -0.133957
 C   -3.583837   -0.239297    0.132470
 H    0.790718    1.836278   -1.299401
 H   -0.852674   -0.442815    2.183550
 H    1.123241   -1.708268    1.229119
 H   -1.061350    0.314350   -2.111919
 H    3.265545    1.981075   -1.381601
 H   -3.326895   -0.606703    2.250934
 H    3.594571   -1.521656    1.125136
 H   -3.533566    0.148772   -1.997313
 H    4.669089    0.312723   -0.174872
 H   -4.669321   -0.311595    0.172404
}
set optking { 
  frozen_dihedral = ("
    3 1 2 4
    3 1 2 6
    5 1 2 4
    5 1 2 6
  ")
}
set {
  geom_maxiter 400
  g_convergence GAU_LOOSE
  dynamic_level 1
}
memory 700MB
set_num_threads(3)
psi4_io.set_default_path("/home/daniele/PSI4_sctatch/Psi4-biphenyl")
for _ in range(1):
  try:
    set opt_coordinates both
    optimize('wb97x-d/6-311G')
    break
  except OptimizationConvergenceError:
    break
  else:
    try:
      set opt_coordinates cartesian
      optimize('wb97x-d/6-311G')
      break
    except OptimizationConvergenceError:
      pass
clean()
--------------------------------------------------------------------------

  Memory set to 667.572 MiB by Python driver.
  Threads set to 3 by Python driver.
gradient() will perform analytic gradient computation.

*** tstart() called on daniele-Precision-5750
*** at Mon May 31 17:05:43 2021

   => Loading Basis Set <=

    Name: 6-311G
    Role: ORBITAL
    Keyword: BASIS
    atoms 1-12  entry C          line    92 file /home/daniele/anaconda3/envs/poltype/share/psi4/basis/6-311g.gbs 
    atoms 13-22 entry H          line    21 file /home/daniele/anaconda3/envs/poltype/share/psi4/basis/6-311g.gbs 


         ---------------------------------------------------------
                                   SCF
               by Justin Turney, Rob Parrish, Andy Simmonett
                          and Daniel G. A. Smith
                              RKS Reference
                        3 Threads,    667 MiB Core
         ---------------------------------------------------------

  ==> Geometry <==

    Molecular point group: c1
    Full point group: C1

    Geometry (in Angstrom), charge = 0, multiplicity = 1:

       Center              X                  Y                   Z               Mass       
    ------------   -----------------  -----------------  -----------------  -----------------
         C            0.745151657756     0.049602785892    -0.027188331596    12.000000000000
         C           -0.745078342244    -0.050088214108     0.028183668404    12.000000000000
         C            1.385753657756     1.094534785892    -0.769044331596    12.000000000000
         C           -1.420261342244    -0.315681214108     1.263581668404    12.000000000000
         C            1.572795657756    -0.896726214108     0.659895668404    12.000000000000
         C           -1.538205342244     0.117294785892    -1.153144331596    12.000000000000
         C            2.790656657756     1.181090785892    -0.815845331596    12.000000000000
         C           -2.825072342244    -0.407039214108     1.305861668404    12.000000000000
         C            2.976304657756    -0.795106214108     0.601043668404    12.000000000000
         C           -2.941962342244     0.021547785892    -1.092071331596    12.000000000000
         C            3.583720657756     0.239895785892    -0.133764331596    12.000000000000
         C           -3.583789342244    -0.239411214108     0.132662668404    12.000000000000
         H            0.790765657756     1.836163785892    -1.299208331596     1.007825032230
         H           -0.852626342244    -0.442929214108     2.183742668404     1.007825032230
         H            1.123288657756    -1.708382214108     1.229311668404     1.007825032230
         H           -1.061302342244     0.314235785892    -2.111726331596     1.007825032230
         H            3.265592657756     1.980960785892    -1.381408331596     1.007825032230
         H           -3.326847342244    -0.606817214108     2.251126668404     1.007825032230
         H            3.594618657756    -1.521770214108     1.125328668404     1.007825032230
         H           -3.533518342244     0.148657785892    -1.997120331596     1.007825032230
         H            4.669136657756     0.312608785892    -0.174679331596     1.007825032230
         H           -4.669273342244    -0.311709214108     0.172596668404     1.007825032230

  Running in c1 symmetry.

  Rotational constants: A =      0.09268  B =      0.01771  C =      0.01558 [cm^-1]
  Rotational constants: A =   2778.38559  B =    530.92392  C =    466.93992 [MHz]
  Nuclear repulsion =  591.860552324959485

  Charge       = 0
  Multiplicity = 1
  Electrons    = 82
  Nalpha       = 41
  Nbeta        = 41

  ==> Algorithm <==

  SCF Algorithm Type is DF.
  DIIS enabled.
  MOM disabled.
  Fractional occupation disabled.
  Guess Type is SAD.
  Energy threshold   = 1.00e-08
  Density threshold  = 1.00e-08
  Integral threshold = 0.00e+00

  ==> Primary Basis <==

  Basis Set: 6-311G
    Blend: 6-311G
    Number of shells: 114
    Number of basis function: 186
    Number of Cartesian functions: 186
    Spherical Harmonics?: true
    Max angular momentum: 1

  ==> DFT Potential <==

   => Composite Functional: WB97X-D <= 

    wB97X-D Hyb-GGA Exchange-Correlation Functional

    J.-D. Chai and M. Head-Gordon, Phys. Chem. Chem. Phys. 10, 6615 (2008)

    Deriv               =              1
    GGA                 =           TRUE
    Meta                =          FALSE

    Exchange Hybrid     =           TRUE
    MP2 Hybrid          =          FALSE

   => Exchange-Correlation Functionals <=

    1.0000   wB97D range-separated functional

   => Exact (HF) Exchange <=

    0.7780            HF,LR [omega = 0.2000]
    0.2220               HF 

   => Molecular Quadrature <=

    Radial Scheme          =       TREUTLER
    Pruning Scheme         =           FLAT
    Nuclear Scheme         =       TREUTLER

    BS radius alpha        =              1
    Pruning alpha          =              1
    Radial Points          =             75
    Spherical Points       =            302
    Total Points           =         491414
    Total Blocks           =           3629
    Max Points             =            256
    Max Functions          =            153

   => WB97X-D: Empirical Dispersion <=

    Chai and Head-Gordon Dispersion Correction
    Chai, J.-D.; Head-Gordon, M. (2010), J. Chem. Phys., 132: 6615-6620

        s6 =       1.000000

   => Loading Basis Set <=

    Name: (6-311G AUX)
    Role: JKFIT
    Keyword: DF_BASIS_SCF
    atoms 1-12  entry C          line   125 file /home/daniele/anaconda3/envs/poltype/share/psi4/basis/cc-pvtz-jkfit.gbs 
    atoms 13-22 entry H          line    51 file /home/daniele/anaconda3/envs/poltype/share/psi4/basis/cc-pvtz-jkfit.gbs 

  ==> Pre-Iterations <==

   -------------------------------------------------------
    Irrep   Nso     Nmo     Nalpha   Nbeta   Ndocc  Nsocc
   -------------------------------------------------------
     A        186     186       0       0       0       0
   -------------------------------------------------------
    Total     186     186      41      41      41       0
   -------------------------------------------------------

  ==> Integral Setup <==

  ==> DiskDFJK: Density-Fitted J/K Matrices <==

    J tasked:                  Yes
    K tasked:                  Yes
    wK tasked:                 Yes
    Omega:               2.000E-01
    OpenMP threads:              3
    Integrals threads:           3
    Memory [MiB]:              172
    Algorithm:                Disk
    Integral Cache:           NONE
    Schwarz Cutoff:          1E-12
    Fitting Condition:       1E-10

   => Auxiliary Basis Set <=

  Basis Set: (6-311G AUX)
    Blend: CC-PVTZ-JKFIT
    Number of shells: 400
    Number of basis function: 1248
    Number of Cartesian functions: 1502
    Spherical Harmonics?: true
    Max angular momentum: 4

  Cached 25.0% of DFT collocation blocks in 0.384 [GiB].

  Minimum eigenvalue in the overlap matrix is 2.7386142088E-04.
  Using Symmetric Orthogonalization.

  SCF Guess: Superposition of Atomic Densities via on-the-fly atomic UHF.

  ==> Iterations <==

                           Total Energy        Delta E     RMS |[F,P]|

   @DF-RKS iter SAD:  -462.20524536124452   -4.62205e+02   0.00000e+00 
   @DF-RKS iter   1:  -462.81916139321896   -6.13916e-01   3.93635e-03 DIIS
   @DF-RKS iter   2:  -463.01704382507768   -1.97882e-01   2.42334e-03 DIIS
   @DF-RKS iter   3:  -463.12319947504454   -1.06156e-01   2.42104e-04 DIIS
   @DF-RKS iter   4:  -463.12371011521157   -5.10640e-04   2.04391e-04 DIIS
   @DF-RKS iter   5:  -463.12452171783104   -8.11603e-04   1.66254e-05 DIIS
   @DF-RKS iter   6:  -463.12452904141406   -7.32358e-06   3.89056e-06 DIIS
   @DF-RKS iter   7:  -463.12452932497104   -2.83557e-07   1.79117e-06 DIIS
   @DF-RKS iter   8:  -463.12452939610876   -7.11377e-08   2.07096e-07 DIIS
   @DF-RKS iter   9:  -463.12452939973639   -3.62763e-09   9.50946e-08 DIIS
   @DF-RKS iter  10:  -463.12452939999861   -2.62219e-10   3.35994e-08 DIIS
   @DF-RKS iter  11:  -463.12452940004277   -4.41673e-11   2.96826e-09 DIIS
  Energy and wave function converged.


  ==> Post-Iterations <==

    Orbital Energies [Eh]
    ---------------------

    Doubly Occupied:                                                      

       1A    -10.316298     2A    -10.316029     3A    -10.300450  
       4A    -10.300448     5A    -10.300423     6A    -10.300422  
       7A    -10.298863     8A    -10.298860     9A    -10.298777  
      10A    -10.298777    11A    -10.297177    12A    -10.297176  
      13A     -0.970604    14A     -0.950069    15A     -0.880038  
      16A     -0.853712    17A     -0.847459    18A     -0.822089  
      19A     -0.725112    20A     -0.715028    21A     -0.690933  
      22A     -0.675558    23A     -0.626345    24A     -0.594307  
      25A     -0.565343    26A     -0.555315    27A     -0.536183  
      28A     -0.529051    29A     -0.517107    30A     -0.510812  
      31A     -0.510581    32A     -0.465493    33A     -0.453742  
      34A     -0.448485    35A     -0.438099    36A     -0.422936  
      37A     -0.422751    38A     -0.353889    39A     -0.333121  
      40A     -0.332104    41A     -0.301539  

    Virtual:                                                              

      42A      0.030548    43A      0.057498    44A      0.057999  
      45A      0.087632    46A      0.124804    47A      0.131304  
      48A      0.147637    49A      0.163115    50A      0.165245  
      51A      0.184638    52A      0.190354    53A      0.204517  
      54A      0.208190    55A      0.224434    56A      0.231487  
      57A      0.233980    58A      0.299356    59A      0.315698  
      60A      0.340695    61A      0.346935    62A      0.357218  
      63A      0.361175    64A      0.366074    65A      0.377485  
      66A      0.388273    67A      0.407067    68A      0.433871  
      69A      0.452525    70A      0.458112    71A      0.473393  
      72A      0.477793    73A      0.481961    74A      0.487249  
      75A      0.491414    76A      0.504904    77A      0.509190  
      78A      0.510959    79A      0.518710    80A      0.523577  
      81A      0.527441    82A      0.549921    83A      0.554896  
      84A      0.557979    85A      0.569695    86A      0.579918  
      87A      0.601615    88A      0.611009    89A      0.634406  
      90A      0.637933    91A      0.659312    92A      0.665675  
      93A      0.676592    94A      0.677826    95A      0.688743  
      96A      0.695413    97A      0.695545    98A      0.703564  
      99A      0.715790   100A      0.727541   101A      0.732343  
     102A      0.739947   103A      0.744397   104A      0.755856  
     105A      0.800422   106A      0.831209   107A      0.851615  
     108A      0.851996   109A      0.855292   110A      0.863806  
     111A      0.877502   112A      0.879545   113A      0.914209  
     114A      0.915129   115A      0.926747   116A      0.954486  
     117A      0.955943   118A      0.974408   119A      0.991259  
     120A      1.002868   121A      1.024809   122A      1.100705  
     123A      1.107313   124A      1.144665   125A      1.146354  
     126A      1.168690   127A      1.348218   128A      1.373887  
     129A      2.284329   130A      2.312870   131A      2.345216  
     132A      2.347488   133A      2.408306   134A      2.408971  
     135A      2.431780   136A      2.452827   137A      2.588553  
     138A      2.625020   139A      2.628766   140A      2.632072  
     141A      2.666822   142A      2.667587   143A      2.670648  
     144A      2.712619   145A      2.781943   146A      2.783952  
     147A      2.820699   148A      2.823089   149A      2.834246  
     150A      2.844477   151A      2.852953   152A      2.880018  
     153A      2.936548   154A      2.942577   155A      2.945597  
     156A      2.987482   157A      3.007639   158A      3.009951  
     159A      3.089397   160A      3.147280   161A      3.191817  
     162A      3.216213   163A      3.227539   164A      3.231994  
     165A      3.233468   166A      3.282946   167A      3.293121  
     168A      3.327724   169A      3.347532   170A      3.352313  
     171A      3.364338   172A      3.387432   173A      3.469939  
     174A      3.600192   175A     23.225254   176A     23.312515  
     177A     23.466063   178A     23.469023   179A     23.484813  
     180A     23.523294   181A     23.697032   182A     23.734804  
     183A     23.736538   184A     23.755318   185A     23.972044  
     186A     23.977777  

    Final Occupation by Irrep:
              A 
    DOCC [    41 ]

  @DF-RKS Final Energy:  -463.12452940004277

   => Energetics <=

    Nuclear Repulsion Energy =            591.8605523249594853
    One-Electron Energy =               -1796.6528261718174235
    Two-Electron Energy =                 788.7832886360258726
    DFT Exchange-Correlation Energy =     -47.1035567922627578
    Empirical Dispersion Energy =          -0.0119873969480670
    VV10 Nonlocal Energy =                  0.0000000000000000
    Total Energy =                       -463.1245294000427748

Computation Completed


Properties will be evaluated at   0.000000,   0.000000,   0.000000 [a0]

Properties computed using the SCF density matrix

  Nuclear Dipole Moment: [e a0]
     X:    -0.0002      Y:     0.0010      Z:    -0.0019

  Electronic Dipole Moment: [e a0]
     X:     0.0001      Y:    -0.0009      Z:     0.0017

  Dipole Moment: [e a0]
     X:    -0.0000      Y:     0.0001      Z:    -0.0002     Total:     0.0002

  Dipole Moment: [D]
     X:    -0.0000      Y:     0.0002      Z:    -0.0005     Total:     0.0006


*** tstop() called on daniele-Precision-5750 at Mon May 31 17:06:12 2021
Module time:
	user time   =      79.72 seconds =       1.33 minutes
	system time =       3.39 seconds =       0.06 minutes
	total time  =         29 seconds =       0.48 minutes
Total time:
	user time   =      79.72 seconds =       1.33 minutes
	system time =       3.39 seconds =       0.06 minutes
	total time  =         29 seconds =       0.48 minutes

*** tstart() called on daniele-Precision-5750
*** at Mon May 31 17:06:12 2021


         ------------------------------------------------------------
                                   SCF GRAD                          
                          Rob Parrish, Justin Turney,                
                       Andy Simmonett, and Alex Sokolov              
         ------------------------------------------------------------

  ==> Geometry <==

    Molecular point group: c1
    Full point group: C1

    Geometry (in Angstrom), charge = 0, multiplicity = 1:

       Center              X                  Y                   Z               Mass       
    ------------   -----------------  -----------------  -----------------  -----------------
         C            0.745151657756     0.049602785892    -0.027188331596    12.000000000000
         C           -0.745078342244    -0.050088214108     0.028183668404    12.000000000000
         C            1.385753657756     1.094534785892    -0.769044331596    12.000000000000
         C           -1.420261342244    -0.315681214108     1.263581668404    12.000000000000
         C            1.572795657756    -0.896726214108     0.659895668404    12.000000000000
         C           -1.538205342244     0.117294785892    -1.153144331596    12.000000000000
         C            2.790656657756     1.181090785892    -0.815845331596    12.000000000000
         C           -2.825072342244    -0.407039214108     1.305861668404    12.000000000000
         C            2.976304657756    -0.795106214108     0.601043668404    12.000000000000
         C           -2.941962342244     0.021547785892    -1.092071331596    12.000000000000
         C            3.583720657756     0.239895785892    -0.133764331596    12.000000000000
         C           -3.583789342244    -0.239411214108     0.132662668404    12.000000000000
         H            0.790765657756     1.836163785892    -1.299208331596     1.007825032230
         H           -0.852626342244    -0.442929214108     2.183742668404     1.007825032230
         H            1.123288657756    -1.708382214108     1.229311668404     1.007825032230
         H           -1.061302342244     0.314235785892    -2.111726331596     1.007825032230
         H            3.265592657756     1.980960785892    -1.381408331596     1.007825032230
         H           -3.326847342244    -0.606817214108     2.251126668404     1.007825032230
         H            3.594618657756    -1.521770214108     1.125328668404     1.007825032230
         H           -3.533518342244     0.148657785892    -1.997120331596     1.007825032230
         H            4.669136657756     0.312608785892    -0.174679331596     1.007825032230
         H           -4.669273342244    -0.311709214108     0.172596668404     1.007825032230

  Nuclear repulsion =  591.860552324959485

  ==> Basis Set <==

  Basis Set: 6-311G
    Blend: 6-311G
    Number of shells: 114
    Number of basis function: 186
    Number of Cartesian functions: 186
    Spherical Harmonics?: true
    Max angular momentum: 1

  ==> DFJKGrad: Density-Fitted SCF Gradients <==

    Gradient:                    1
    J tasked:                  Yes
    K tasked:                  Yes
    wK tasked:                 Yes
    Omega:               2.000E-01
    OpenMP threads:              3
    Integrals threads:           3
    Memory [MiB]:              500
    Schwarz Cutoff:          0E+00
    Fitting Condition:       1E-10

   => Auxiliary Basis Set <=

  Basis Set: (6-311G AUX)
    Blend: CC-PVTZ-JKFIT
    Number of shells: 400
    Number of basis function: 1248
    Number of Cartesian functions: 1502
    Spherical Harmonics?: true
    Max angular momentum: 4

  ==> DFT Potential <==

   => Composite Functional: WB97X-D <= 

    wB97X-D Hyb-GGA Exchange-Correlation Functional

    J.-D. Chai and M. Head-Gordon, Phys. Chem. Chem. Phys. 10, 6615 (2008)

    Deriv               =              1
    GGA                 =           TRUE
    Meta                =          FALSE

    Exchange Hybrid     =           TRUE
    MP2 Hybrid          =          FALSE

   => Exchange-Correlation Functionals <=

    1.0000   wB97D range-separated functional

   => Exact (HF) Exchange <=

    0.7780            HF,LR [omega = 0.2000]
    0.2220               HF 

   => Molecular Quadrature <=

    Radial Scheme          =       TREUTLER
    Pruning Scheme         =           FLAT
    Nuclear Scheme         =       TREUTLER

    BS radius alpha        =              1
    Pruning alpha          =              1
    Radial Points          =             75
    Spherical Points       =            302
    Total Points           =         491414
    Total Blocks           =           3629
    Max Points             =            256
    Max Functions          =            153


  -Total Gradient:
     Atom            X                  Y                   Z
    ------   -----------------  -----------------  -----------------
       1       -0.018014199487    -0.001235468282     0.000634187496
       2        0.018016330540     0.001242214364    -0.000652088507
       3       -0.002892042350     0.015520978122    -0.009366364822
       4        0.002305306967    -0.001735748990     0.018142494842
       5       -0.000115255082    -0.015709790793     0.009533592254
       6        0.000701180022     0.001887711406    -0.018238707180
       7        0.005911874554     0.007873014947    -0.004903469067
       8       -0.006203593795    -0.001443229651     0.009001610064
       9        0.007266173685    -0.007010318693     0.004415275030
      10       -0.006976624462     0.000569198404    -0.008491699178
      11        0.007079699991     0.000486018873    -0.000271229214
      12       -0.007076276310    -0.000472078846     0.000238851995
      13       -0.000452084484     0.003759916248    -0.003578710919
      14        0.000345593132    -0.001605786064     0.004947030011
      15        0.000333893321    -0.003766137703     0.003580991795
      16       -0.000226498133     0.001617285625    -0.004949973466
      17        0.002472060373     0.003292284023    -0.002493411116
      18       -0.002589920005    -0.000990168187     0.003935488530
      19        0.003083510359    -0.002923582507     0.002270099135
      20       -0.002965693468     0.000634210354    -0.003734903761
      21        0.004732046876     0.000323927671    -0.000183907271
      22       -0.004735403012    -0.000315166146     0.000166087608


*** tstop() called on daniele-Precision-5750 at Mon May 31 17:06:27 2021
Module time:
	user time   =      44.32 seconds =       0.74 minutes
	system time =       0.56 seconds =       0.01 minutes
	total time  =         15 seconds =       0.25 minutes
Total time:
	user time   =     124.04 seconds =       2.07 minutes
	system time =       3.95 seconds =       0.07 minutes
	total time  =         44 seconds =       0.73 minutes

			-----------------------------------------
			 OPTKING 2.0: for geometry optimizations 
			  - R.A. King,  Bethel University        
			-----------------------------------------
	At level 1: Red. Int., RFO, no backsteps, dynamic trust

	Internal coordinates to be generated automatically.
	Detected frag 1 with atoms:  1 2 3 4 5 6 7 8 9 10 11 12 13 14 15 16 17 18 19 20
	 21 22
	---Fragment 1 Bond Connectivity---
	 1 : 2 3 5
	 2 : 1 4 6
	 3 : 1 7 13
	 4 : 2 8 14
	 5 : 1 9 15
	 6 : 2 10 16
	 7 : 3 11 17
	 8 : 4 12 18
	 9 : 5 11 19
	 10 : 6 12 20
	 11 : 7 9 21
	 12 : 8 10 22
	 13 : 3
	 14 : 4
	 15 : 5
	 16 : 6
	 17 : 7
	 18 : 8
	 19 : 9
	 20 : 10
	 21 : 11
	 22 : 12

	Assuming in current code that numbering for constraints corresponds to unified fragment.
	Frozen dihedral atom list: 
	     3     1     2     4
	     3     1     2     6
	     5     1     2     4
	     5     1     2     6
	---Fragment 1 Geometry and Gradient---
	 C           1.4081325551        0.0937356804       -0.0513785005
	 C          -1.4079940089       -0.0946530068        0.0532594145
	 C           2.6186948905        2.0683709801       -1.4532831651
	 C          -2.6839049634       -0.5965510376        2.3878232904
	 C           2.9721530445       -1.6945669542        1.2470220847
	 C          -2.9067868216        0.2216550213       -2.1791269698
	 C           5.2735767933        2.2319381146       -1.5417242374
	 C          -5.3386130114       -0.7691926370        2.4677209110
	 C           5.6244006691       -1.5025329853        1.1358079227
	 C          -5.5595030983        0.0407194139       -2.0637157262
	 C           6.7722505533        0.4533373340       -0.2527779521
	 C          -6.7723803482       -0.4524216260        0.2506961104
	 H           1.4943305226        3.4698466768       -2.4551479266
	 H          -1.6112302742       -0.8370149076        4.1266755718
	 H           2.1227079230       -3.2283745023        2.3230623761
	 H          -2.0055707631        0.5938195742       -3.9905844186
	 H           6.1710757605        3.7434733506       -2.6104834141
	 H          -6.2868303380       -1.1467183429        4.2540128770
	 H           6.7928447886       -2.8757289305        2.1265629844
	 H          -6.6773819261        0.2809225018       -3.7740104663
	 H           8.8233895255        0.5907449897       -0.3300960965
	 H          -8.8236478217       -0.5890450454        0.3261604335
	            -0.0180141995       -0.0012354683        0.0006341875
	             0.0180163305        0.0012422144       -0.0006520885
	            -0.0028920423        0.0155209781       -0.0093663648
	             0.0023053070       -0.0017357490        0.0181424948
	            -0.0001152551       -0.0157097908        0.0095335923
	             0.0007011800        0.0018877114       -0.0182387072
	             0.0059118746        0.0078730149       -0.0049034691
	            -0.0062035938       -0.0014432297        0.0090016101
	             0.0072661737       -0.0070103187        0.0044152750
	            -0.0069766245        0.0005691984       -0.0084916992
	             0.0070797000        0.0004860189       -0.0002712292
	            -0.0070762763       -0.0004720788        0.0002388520
	            -0.0004520845        0.0037599162       -0.0035787109
	             0.0003455931       -0.0016057861        0.0049470300
	             0.0003338933       -0.0037661377        0.0035809918
	            -0.0002264981        0.0016172856       -0.0049499735
	             0.0024720604        0.0032922840       -0.0024934111
	            -0.0025899200       -0.0009901682        0.0039354885
	             0.0030835104       -0.0029235825        0.0022700991
	            -0.0029656935        0.0006342104       -0.0037349038
	             0.0047320469        0.0003239277       -0.0001839073
	            -0.0047354030       -0.0003151661        0.0001660876

	Previous optimization step data not found.  Starting new optimization.

	---Fragment 1 Intrafragment Coordinates---
	 - Coordinate -           - BOHR/RAD -       - ANG/DEG -
	 R(1,2)           =         2.824360	       1.494587
	 R(1,3)           =         2.707394	       1.432691
	 R(1,5)           =         2.707403	       1.432696
	 R(2,4)           =         2.707404	       1.432697
	 R(2,6)           =         2.707394	       1.432691
	 R(3,7)           =         2.661386	       1.408345
	 R(3,13)          =         2.057198	       1.088622
	 R(4,8)           =         2.661515	       1.408413
	 R(4,14)          =         2.057197	       1.088622
	 R(5,9)           =         2.661515	       1.408413
	 R(5,15)          =         2.057179	       1.088612
	 R(6,10)          =         2.661383	       1.408343
	 R(6,16)          =         2.057201	       1.088624
	 R(7,11)          =         2.659103	       1.407136
	 R(7,17)          =         2.057301	       1.088677
	 R(8,12)          =         2.659179	       1.407177
	 R(8,18)          =         2.057299	       1.088676
	 R(9,11)          =         2.659165	       1.407170
	 R(9,19)          =         2.057310	       1.088682
	 R(10,12)         =         2.659090	       1.407130
	 R(10,20)         =         2.057294	       1.088673
	 R(11,21)         =         2.057190	       1.088618
	 R(12,22)         =         2.057197	       1.088622
	 B(1,2,4)         =         2.110877	     120.944324
	 B(1,2,6)         =         2.110215	     120.906438
	 B(1,3,7)         =         2.103741	     120.535486
	 B(1,3,13)        =         2.099791	     120.309169
	 B(1,5,9)         =         2.103627	     120.528957
	 B(1,5,15)        =         2.099937	     120.317523
	 B(2,1,3)         =         2.110243	     120.907994
	 B(2,1,5)         =         2.110840	     120.942240
	 B(2,4,8)         =         2.103625	     120.528857
	 B(2,4,14)        =         2.099935	     120.317428
	 B(2,6,10)        =         2.103762	     120.536694
	 B(2,6,16)        =         2.099800	     120.309677
	 B(3,1,5)         =         2.062102	     118.149766
	 B(3,7,11)        =         2.100187	     120.331842
	 B(3,7,17)        =         2.091630	     119.841558
	 B(4,2,6)         =         2.062093	     118.149238
	 B(4,8,12)        =         2.100228	     120.334177
	 B(4,8,18)        =         2.091734	     119.847517
	 B(5,9,11)        =         2.100230	     120.334306
	 B(5,9,19)        =         2.091727	     119.847103
	 B(6,10,12)       =         2.100169	     120.330804
	 B(6,10,20)       =         2.091644	     119.842351
	 B(7,3,13)        =         2.079634	     119.154254
	 B(7,11,9)        =         2.096483	     120.119613
	 B(7,11,21)       =         2.093297	     119.937087
	 B(8,4,14)        =         2.079603	     119.152471
	 B(8,12,10)       =         2.096493	     120.120202
	 B(8,12,22)       =         2.093388	     119.942311
	 B(9,5,15)        =         2.079599	     119.152266
	 B(9,11,21)       =         2.093405	     119.943300
	 B(10,6,16)       =         2.079604	     119.152529
	 B(10,12,22)      =         2.093304	     119.937487
	 B(11,7,17)       =         2.091368	     119.826546
	 B(11,9,19)       =         2.091228	     119.818521
	 B(12,8,18)       =         2.091223	     119.818238
	 B(12,10,20)      =         2.091372	     119.826789
	 D(1,2,4,8)       =         3.140935	     179.962316
	 D(1,2,4,14)      =         0.006483	       0.371442
	 D(1,2,6,10)      =         3.141416	     179.989895
	 D(1,2,6,16)      =         0.006539	       0.374652
	 D(1,3,7,11)      =         0.000652	       0.037340
	 D(1,3,7,17)      =        -3.139461	    -179.877848
	 D(1,5,9,11)      =         0.001021	       0.058474
	 D(1,5,9,19)      =        -3.138892	    -179.845258
	 D(2,1,3,7)       =         3.141540	     179.996980
	 D(2,1,3,13)      =         0.006637	       0.380284
	 D(2,1,5,9)       =         3.140814	     179.955373
	 D(2,1,5,15)      =         0.006390	       0.366092
	 D(2,4,8,12)      =         0.001003	       0.057490
	 D(2,4,8,18)      =        -3.138933	    -179.847637
	 D(2,6,10,12)     =         0.000674	       0.038609
	 D(2,6,10,20)     =        -3.139413	    -179.875087
	*D(3,1,2,4)       =        -2.371603	    -135.882851
	*D(3,1,2,6)       =         0.770049	      44.120543
	 D(3,1,5,9)       =        -0.000816	      -0.046742
	 D(3,1,5,15)      =        -3.135240	    -179.636023
	 D(3,7,11,9)      =        -0.000461	      -0.026390
	 D(3,7,11,21)     =         3.141095	     179.971486
	*D(4,2,1,5)       =         0.769952	      44.114975
	 D(4,2,6,10)      =        -0.000119	      -0.006803
	 D(4,2,6,16)      =        -3.134996	    -179.622046
	 D(4,8,12,10)     =        -0.000442	      -0.025352
	 D(4,8,12,22)     =         3.141188	     179.976811
	*D(5,1,2,6)       =        -2.371582	    -135.881630
	 D(5,1,3,7)       =        -0.000016	      -0.000906
	 D(5,1,3,13)      =        -3.134919	    -179.617602
	 D(5,9,11,7)      =        -0.000376	      -0.021539
	 D(5,9,11,21)     =         3.141254	     179.980586
	 D(6,2,4,8)       =        -0.000715	      -0.040987
	 D(6,2,4,14)      =        -3.135167	    -179.631862
	 D(6,10,12,8)     =        -0.000397	      -0.022719
	 D(6,10,12,22)    =         3.141158	     179.975119
	 D(7,11,9,19)     =         3.139537	     179.882221
	 D(8,12,10,20)    =         3.139690	     179.890991
	 D(9,11,7,17)     =         3.139652	     179.888811
	 D(10,12,8,18)    =         3.139495	     179.879803
	 D(11,7,3,13)     =         3.135631	     179.658424
	 D(11,9,5,15)     =         3.135528	     179.652499
	 D(12,8,4,14)     =         3.135538	     179.653089
	 D(12,10,6,16)    =         3.135628	     179.658265
	 D(13,3,7,17)     =        -0.004481	      -0.256764
	 D(14,4,8,18)     =        -0.004399	      -0.252038
	 D(15,5,9,19)     =        -0.004385	      -0.251233
	 D(16,6,10,20)    =        -0.004458	      -0.255431
	 D(17,7,11,21)    =        -0.001978	      -0.113314
	 D(18,8,12,22)    =        -0.002060	      -0.118035
	 D(19,9,11,21)    =        -0.002019	      -0.115654
	 D(20,10,12,22)   =        -0.001940	      -0.111172

	Current energy   :      -463.1245294000

	Generating empirical Hessian (Schlegel '84) for each fragment.
	Taking RFO optimization step.
	Going to follow RFO solution 1.
	Using RFO vector 1.
	Norm of target step-size    0.18139
	Projected energy change by RFO approximation:        -0.0108141378

	Back-transformation to cartesian coordinates...
	Could not converge backtransformation.
	Using first guess instead.

	Back-transformation to cartesian coordinates to adjust frozen coordinates...
	Successfully converged to displaced geometry.

	--- Internal Coordinate Step in ANG or DEG, aJ/ANG or AJ/DEG ---
	 ---------------------------------------------------------------------------
	   Coordinate                Previous        Force       Change         New 
	   ----------                --------       ------       ------       ------
	    1 R(1,2)          =      1.494587    -0.077711    -0.014603     1.479983
	    2 R(1,3)          =      1.432691    -0.222423    -0.034682     1.398009
	    3 R(1,5)          =      1.432696    -0.222651    -0.034718     1.397978
	    4 R(2,4)          =      1.432697    -0.222652    -0.034718     1.397978
	    5 R(2,6)          =      1.432691    -0.222430    -0.034683     1.398008
	    6 R(3,7)          =      1.408345    -0.126005    -0.017752     1.390593
	    7 R(3,13)         =      1.088622    -0.037498    -0.006380     1.082242
	    8 R(4,8)          =      1.408413    -0.126413    -0.017812     1.390601
	    9 R(4,14)         =      1.088622    -0.037481    -0.006364     1.082258
	   10 R(5,9)          =      1.408413    -0.126407    -0.017811     1.390602
	   11 R(5,15)         =      1.088612    -0.037430    -0.006354     1.082258
	   12 R(6,10)         =      1.408343    -0.125987    -0.017749     1.390594
	   13 R(6,16)         =      1.088624    -0.037504    -0.006381     1.082243
	   14 R(7,11)         =      1.407136    -0.116133    -0.015807     1.391330
	   15 R(7,17)         =      1.088677    -0.039486    -0.006962     1.081716
	   16 R(8,12)         =      1.407177    -0.116436    -0.015850     1.391327
	   17 R(8,18)         =      1.088676    -0.039483    -0.006956     1.081720
	   18 R(9,11)         =      1.407170    -0.116394    -0.015844     1.391326
	   19 R(9,19)         =      1.088682    -0.039512    -0.006961     1.081720
	   20 R(10,12)        =      1.407130    -0.116094    -0.015801     1.391329
	   21 R(10,20)        =      1.088673    -0.039468    -0.006959     1.081715
	   22 R(11,21)        =      1.088618    -0.039107    -0.006938     1.081680
	   23 R(12,22)        =      1.088622    -0.039124    -0.006942     1.081680
	   24 B(1,2,4)        =    120.944324    -0.000105    -0.211571   120.732753
	   25 B(1,2,6)        =    120.906438    -0.000094    -0.181230   120.725208
	   26 B(1,3,7)        =    120.535486     0.000092     0.200210   120.735696
	   27 B(1,3,13)       =    120.309169    -0.000236    -0.935963   119.373205
	   28 B(1,5,9)        =    120.528957     0.000095     0.205815   120.734772
	   29 B(1,5,15)       =    120.317523    -0.000238    -0.941693   119.375830
	   30 B(2,1,3)        =    120.907994    -0.000095    -0.182089   120.725905
	   31 B(2,1,5)        =    120.942240    -0.000104    -0.210315   120.731926
	   32 B(2,4,8)        =    120.528857     0.000095     0.206005   120.734862
	   33 B(2,4,14)       =    120.317428    -0.000238    -0.941622   119.375807
	   34 B(2,6,10)       =    120.536694     0.000092     0.199178   120.735871
	   35 B(2,6,16)       =    120.309677    -0.000236    -0.936381   119.373296
	   36 B(3,1,5)        =    118.149766     0.000199     0.392404   118.542170
	   37 B(3,7,11)       =    120.331842    -0.000063    -0.087644   120.244198
	   38 B(3,7,17)       =    119.841558    -0.000001    -0.100510   119.741048
	   39 B(4,2,6)        =    118.149238     0.000199     0.392801   118.542039
	   40 B(4,8,12)       =    120.334177    -0.000063    -0.088686   120.245492
	   41 B(4,8,18)       =    119.847517    -0.000003    -0.105503   119.742014
	   42 B(5,9,11)       =    120.334306    -0.000063    -0.088774   120.245533
	   43 B(5,9,19)       =    119.847103    -0.000003    -0.105328   119.741775
	   44 B(6,10,12)      =    120.330804    -0.000063    -0.086766   120.244038
	   45 B(6,10,20)      =    119.842351    -0.000002    -0.101266   119.741084
	   46 B(7,3,13)       =    119.154254     0.000144     0.728679   119.882933
	   47 B(7,11,9)       =    120.119613    -0.000260    -0.622229   119.497384
	   48 B(7,11,21)      =    119.937087     0.000131     0.314117   120.251204
	   49 B(8,4,14)       =    119.152471     0.000143     0.728751   119.881222
	   50 B(8,12,10)      =    120.120202    -0.000260    -0.622752   119.497450
	   51 B(8,12,22)      =    119.942311     0.000129     0.308651   120.250962
	   52 B(9,5,15)       =    119.152266     0.000143     0.729028   119.881294
	   53 B(9,11,21)      =    119.943300     0.000129     0.308112   120.251412
	   54 B(10,6,16)      =    119.152529     0.000144     0.730144   119.882673
	   55 B(10,12,22)     =    119.937487     0.000131     0.314101   120.251587
	   56 B(11,7,17)      =    119.826546     0.000065     0.186199   120.012745
	   57 B(11,9,19)      =    119.818521     0.000066     0.192161   120.010682
	   58 B(12,8,18)      =    119.818238     0.000066     0.192245   120.010483
	   59 B(12,10,20)     =    119.826789     0.000065     0.186079   120.012869
	   60 D(1,2,4,8)      =    179.962316     0.000001     0.111441   180.073757
	   61 D(1,2,4,14)     =      0.371442     0.000006     0.739444     1.110885
	   62 D(1,2,6,10)     =    179.989895     0.000001     0.084569   180.074465
	   63 D(1,2,6,16)     =      0.374652     0.000006     0.740145     1.114798
	   64 D(1,3,7,11)     =      0.037340    -0.000002    -0.187373    -0.150033
	   65 D(1,3,7,17)     =   -179.877848     0.000002     0.243370  -179.634477
	   66 D(1,5,9,11)     =      0.058474    -0.000002    -0.205922    -0.147448
	   67 D(1,5,9,19)     =   -179.845258     0.000002     0.213495  -179.631763
	   68 D(2,1,3,7)      =    179.996980     0.000001     0.079971   180.076951
	   69 D(2,1,3,13)     =      0.380284     0.000006     0.737386     1.117670
	   70 D(2,1,5,9)      =    179.955373     0.000001     0.115921   180.071294
	   71 D(2,1,5,15)     =      0.366092     0.000006     0.742004     1.108095
	   72 D(2,4,8,12)     =      0.057490    -0.000002    -0.205147    -0.147657
	   73 D(2,4,8,18)     =   -179.847637     0.000002     0.215816  -179.631820
	   74 D(2,6,10,12)    =      0.038609    -0.000002    -0.188385    -0.149775
	   75 D(2,6,10,20)    =   -179.875087     0.000002     0.240804  -179.634283
	   76 *D(3,1,2,4)     =   -135.882851    -0.000000     0.000000  -135.882851
	   77 *D(3,1,2,6)     =     44.120543     0.000000    -0.000000    44.120543
	   78 D(3,1,5,9)      =     -0.046742     0.000001     0.115909     0.069167
	   79 D(3,1,5,15)     =   -179.636023     0.000006     0.741992  -178.894031
	   80 D(3,7,11,9)     =     -0.026390     0.000001     0.097670     0.071281
	   81 D(3,7,11,21)    =    179.971486     0.000001     0.100783   180.072269
	   82 *D(4,2,1,5)     =     44.114975     0.000000     0.000000    44.114975
	   83 D(4,2,6,10)     =     -0.006803     0.000001     0.084589     0.077786
	   84 D(4,2,6,16)     =   -179.622046     0.000006     0.740165  -178.881880
	   85 D(4,8,12,10)    =     -0.025352     0.000001     0.100705     0.075353
	   86 D(4,8,12,22)    =    179.976811     0.000001     0.096883   180.073693
	   87 *D(5,1,2,6)     =   -135.881630    -0.000000    -0.000000  -135.881630
	   88 D(5,1,3,7)      =     -0.000906     0.000001     0.079983     0.079077
	   89 D(5,1,3,13)     =   -179.617602     0.000006     0.737399  -178.880203
	   90 D(5,9,11,7)     =     -0.021539     0.000001     0.097739     0.076200
	   91 D(5,9,11,21)    =    179.980586     0.000001     0.094626   180.075212
	   92 D(6,2,4,8)      =     -0.040987     0.000001     0.111422     0.070435
	   93 D(6,2,4,14)     =   -179.631862     0.000006     0.739425  -178.892436
	   94 D(6,10,12,8)    =     -0.022719     0.000001     0.094822     0.072103
	   95 D(6,10,12,22)   =    179.975119     0.000001     0.098644   180.073763
	   96 D(7,11,9,19)    =    179.882221    -0.000003    -0.323098   179.559123
	   97 D(8,12,10,20)   =    179.890991    -0.000003    -0.335787   179.555204
	   98 D(9,11,7,17)    =    179.888811    -0.000003    -0.334493   179.554318
	   99 D(10,12,8,18)   =    179.879803    -0.000003    -0.321677   179.558126
	  100 D(11,7,3,13)    =    179.658424    -0.000007    -0.854456   178.803968
	  101 D(11,9,5,15)    =    179.652499    -0.000007    -0.841964   178.810535
	  102 D(12,8,4,14)    =    179.653089    -0.000007    -0.843092   178.809997
	  103 D(12,10,6,16)   =    179.658265    -0.000007    -0.853648   178.804617
	  104 D(13,3,7,17)    =     -0.256764    -0.000004    -0.423712    -0.680476
	  105 D(14,4,8,18)    =     -0.252038    -0.000004    -0.422128    -0.674166
	  106 D(15,5,9,19)    =     -0.251233    -0.000004    -0.422547    -0.673780
	  107 D(16,6,10,20)   =     -0.255431    -0.000004    -0.424459    -0.679891
	  108 D(17,7,11,21)   =     -0.113314    -0.000003    -0.331380    -0.444693
	  109 D(18,8,12,22)   =     -0.118035    -0.000003    -0.325499    -0.443534
	  110 D(19,9,11,21)   =     -0.115654    -0.000003    -0.326211    -0.441865
	  111 D(20,10,12,22)  =     -0.111172    -0.000003    -0.331965    -0.443136
	 ---------------------------------------------------------------------------
	Successfully symmetrized geometry.

  ==> Convergence Check <==

  Measures of convergence in internal coordinates in au.
  Criteria marked as inactive (o), active & met (*), and active & unmet ( ).
  --------------------------------------------------------------------------------------------- ~
   Step     Total Energy     Delta E     MAX Force     RMS Force      MAX Disp      RMS Disp    ~
  --------------------------------------------------------------------------------------------- ~
    Convergence Criteria             o    2.50e-03 *    1.70e-03 *    1.00e-02 *    6.70e-03 *  ~
  --------------------------------------------------------------------------------------------- ~
      1    -463.12452940   -4.63e+02 o    2.70e-02      6.77e-03      6.56e-02      1.72e-02    ~
  ---------------------------------------------------------------------------------------------

	Writing optimization data to binary file.
	Structure for next step:
	Cartesian Geometry (in Angstrom)
	    C     0.7378344574   0.0493648201  -0.0274045290
	    C    -0.7378354420  -0.0493405923   0.0274286315
	    C     1.3589588502   1.0705856405  -0.7524852254
	    C    -1.3921098308  -0.3086622234   1.2353280302
	    C     1.5412223632  -0.8764628117   0.6447214432
	    C    -1.5080854606   0.1146479029  -1.1276683687
	    C     2.7454936828   1.1625871877  -0.8054497332
	    C    -2.7785637820  -0.4029265977   1.2866251813
	    C     2.9277630302  -0.7829086253   0.5944491891
	    C    -2.8947300544   0.0234755355  -1.0761242960
	    C     3.5355256148   0.2365815340  -0.1315342671
	    C    -3.5355488413  -0.2364458594   0.1311821835
	    H     0.7499274518   1.8053074064  -1.2628893495
	    H    -0.8102313414  -0.4200109323   2.1410334396
	    H     1.0748445811  -1.6830839763   1.1952999123
	    H    -1.0145391269   0.2977920486  -2.0732477346
	    H     3.2091532678   1.9628241949  -1.3664746725
	    H    -3.2685870906  -0.5982110557   2.2310082797
	    H     3.5340279865  -1.5115288778   1.1156725741
	    H    -3.4746412536   0.1471933206  -1.9808360052
	    H     4.6140489076   0.3087264232  -0.1716990429
	    H    -4.6140794990  -0.3085711729   0.1711990645
			--------------------------
			 OPTKING Finished Execution 
			--------------------------

    Structure for next step:
    Molecular point group: c1
    Full point group: C1

    Geometry (in Angstrom), charge = 0, multiplicity = 1:

    C            0.737840831502     0.049323336663    -0.027325855017
    C           -0.737829073668    -0.049382076153     0.027507305755
    C            1.358965226740     1.070544161001    -0.752406554299
    C           -1.392103465080    -0.308703708250     1.235406709180
    C            1.541228740421    -0.876504298826     0.644800119816
    C           -1.508079095323     0.114606419647    -1.127589699064
    C            2.745500064764     1.162545708574    -0.805371062233
    C           -2.778557421756    -0.402968082956     1.286703860419
    C            2.927769412951    -0.782950112095     0.594527865494
    C           -2.894723694612     0.023434051955    -1.076045626171
    C            3.535531999855     0.236540051258    -0.131455593527
    C           -3.535542483967    -0.236487344028     0.131260858161
    H            0.749933825917     1.805265929803    -1.262810680336
    H           -0.810224973383    -0.420052417605     2.141112122094
    H            1.074850956549    -1.683125466585     1.195378591105
    H           -1.014532759718     0.297750566138    -2.073169068669
    H            3.209159651582     1.962782718988    -1.366396003792
    H           -3.268580732285    -0.598252541702     2.231086962591
    H            3.534034371637    -1.511570367427     1.115751252585
    H           -3.474634896098     0.147151837554    -1.980757338927
    H            4.614055296943     0.308684940708    -0.171620369440
    H           -4.614073145984    -0.308612657739     0.171277739298

gradient() will perform analytic gradient computation.

*** tstart() called on daniele-Precision-5750
*** at Mon May 31 17:06:27 2021

   => Loading Basis Set <=

    Name: 6-311G
    Role: ORBITAL
    Keyword: BASIS
    atoms 1-12  entry C          line    92 file /home/daniele/anaconda3/envs/poltype/share/psi4/basis/6-311g.gbs 
    atoms 13-22 entry H          line    21 file /home/daniele/anaconda3/envs/poltype/share/psi4/basis/6-311g.gbs 


         ---------------------------------------------------------
                                   SCF
               by Justin Turney, Rob Parrish, Andy Simmonett
                          and Daniel G. A. Smith
                              RKS Reference
                        3 Threads,    667 MiB Core
         ---------------------------------------------------------

  ==> Geometry <==

    Molecular point group: c1
    Full point group: C1

    Geometry (in Angstrom), charge = 0, multiplicity = 1:

       Center              X                  Y                   Z               Mass       
    ------------   -----------------  -----------------  -----------------  -----------------
         C            0.737840831502     0.049323336663    -0.027325855017    12.000000000000
         C           -0.737829073668    -0.049382076153     0.027507305755    12.000000000000
         C            1.358965226740     1.070544161001    -0.752406554299    12.000000000000
         C           -1.392103465080    -0.308703708250     1.235406709180    12.000000000000
         C            1.541228740421    -0.876504298826     0.644800119816    12.000000000000
         C           -1.508079095323     0.114606419647    -1.127589699064    12.000000000000
         C            2.745500064764     1.162545708574    -0.805371062233    12.000000000000
         C           -2.778557421756    -0.402968082956     1.286703860419    12.000000000000
         C            2.927769412951    -0.782950112095     0.594527865494    12.000000000000
         C           -2.894723694612     0.023434051955    -1.076045626171    12.000000000000
         C            3.535531999855     0.236540051258    -0.131455593527    12.000000000000
         C           -3.535542483967    -0.236487344028     0.131260858161    12.000000000000
         H            0.749933825917     1.805265929803    -1.262810680336     1.007825032230
         H           -0.810224973383    -0.420052417605     2.141112122094     1.007825032230
         H            1.074850956549    -1.683125466585     1.195378591105     1.007825032230
         H           -1.014532759718     0.297750566138    -2.073169068669     1.007825032230
         H            3.209159651582     1.962782718988    -1.366396003792     1.007825032230
         H           -3.268580732285    -0.598252541702     2.231086962591     1.007825032230
         H            3.534034371637    -1.511570367427     1.115751252585     1.007825032230
         H           -3.474634896098     0.147151837554    -1.980757338927     1.007825032230
         H            4.614055296943     0.308684940708    -0.171620369440     1.007825032230
         H           -4.614073145984    -0.308612657739     0.171277739298     1.007825032230

  Running in c1 symmetry.

  Rotational constants: A =      0.09600  B =      0.01828  C =      0.01608 [cm^-1]
  Rotational constants: A =   2878.12351  B =    547.89886  C =    482.09253 [MHz]
  Nuclear repulsion =  601.138257723452512

  Charge       = 0
  Multiplicity = 1
  Electrons    = 82
  Nalpha       = 41
  Nbeta        = 41

  ==> Algorithm <==

  SCF Algorithm Type is DF.
  DIIS enabled.
  MOM disabled.
  Fractional occupation disabled.
  Guess Type is READ.
  Energy threshold   = 1.00e-08
  Density threshold  = 1.00e-08
  Integral threshold = 0.00e+00

  ==> Primary Basis <==

  Basis Set: 6-311G
    Blend: 6-311G
    Number of shells: 114
    Number of basis function: 186
    Number of Cartesian functions: 186
    Spherical Harmonics?: true
    Max angular momentum: 1

  ==> DFT Potential <==

   => Composite Functional: WB97X-D <= 

    wB97X-D Hyb-GGA Exchange-Correlation Functional

    J.-D. Chai and M. Head-Gordon, Phys. Chem. Chem. Phys. 10, 6615 (2008)

    Deriv               =              1
    GGA                 =           TRUE
    Meta                =          FALSE

    Exchange Hybrid     =           TRUE
    MP2 Hybrid          =          FALSE

   => Exchange-Correlation Functionals <=

    1.0000   wB97D range-separated functional

   => Exact (HF) Exchange <=

    0.7780            HF,LR [omega = 0.2000]
    0.2220               HF 

   => Molecular Quadrature <=

    Radial Scheme          =       TREUTLER
    Pruning Scheme         =           FLAT
    Nuclear Scheme         =       TREUTLER

    BS radius alpha        =              1
    Pruning alpha          =              1
    Radial Points          =             75
    Spherical Points       =            302
    Total Points           =         491394
    Total Blocks           =           3624
    Max Points             =            256
    Max Functions          =            156

   => WB97X-D: Empirical Dispersion <=

    Chai and Head-Gordon Dispersion Correction
    Chai, J.-D.; Head-Gordon, M. (2010), J. Chem. Phys., 132: 6615-6620

        s6 =       1.000000

   => Loading Basis Set <=

    Name: (6-311G AUX)
    Role: JKFIT
    Keyword: DF_BASIS_SCF
    atoms 1-12  entry C          line   125 file /home/daniele/anaconda3/envs/poltype/share/psi4/basis/cc-pvtz-jkfit.gbs 
    atoms 13-22 entry H          line    51 file /home/daniele/anaconda3/envs/poltype/share/psi4/basis/cc-pvtz-jkfit.gbs 

   => Loading Basis Set <=

    Name: 6-311G
    Role: ORBITAL
    Keyword: BASIS
    atoms 1-12  entry C          line    92 file /home/daniele/anaconda3/envs/poltype/share/psi4/basis/6-311g.gbs 
    atoms 13-22 entry H          line    21 file /home/daniele/anaconda3/envs/poltype/share/psi4/basis/6-311g.gbs 

  Reading orbitals from file 180, no projection.

  ==> Pre-Iterations <==

   -------------------------------------------------------
    Irrep   Nso     Nmo     Nalpha   Nbeta   Ndocc  Nsocc
   -------------------------------------------------------
     A        186     186       0       0       0       0
   -------------------------------------------------------
    Total     186     186      41      41      41       0
   -------------------------------------------------------

  ==> Integral Setup <==

  ==> DiskDFJK: Density-Fitted J/K Matrices <==

    J tasked:                  Yes
    K tasked:                  Yes
    wK tasked:                 Yes
    Omega:               2.000E-01
    OpenMP threads:              3
    Integrals threads:           3
    Memory [MiB]:              173
    Algorithm:                Disk
    Integral Cache:           NONE
    Schwarz Cutoff:          1E-12
    Fitting Condition:       1E-10

   => Auxiliary Basis Set <=

  Basis Set: (6-311G AUX)
    Blend: CC-PVTZ-JKFIT
    Number of shells: 400
    Number of basis function: 1248
    Number of Cartesian functions: 1502
    Spherical Harmonics?: true
    Max angular momentum: 4

  Cached 25.0% of DFT collocation blocks in 0.389 [GiB].

  Minimum eigenvalue in the overlap matrix is 2.3284637788E-04.
  Using Symmetric Orthogonalization.

  SCF Guess: Orbitals guess was supplied from a previous computation.

  ==> Iterations <==

                           Total Energy        Delta E     RMS |[F,P]|

   @DF-RKS iter   0:  -463.29327365051927   -4.63293e+02   8.28077e-04 
   @DF-RKS iter   1:  -463.12939347570472    1.63880e-01   1.77974e-04 DIIS
   @DF-RKS iter   2:  -463.12954850626744   -1.55031e-04   1.74939e-04 DIIS
   @DF-RKS iter   3:  -463.13013271536329   -5.84209e-04   3.09241e-05 DIIS
   @DF-RKS iter   4:  -463.13014905334376   -1.63380e-05   7.12882e-06 DIIS
   @DF-RKS iter   5:  -463.13015009814558   -1.04480e-06   8.34617e-07 DIIS
   @DF-RKS iter   6:  -463.13015012845625   -3.03107e-08   3.05227e-07 DIIS
   @DF-RKS iter   7:  -463.13015013067604   -2.21979e-09   1.21545e-07 DIIS
   @DF-RKS iter   8:  -463.13015013116149   -4.85443e-10   1.67191e-08 DIIS
   @DF-RKS iter   9:  -463.13015013118138   -1.98952e-11   7.89701e-09 DIIS
  Energy and wave function converged.


  ==> Post-Iterations <==

    Orbital Energies [Eh]
    ---------------------

    Doubly Occupied:                                                      

       1A    -10.304916     2A    -10.304620     3A    -10.293143  
       4A    -10.293139     5A    -10.293035     6A    -10.293034  
       7A    -10.292035     8A    -10.292034     9A    -10.291997  
      10A    -10.291997    11A    -10.291704    12A    -10.291704  
      13A     -0.982832    14A     -0.960438    15A     -0.887204  
      16A     -0.858510    17A     -0.851215    18A     -0.828814  
      19A     -0.726755    20A     -0.720820    21A     -0.693762  
      22A     -0.678820    23A     -0.633570    24A     -0.597966  
      25A     -0.562141    26A     -0.561494    27A     -0.535575  
      28A     -0.534688    29A     -0.518520    30A     -0.514793  
      31A     -0.511993    32A     -0.472042    33A     -0.455150  
      34A     -0.454719    35A     -0.437655    36A     -0.422286  
      37A     -0.421894    38A     -0.357612    39A     -0.335073  
      40A     -0.333847    41A     -0.305458  

    Virtual:                                                              

      42A      0.037494    43A      0.061960    44A      0.062379  
      45A      0.094208    46A      0.126049    47A      0.132943  
      48A      0.149068    49A      0.165195    50A      0.166898  
      51A      0.187035    52A      0.194341    53A      0.207378  
      54A      0.213631    55A      0.226853    56A      0.238847  
      57A      0.246527    58A      0.311696    59A      0.329125  
      60A      0.347094    61A      0.359844    62A      0.364212  
      63A      0.369824    64A      0.371106    65A      0.387631  
      66A      0.392707    67A      0.412200    68A      0.440247  
      69A      0.453730    70A      0.471258    71A      0.476729  
      72A      0.483744    73A      0.484310    74A      0.494012  
      75A      0.496353    76A      0.512660    77A      0.515994  
      78A      0.517153    79A      0.521224    80A      0.527616  
      81A      0.534108    82A      0.550682    83A      0.557053  
      84A      0.560522    85A      0.579382    86A      0.582032  
      87A      0.613702    88A      0.615070    89A      0.644411  
      90A      0.651553    91A      0.669651    92A      0.677022  
      93A      0.684413    94A      0.685247    95A      0.695252  
      96A      0.699026    97A      0.701233    98A      0.710101  
      99A      0.723323   100A      0.724326   101A      0.739014  
     102A      0.746366   103A      0.751593   104A      0.756813  
     105A      0.800496   106A      0.843617   107A      0.856800  
     108A      0.863553   109A      0.872621   110A      0.874291  
     111A      0.893306   112A      0.896651   113A      0.915638  
     114A      0.921717   115A      0.942393   116A      0.967330  
     117A      0.976746   118A      0.995568   119A      1.006788  
     120A      1.013865   121A      1.036229   122A      1.107653  
     123A      1.113223   124A      1.147013   125A      1.157790  
     126A      1.178518   127A      1.350196   128A      1.383891  
     129A      2.287390   130A      2.323377   131A      2.358341  
     132A      2.362346   133A      2.417348   134A      2.419020  
     135A      2.441803   136A      2.467549   137A      2.598149  
     138A      2.638623   139A      2.639606   140A      2.641192  
     141A      2.673171   142A      2.676282   143A      2.676619  
     144A      2.718975   145A      2.761103   146A      2.763493  
     147A      2.794409   148A      2.813120   149A      2.832707  
     150A      2.847861   151A      2.854615   152A      2.880885  
     153A      2.930291   154A      2.935517   155A      2.937322  
     156A      2.988339   157A      3.012061   158A      3.013773  
     159A      3.088194   160A      3.177793   161A      3.213474  
     162A      3.215672   163A      3.241531   164A      3.269125  
     165A      3.278699   166A      3.309653   167A      3.315199  
     168A      3.361014   169A      3.376167   170A      3.388558  
     171A      3.401885   172A      3.422154   173A      3.485125  
     174A      3.624568   175A     23.226181   176A     23.308332  
     177A     23.472806   178A     23.474826   179A     23.496440  
     180A     23.529329   181A     23.723830   182A     23.757646  
     183A     23.767881   184A     23.778541   185A     24.018526  
     186A     24.025752  

    Final Occupation by Irrep:
              A 
    DOCC [    41 ]

  @DF-RKS Final Energy:  -463.13015013118138

   => Energetics <=

    Nuclear Repulsion Energy =            601.1382577234525115
    One-Electron Energy =               -1815.0900850597249701
    Two-Electron Energy =                 798.0818157993396653
    DFT Exchange-Correlation Energy =     -47.2479864152421172
    Empirical Dispersion Energy =          -0.0121521790064794
    VV10 Nonlocal Energy =                  0.0000000000000000
    Total Energy =                       -463.1301501311812672

Computation Completed


Properties will be evaluated at   0.000000,   0.000000,   0.000000 [a0]

Properties computed using the SCF density matrix

  Nuclear Dipole Moment: [e a0]
     X:    -0.0000      Y:     0.0000      Z:    -0.0001

  Electronic Dipole Moment: [e a0]
     X:     0.0000      Y:    -0.0000      Z:     0.0001

  Dipole Moment: [e a0]
     X:     0.0000      Y:    -0.0000      Z:    -0.0000     Total:     0.0000

  Dipole Moment: [D]
     X:     0.0000      Y:    -0.0000      Z:    -0.0000     Total:     0.0000


*** tstop() called on daniele-Precision-5750 at Mon May 31 17:06:52 2021
Module time:
	user time   =      72.82 seconds =       1.21 minutes
	system time =       2.78 seconds =       0.05 minutes
	total time  =         25 seconds =       0.42 minutes
Total time:
	user time   =     197.22 seconds =       3.29 minutes
	system time =       6.78 seconds =       0.11 minutes
	total time  =         69 seconds =       1.15 minutes

*** tstart() called on daniele-Precision-5750
*** at Mon May 31 17:06:52 2021


         ------------------------------------------------------------
                                   SCF GRAD                          
                          Rob Parrish, Justin Turney,                
                       Andy Simmonett, and Alex Sokolov              
         ------------------------------------------------------------

  ==> Geometry <==

    Molecular point group: c1
    Full point group: C1

    Geometry (in Angstrom), charge = 0, multiplicity = 1:

       Center              X                  Y                   Z               Mass       
    ------------   -----------------  -----------------  -----------------  -----------------
         C            0.737840831502     0.049323336663    -0.027325855017    12.000000000000
         C           -0.737829073668    -0.049382076153     0.027507305755    12.000000000000
         C            1.358965226740     1.070544161001    -0.752406554299    12.000000000000
         C           -1.392103465080    -0.308703708250     1.235406709180    12.000000000000
         C            1.541228740421    -0.876504298826     0.644800119816    12.000000000000
         C           -1.508079095323     0.114606419647    -1.127589699064    12.000000000000
         C            2.745500064764     1.162545708574    -0.805371062233    12.000000000000
         C           -2.778557421756    -0.402968082956     1.286703860419    12.000000000000
         C            2.927769412951    -0.782950112095     0.594527865494    12.000000000000
         C           -2.894723694612     0.023434051955    -1.076045626171    12.000000000000
         C            3.535531999855     0.236540051258    -0.131455593527    12.000000000000
         C           -3.535542483967    -0.236487344028     0.131260858161    12.000000000000
         H            0.749933825917     1.805265929803    -1.262810680336     1.007825032230
         H           -0.810224973383    -0.420052417605     2.141112122094     1.007825032230
         H            1.074850956549    -1.683125466585     1.195378591105     1.007825032230
         H           -1.014532759718     0.297750566138    -2.073169068669     1.007825032230
         H            3.209159651582     1.962782718988    -1.366396003792     1.007825032230
         H           -3.268580732285    -0.598252541702     2.231086962591     1.007825032230
         H            3.534034371637    -1.511570367427     1.115751252585     1.007825032230
         H           -3.474634896098     0.147151837554    -1.980757338927     1.007825032230
         H            4.614055296943     0.308684940708    -0.171620369440     1.007825032230
         H           -4.614073145984    -0.308612657739     0.171277739298     1.007825032230

  Nuclear repulsion =  601.138257723452512

  ==> Basis Set <==

  Basis Set: 6-311G
    Blend: 6-311G
    Number of shells: 114
    Number of basis function: 186
    Number of Cartesian functions: 186
    Spherical Harmonics?: true
    Max angular momentum: 1

  ==> DFJKGrad: Density-Fitted SCF Gradients <==

    Gradient:                    1
    J tasked:                  Yes
    K tasked:                  Yes
    wK tasked:                 Yes
    Omega:               2.000E-01
    OpenMP threads:              3
    Integrals threads:           3
    Memory [MiB]:              500
    Schwarz Cutoff:          0E+00
    Fitting Condition:       1E-10

   => Auxiliary Basis Set <=

  Basis Set: (6-311G AUX)
    Blend: CC-PVTZ-JKFIT
    Number of shells: 400
    Number of basis function: 1248
    Number of Cartesian functions: 1502
    Spherical Harmonics?: true
    Max angular momentum: 4

  ==> DFT Potential <==

   => Composite Functional: WB97X-D <= 

    wB97X-D Hyb-GGA Exchange-Correlation Functional

    J.-D. Chai and M. Head-Gordon, Phys. Chem. Chem. Phys. 10, 6615 (2008)

    Deriv               =              1
    GGA                 =           TRUE
    Meta                =          FALSE

    Exchange Hybrid     =           TRUE
    MP2 Hybrid          =          FALSE

   => Exchange-Correlation Functionals <=

    1.0000   wB97D range-separated functional

   => Exact (HF) Exchange <=

    0.7780            HF,LR [omega = 0.2000]
    0.2220               HF 

   => Molecular Quadrature <=

    Radial Scheme          =       TREUTLER
    Pruning Scheme         =           FLAT
    Nuclear Scheme         =       TREUTLER

    BS radius alpha        =              1
    Pruning alpha          =              1
    Radial Points          =             75
    Spherical Points       =            302
    Total Points           =         491394
    Total Blocks           =           3624
    Max Points             =            256
    Max Functions          =            156


  -Total Gradient:
     Atom            X                  Y                   Z
    ------   -----------------  -----------------  -----------------
       1       -0.000697997813    -0.000066344039     0.000027462184
       2        0.000700291117     0.000052296299    -0.000006199070
       3        0.000029333804    -0.001391895500     0.001643143002
       4       -0.000003953832     0.000895505500    -0.001985992227
       5       -0.000286128701     0.001394310004    -0.001648340593
       6        0.000257557746    -0.000875050659     0.001953363491
       7       -0.000650441208    -0.001823769154     0.001234961141
       8        0.000719461632     0.000380312366    -0.002152612235
       9       -0.000982889185     0.001718094851    -0.001175919781
      10        0.000912847875    -0.000271927888     0.002088223814
      11       -0.001693533699    -0.000114034094     0.000063590993
      12        0.001694172214     0.000114359034    -0.000063140522
      13       -0.000064781448    -0.000156321513    -0.000123137425
      14        0.000082036515    -0.000180668945    -0.000076260906
      15       -0.000077083957     0.000141615927     0.000139759666
      16        0.000061429306     0.000184074230     0.000080116017
      17        0.000011921501    -0.000057350197     0.000099931192
      18       -0.000016855325     0.000065823591    -0.000093850728
      19        0.000001051059     0.000056942236    -0.000100485896
      20        0.000003878959    -0.000065565150     0.000095858452
      21        0.000141781712     0.000009545204    -0.000006039008
      22       -0.000142097158    -0.000009999615     0.000005526039


*** tstop() called on daniele-Precision-5750 at Mon May 31 17:07:07 2021
Module time:
	user time   =      44.66 seconds =       0.74 minutes
	system time =       0.59 seconds =       0.01 minutes
	total time  =         15 seconds =       0.25 minutes
Total time:
	user time   =     241.88 seconds =       4.03 minutes
	system time =       7.37 seconds =       0.12 minutes
	total time  =         84 seconds =       1.40 minutes

			-----------------------------------------
			 OPTKING 2.0: for geometry optimizations 
			  - R.A. King,  Bethel University        
			-----------------------------------------
	At level 1: Red. Int., RFO, no backsteps, dynamic trust

	Previous internal coordinate definitions found.
	---Fragment 1 Geometry and Gradient---
	 C           1.3943170957        0.0932075979       -0.0516383821
	 C          -1.3942948766       -0.0933185994        0.0519812743
	 C           2.5680720926        2.0230352695       -1.4218423226
	 C          -2.6306942873       -0.5833654625        2.3345803339
	 C           2.9125002161       -1.6563530726        1.2184956321
	 C          -2.8498564657        0.2165747454       -2.1308357131
	 C           5.1882431998        2.1968929975       -1.5219307370
	 C          -5.2507125510       -0.7614993141        2.4315179008
	 C           5.5326823490       -1.4795612818        1.1234948397
	 C          -5.4702349917        0.0442839402       -2.0334315320
	 C           6.6811871875        0.4469959146       -0.2484150694
	 C          -6.6812069996       -0.4468963123        0.2480470729
	 H           1.4171695432        3.4114581909       -2.3863663341
	 H          -1.5311032997       -0.7937840276        4.0461155147
	 H           2.0311739336       -3.1806461666        2.2589381534
	 H          -1.9171890612        0.5626670237       -3.9177217516
	 H           6.0644328344        3.7091217827       -2.5821142261
	 H          -6.1767224030       -1.1305334577        4.2161433214
	 H           6.6783570803       -2.8564540138        2.1084642915
	 H          -6.5661083396        0.2780766718       -3.7430888916
	 H           8.7193008389        0.5833299970       -0.3243154958
	 H          -8.7193345687       -0.5831934020        0.3236680187
	            -0.0006979978       -0.0000663440        0.0000274622
	             0.0007002911        0.0000522963       -0.0000061991
	             0.0000293338       -0.0013918955        0.0016431430
	            -0.0000039538        0.0008955055       -0.0019859922
	            -0.0002861287        0.0013943100       -0.0016483406
	             0.0002575577       -0.0008750507        0.0019533635
	            -0.0006504412       -0.0018237692        0.0012349611
	             0.0007194616        0.0003803124       -0.0021526122
	            -0.0009828892        0.0017180949       -0.0011759198
	             0.0009128479       -0.0002719279        0.0020882238
	            -0.0016935337       -0.0001140341        0.0000635910
	             0.0016941722        0.0001143590       -0.0000631405
	            -0.0000647814       -0.0001563215       -0.0001231374
	             0.0000820365       -0.0001806689       -0.0000762609
	            -0.0000770840        0.0001416159        0.0001397597
	             0.0000614293        0.0001840742        0.0000801160
	             0.0000119215       -0.0000573502        0.0000999312
	            -0.0000168553        0.0000658236       -0.0000938507
	             0.0000010511        0.0000569422       -0.0001004859
	             0.0000038790       -0.0000655651        0.0000958585
	             0.0001417817        0.0000095452       -0.0000060390
	            -0.0001420972       -0.0000099996        0.0000055260

	---Fragment 1 Intrafragment Coordinates---
	 - Coordinate -           - BOHR/RAD -       - ANG/DEG -
	 R(1,2)           =         2.796763	       1.479983
	 R(1,3)           =         2.641854	       1.398009
	 R(1,5)           =         2.641795	       1.397978
	 R(2,4)           =         2.641796	       1.397978
	 R(2,6)           =         2.641852	       1.398008
	 R(3,7)           =         2.627840	       1.390593
	 R(3,13)          =         2.045141	       1.082242
	 R(4,8)           =         2.627855	       1.390601
	 R(4,14)          =         2.045172	       1.082258
	 R(5,9)           =         2.627857	       1.390602
	 R(5,15)          =         2.045171	       1.082258
	 R(6,10)          =         2.627842	       1.390594
	 R(6,16)          =         2.045143	       1.082243
	 R(7,11)          =         2.629233	       1.391330
	 R(7,17)          =         2.044146	       1.081716
	 R(8,12)          =         2.629227	       1.391327
	 R(8,18)          =         2.044155	       1.081720
	 R(9,11)          =         2.629225	       1.391326
	 R(9,19)          =         2.044155	       1.081720
	 R(10,12)         =         2.629231	       1.391329
	 R(10,20)         =         2.044144	       1.081715
	 R(11,21)         =         2.044078	       1.081680
	 R(12,22)         =         2.044079	       1.081680
	 B(1,2,4)         =         2.107184	     120.732753
	 B(1,2,6)         =         2.107052	     120.725208
	 B(1,3,7)         =         2.107235	     120.735696
	 B(1,3,13)        =         2.083455	     119.373205
	 B(1,5,9)         =         2.107219	     120.734772
	 B(1,5,15)        =         2.083501	     119.375830
	 B(2,1,3)         =         2.107065	     120.725905
	 B(2,1,5)         =         2.107170	     120.731926
	 B(2,4,8)         =         2.107221	     120.734862
	 B(2,4,14)        =         2.083501	     119.375807
	 B(2,6,10)        =         2.107238	     120.735871
	 B(2,6,16)        =         2.083457	     119.373296
	 B(3,1,5)         =         2.068951	     118.542170
	 B(3,7,11)        =         2.098657	     120.244198
	 B(3,7,17)        =         2.089876	     119.741048
	 B(4,2,6)         =         2.068949	     118.542039
	 B(4,8,12)        =         2.098680	     120.245492
	 B(4,8,18)        =         2.089892	     119.742014
	 B(5,9,11)        =         2.098680	     120.245533
	 B(5,9,19)        =         2.089888	     119.741775
	 B(6,10,12)       =         2.098654	     120.244038
	 B(6,10,20)       =         2.089876	     119.741084
	 B(7,3,13)        =         2.092352	     119.882933
	 B(7,11,9)        =         2.085623	     119.497384
	 B(7,11,21)       =         2.098779	     120.251204
	 B(8,4,14)        =         2.092322	     119.881222
	 B(8,12,10)       =         2.085624	     119.497450
	 B(8,12,22)       =         2.098775	     120.250962
	 B(9,5,15)        =         2.092323	     119.881294
	 B(9,11,21)       =         2.098783	     120.251412
	 B(10,6,16)       =         2.092347	     119.882673
	 B(10,12,22)      =         2.098786	     120.251587
	 B(11,7,17)       =         2.094618	     120.012745
	 B(11,9,19)       =         2.094582	     120.010682
	 B(12,8,18)       =         2.094578	     120.010483
	 B(12,10,20)      =         2.094620	     120.012869
	 D(1,2,4,8)       =        -3.140305	    -179.926243
	 D(1,2,4,14)      =         0.019389	       1.110885
	 D(1,2,6,10)      =        -3.140293	    -179.925535
	 D(1,2,6,16)      =         0.019457	       1.114798
	 D(1,3,7,11)      =        -0.002619	      -0.150033
	 D(1,3,7,17)      =        -3.135213	    -179.634477
	 D(1,5,9,11)      =        -0.002573	      -0.147448
	 D(1,5,9,19)      =        -3.135166	    -179.631763
	 D(2,1,3,7)       =        -3.140250	    -179.923049
	 D(2,1,3,13)      =         0.019507	       1.117670
	 D(2,1,5,9)       =        -3.140348	    -179.928706
	 D(2,1,5,15)      =         0.019340	       1.108095
	 D(2,4,8,12)      =        -0.002577	      -0.147657
	 D(2,4,8,18)      =        -3.135167	    -179.631820
	 D(2,6,10,12)     =        -0.002614	      -0.149775
	 D(2,6,10,20)     =        -3.135210	    -179.634283
	*D(3,1,2,4)       =        -2.371603	    -135.882851
	*D(3,1,2,6)       =         0.770049	      44.120543
	 D(3,1,5,9)       =         0.001207	       0.069167
	 D(3,1,5,15)      =        -3.122290	    -178.894031
	 D(3,7,11,9)      =         0.001244	       0.071281
	 D(3,7,11,21)     =        -3.140331	    -179.927731
	*D(4,2,1,5)       =         0.769952	      44.114975
	 D(4,2,6,10)      =         0.001358	       0.077786
	 D(4,2,6,16)      =        -3.122078	    -178.881880
	 D(4,8,12,10)     =         0.001315	       0.075353
	 D(4,8,12,22)     =        -3.140306	    -179.926307
	*D(5,1,2,6)       =        -2.371582	    -135.881630
	 D(5,1,3,7)       =         0.001380	       0.079077
	 D(5,1,3,13)      =        -3.122049	    -178.880203
	 D(5,9,11,7)      =         0.001330	       0.076200
	 D(5,9,11,21)     =        -3.140280	    -179.924788
	 D(6,2,4,8)       =         0.001229	       0.070435
	 D(6,2,4,14)      =        -3.122262	    -178.892436
	 D(6,10,12,8)     =         0.001258	       0.072103
	 D(6,10,12,22)    =        -3.140305	    -179.926237
	 D(7,11,9,19)     =         3.133898	     179.559123
	 D(8,12,10,20)    =         3.133829	     179.555204
	 D(9,11,7,17)     =         3.133814	     179.554318
	 D(10,12,8,18)    =         3.133880	     179.558126
	 D(11,7,3,13)     =         3.120718	     178.803968
	 D(11,9,5,15)     =         3.120833	     178.810535
	 D(12,8,4,14)     =         3.120823	     178.809997
	 D(12,10,6,16)    =         3.120729	     178.804617
	 D(13,3,7,17)     =        -0.011877	      -0.680476
	 D(14,4,8,18)     =        -0.011766	      -0.674166
	 D(15,5,9,19)     =        -0.011760	      -0.673780
	 D(16,6,10,20)    =        -0.011866	      -0.679891
	 D(17,7,11,21)    =        -0.007761	      -0.444693
	 D(18,8,12,22)    =        -0.007741	      -0.443534
	 D(19,9,11,21)    =        -0.007712	      -0.441865
	 D(20,10,12,22)   =        -0.007734	      -0.443136

	Current energy   :      -463.1301501312

	Energy change for the previous step:
		Projected    :        -0.0108141378
		Actual       :        -0.0056207311

	Performing BFGS update.
	Previous computed or guess Hessian on step 1.
	Steps to be used in Hessian update: 1
	Taking RFO optimization step.
	Going to follow RFO solution 1.
	Using RFO vector 1.
	Norm of target step-size    0.03129
	Projected energy change by RFO approximation:        -0.0002393257

	Back-transformation to cartesian coordinates...
	Could not converge backtransformation.
	Using first guess instead.

	Back-transformation to cartesian coordinates to adjust frozen coordinates...
	Successfully converged to displaced geometry.

	--- Internal Coordinate Step in ANG or DEG, aJ/ANG or AJ/DEG ---
	 ---------------------------------------------------------------------------
	   Coordinate                Previous        Force       Change         New 
	   ----------                --------       ------       ------       ------
	    1 R(1,2)          =      1.479983     0.035273     0.006085     1.486069
	    2 R(1,3)          =      1.398009     0.024171     0.003255     1.401264
	    3 R(1,5)          =      1.397978     0.024307     0.003274     1.401252
	    4 R(2,4)          =      1.397978     0.024302     0.003273     1.401252
	    5 R(2,6)          =      1.398008     0.024179     0.003256     1.401264
	    6 R(3,7)          =      1.390593     0.013120     0.001609     1.392202
	    7 R(3,13)         =      1.082242     0.000096    -0.000038     1.082204
	    8 R(4,8)          =      1.390601     0.013093     0.001605     1.392206
	    9 R(4,14)         =      1.082258     0.000009    -0.000053     1.082206
	   10 R(5,9)          =      1.390602     0.013089     0.001605     1.392207
[...]
	 R(9,19)          =         2.044284	       1.081788
	 R(10,12)         =         2.633380	       1.393525
	 R(10,20)         =         2.044283	       1.081788
	 R(11,21)         =         2.043630	       1.081442
	 R(12,22)         =         2.043630	       1.081442
	 B(1,2,4)         =         2.107880	     120.772610
	 B(1,2,6)         =         2.107839	     120.770281
	 B(1,3,7)         =         2.108056	     120.782726
	 B(1,3,13)        =         2.083338	     119.366454
	 B(1,5,9)         =         2.108058	     120.782830
	 B(1,5,15)        =         2.083352	     119.367301
	 B(2,1,3)         =         2.107844	     120.770539
	 B(2,1,5)         =         2.107875	     120.772327
	 B(2,4,8)         =         2.108058	     120.782820
	 B(2,4,14)        =         2.083352	     119.367305
	 B(2,6,10)        =         2.108057	     120.782788
	 B(2,6,16)        =         2.083338	     119.366485
	 B(3,1,5)         =         2.067467	     118.457134
	 B(3,7,11)        =         2.097866	     120.198840
	 B(3,7,17)        =         2.089921	     119.743659
	 B(4,2,6)         =         2.067467	     118.457109
	 B(4,8,12)        =         2.097868	     120.198997
	 B(4,8,18)        =         2.089926	     119.743933
	 B(5,9,11)        =         2.097868	     120.198967
	 B(5,9,19)        =         2.089925	     119.743876
	 B(6,10,12)       =         2.097864	     120.198773
	 B(6,10,20)       =         2.089921	     119.743651
	 B(7,3,13)        =         2.091538	     119.836301
	 B(7,11,9)        =         2.087052	     119.579269
	 B(7,11,21)       =         2.098068	     120.210466
	 B(8,4,14)        =         2.091522	     119.835396
	 B(8,12,10)       =         2.087052	     119.579279
	 B(8,12,22)       =         2.098062	     120.210115
	 B(9,5,15)        =         2.091522	     119.835392
	 B(9,11,21)       =         2.098065	     120.210265
	 B(10,6,16)       =         2.091536	     119.836211
	 B(10,12,22)      =         2.098071	     120.210606
	 B(11,7,17)       =         2.095359	     120.055254
	 B(11,9,19)       =         2.095354	     120.054919
	 B(12,8,18)       =         2.095352	     120.054831
	 B(12,10,20)      =         2.095361	     120.055328
	 D(1,2,4,8)       =        -3.140272	    -179.924333
	 D(1,2,4,14)      =         0.025519	       1.462149
	 D(1,2,6,10)      =        -3.140390	    -179.931074
	 D(1,2,6,16)      =         0.025432	       1.457142
	 D(1,3,7,11)      =        -0.002521	      -0.144447
	 D(1,3,7,17)      =        -3.134599	    -179.599318
	 D(1,5,9,11)      =        -0.002538	      -0.145435
	 D(1,5,9,19)      =        -3.134637	    -179.601465
	 D(2,1,3,7)       =        -3.140383	    -179.930678
	 D(2,1,3,13)      =         0.025441	       1.457681
	 D(2,1,5,9)       =        -3.140279	    -179.924732
	 D(2,1,5,15)      =         0.025509	       1.461586
	 D(2,4,8,12)      =        -0.002533	      -0.145152
	 D(2,4,8,18)      =        -3.134631	    -179.601131
	 D(2,6,10,12)     =        -0.002526	      -0.144737
	 D(2,6,10,20)     =        -3.134605	    -179.599661
	*D(3,1,2,4)       =        -2.371603	    -135.882851
	*D(3,1,2,6)       =         0.770049	      44.120543
	 D(3,1,5,9)       =         0.001277	       0.073144
	 D(3,1,5,15)      =        -3.116120	    -178.540538
	 D(3,7,11,9)      =         0.001252	       0.071727
	 D(3,7,11,21)     =        -3.140346	    -179.928548
	*D(4,2,1,5)       =         0.769952	      44.114975
	 D(4,2,6,10)      =         0.001261	       0.072244
	 D(4,2,6,16)      =        -3.116103	    -178.539541
	 D(4,8,12,10)     =         0.001260	       0.072206
	 D(4,8,12,22)     =        -3.140333	    -179.927854
	*D(5,1,2,6)       =        -2.371582	    -135.881630
	 D(5,1,3,7)       =         0.001247	       0.071446
	 D(5,1,3,13)      =        -3.116114	    -178.540195
	 D(5,9,11,7)      =         0.001256	       0.071964
	 D(5,9,11,21)     =        -3.140332	    -179.927760
	 D(6,2,4,8)       =         0.001263	       0.072349
	 D(6,2,4,14)      =        -3.116131	    -178.541168
	 D(6,10,12,8)     =         0.001248	       0.071489
	 D(6,10,12,22)    =        -3.140344	    -179.928451
	 D(7,11,9,19)     =         3.133325	     179.526293
	 D(8,12,10,20)    =         3.133297	     179.524705
	 D(9,11,7,17)     =         3.133300	     179.524892
	 D(10,12,8,18)    =         3.133328	     179.526485
	 D(11,7,3,13)     =         3.114727	     178.460709
	 D(11,9,5,15)     =         3.114746	     178.461796
	 D(12,8,4,14)     =         3.114748	     178.461914
	 D(12,10,6,16)    =         3.114724	     178.460566
	 D(13,3,7,17)     =        -0.017351	      -0.994162
	 D(14,4,8,18)     =        -0.017350	      -0.994065
	 D(15,5,9,19)     =        -0.017353	      -0.994234
	 D(16,6,10,20)    =        -0.017355	      -0.994358
	 D(17,7,11,21)    =        -0.008297	      -0.475384
	 D(18,8,12,22)    =        -0.008265	      -0.473575
	 D(19,9,11,21)    =        -0.008263	      -0.473431
	 D(20,10,12,22)   =        -0.008294	      -0.475234

	Current energy   :      -463.1302352686

	Energy change for the previous step:
		Projected    :        -0.0002393257
		Actual       :        -0.0000851374

	Performing BFGS update.
	Previous computed or guess Hessian on step 1.
	Steps to be used in Hessian update: 2 1
	Taking RFO optimization step.
	Going to follow RFO solution 1.
	Using RFO vector 1.
	Norm of target step-size    0.01543
	Projected energy change by RFO approximation:         0.0000058119

	Back-transformation to cartesian coordinates...
	Successfully converged to displaced geometry.

	Back-transformation to cartesian coordinates to adjust frozen coordinates...
	Successfully converged to displaced geometry.

	--- Internal Coordinate Step in ANG or DEG, aJ/ANG or AJ/DEG ---
	 ---------------------------------------------------------------------------
	   Coordinate                Previous        Force       Change         New 
	   ----------                --------       ------       ------       ------
	    1 R(1,2)          =      1.486069    -0.002244    -0.000260     1.485809
	    2 R(1,3)          =      1.401264    -0.002512    -0.000388     1.400876
	    3 R(1,5)          =      1.401252    -0.002468    -0.000380     1.400871
	    4 R(2,4)          =      1.401252    -0.002468    -0.000380     1.400871
	    5 R(2,6)          =      1.401264    -0.002512    -0.000388     1.400876
	    6 R(3,7)          =      1.392202    -0.000235    -0.000034     1.392168
	    7 R(3,13)         =      1.082204     0.000468     0.000063     1.082266
	    8 R(4,8)          =      1.392206    -0.000244    -0.000035     1.392172
	    9 R(4,14)         =      1.082206     0.000461     0.000061     1.082266
	   10 R(5,9)          =      1.392207    -0.000247    -0.000035     1.392172
	   11 R(5,15)         =      1.082206     0.000460     0.000061     1.082266
	   12 R(6,10)         =      1.392203    -0.000238    -0.000034     1.392168
	   13 R(6,16)         =      1.082204     0.000467     0.000062     1.082266
	   14 R(7,11)         =      1.393525    -0.000232     0.000002     1.393527
	   15 R(7,17)         =      1.081788    -0.000115    -0.000038     1.081750
	   16 R(8,12)         =      1.393519    -0.000209     0.000005     1.393524
	   17 R(8,18)         =      1.081788    -0.000115    -0.000039     1.081750
	   18 R(9,11)         =      1.393518    -0.000205     0.000006     1.393524
	   19 R(9,19)         =      1.081788    -0.000116    -0.000039     1.081750
	   20 R(10,12)        =      1.393525    -0.000229     0.000002     1.393527
	   21 R(10,20)        =      1.081788    -0.000114    -0.000038     1.081750
	   22 R(11,21)        =      1.081442     0.000303     0.000024     1.081467
	   23 R(12,22)        =      1.081442     0.000303     0.000024     1.081467
	   24 B(1,2,4)        =    120.772610    -0.000010    -0.025725   120.746885
	   25 B(1,2,6)        =    120.770281    -0.000009    -0.023676   120.746605
	   26 B(1,3,7)        =    120.782726    -0.000008    -0.022590   120.760136
	   27 B(1,3,13)       =    119.366454     0.000001    -0.000652   119.365802
	   28 B(1,5,9)        =    120.782830    -0.000008    -0.022693   120.760138
	   29 B(1,5,15)       =    119.367301     0.000001    -0.001279   119.366022
	   30 B(2,1,3)        =    120.770539    -0.000009    -0.023883   120.746656
	   31 B(2,1,5)        =    120.772327    -0.000010    -0.025494   120.746833
	   32 B(2,4,8)        =    120.782820    -0.000008    -0.022688   120.760131
	   33 B(2,4,14)       =    119.367305     0.000001    -0.001285   119.366020
	   34 B(2,6,10)       =    120.782788    -0.000008    -0.022646   120.760142
	   35 B(2,6,16)       =    119.366485     0.000001    -0.000673   119.365812
	   36 B(3,1,5)        =    118.457134     0.000019     0.049377   118.506511
	   37 B(3,7,11)       =    120.198840    -0.000002    -0.004376   120.194463
	   38 B(3,7,17)       =    119.743659     0.000001     0.001032   119.744691
	   39 B(4,2,6)        =    118.457109     0.000019     0.049401   118.506510
	   40 B(4,8,12)       =    120.198997    -0.000002    -0.004483   120.194514
	   41 B(4,8,18)       =    119.743933     0.000001     0.000670   119.744603
	   42 B(5,9,11)       =    120.198967    -0.000002    -0.004467   120.194499
	   43 B(5,9,19)       =    119.743876     0.000001     0.000707   119.744583
	   44 B(6,10,12)      =    120.198773    -0.000002    -0.004320   120.194453
	   45 B(6,10,20)      =    119.743651     0.000001     0.001019   119.744669
	   46 B(7,3,13)       =    119.836301     0.000007     0.028086   119.864388
	   47 B(7,11,9)       =    119.579269    -0.000000     0.004426   119.583695
	   48 B(7,11,21)      =    120.210466     0.000000    -0.002331   120.208135
	   49 B(8,4,14)       =    119.835396     0.000007     0.028734   119.864129
	   50 B(8,12,10)      =    119.579279    -0.000000     0.004413   119.583691
	   51 B(8,12,22)      =    120.210115     0.000000    -0.001991   120.208125
	   52 B(9,5,15)       =    119.835392     0.000007     0.028727   119.864119
	   53 B(9,11,21)      =    120.210265     0.000000    -0.002094   120.208171
	   54 B(10,6,16)      =    119.836211     0.000007     0.028158   119.864369
	   55 B(10,12,22)     =    120.210606     0.000000    -0.002422   120.208184
	   56 B(11,7,17)      =    120.055254     0.000001     0.003869   120.059123
	   57 B(11,9,19)      =    120.054919     0.000001     0.004279   120.059197
	   58 B(12,8,18)      =    120.054831     0.000001     0.004333   120.059164
	   59 B(12,10,20)     =    120.055328     0.000001     0.003825   120.059153
	   60 D(1,2,4,8)      =   -179.924333     0.000000     0.036585  -179.887748
	   61 D(1,2,4,14)     =      1.462149    -0.000001    -0.214273     1.247877
	   62 D(1,2,6,10)     =   -179.931074     0.000000     0.041833  -179.889240
	   63 D(1,2,6,16)     =      1.457142    -0.000001    -0.213230     1.243912
	   64 D(1,3,7,11)     =     -0.144447    -0.000000    -0.080310    -0.224757
	   65 D(1,3,7,17)     =   -179.599318    -0.000001    -0.148249  -179.747567
	   66 D(1,5,9,11)     =     -0.145435    -0.000000    -0.076877    -0.222311
	   67 D(1,5,9,19)     =   -179.601465    -0.000001    -0.144053  -179.745518
	   68 D(2,1,3,7)      =   -179.930678     0.000000     0.042438  -179.888240
	   69 D(2,1,3,13)     =      1.457681    -0.000001    -0.212912     1.244769
	   70 D(2,1,5,9)      =   -179.924732     0.000000     0.035981  -179.888751
	   71 D(2,1,5,15)     =      1.461586    -0.000001    -0.214566     1.247020
	   72 D(2,4,8,12)     =     -0.145152    -0.000000    -0.077062    -0.222214
	   73 D(2,4,8,18)     =   -179.601131    -0.000001    -0.144441  -179.745572
	   74 D(2,6,10,12)    =     -0.144737    -0.000000    -0.080124    -0.224861
	   75 D(2,6,10,20)    =   -179.599661    -0.000001    -0.147863  -179.747524
	   76 *D(3,1,2,4)     =   -135.882851    -0.000000     0.000000  -135.882851
	   77 *D(3,1,2,6)     =     44.120543    -0.000000     0.000000    44.120543
	   78 D(3,1,5,9)      =      0.073144     0.000000     0.035980     0.109123
	   79 D(3,1,5,15)     =   -178.540538    -0.000001    -0.214567  -178.755105
	   80 D(3,7,11,9)     =      0.071727     0.000000     0.039111     0.110839
	   81 D(3,7,11,21)    =   -179.928548     0.000000     0.039679  -179.888870
	   82 *D(4,2,1,5)     =     44.114975    -0.000000    -0.000000    44.114975
	   83 D(4,2,6,10)     =      0.072244     0.000000     0.041836     0.114080
	   84 D(4,2,6,16)     =   -178.539541    -0.000001    -0.213228  -178.752769
	   85 D(4,8,12,10)    =      0.072206     0.000000     0.038609     0.110815
	   86 D(4,8,12,22)    =   -179.927854     0.000000     0.038437  -179.889417
	   87 *D(5,1,2,6)     =   -135.881630     0.000000    -0.000000  -135.881630
	   88 D(5,1,3,7)      =      0.071446     0.000000     0.042440     0.113885
	   89 D(5,1,3,13)     =   -178.540195    -0.000001    -0.212910  -178.753105
	   90 D(5,9,11,7)     =      0.071964     0.000000     0.038854     0.110817
	   91 D(5,9,11,21)    =   -179.927760     0.000000     0.038286  -179.889474
	   92 D(6,2,4,8)      =      0.072349     0.000000     0.036583     0.108932
	   93 D(6,2,4,14)     =   -178.541168    -0.000001    -0.214275  -178.755443
	   94 D(6,10,12,8)    =      0.071489     0.000000     0.039355     0.110844
	   95 D(6,10,12,22)   =   -179.928451     0.000000     0.039527  -179.888924
	   96 D(7,11,9,19)    =    179.526293     0.000001     0.106222   179.632516
	   97 D(8,12,10,20)   =    179.524705     0.000001     0.107293   179.631999
	   98 D(9,11,7,17)    =    179.524892     0.000001     0.107249   179.632141
	   99 D(10,12,8,18)   =    179.526485     0.000001     0.106181   179.632666
	  100 D(11,7,3,13)    =    178.460709     0.000001     0.175906   178.636615
	  101 D(11,9,5,15)    =    178.461796     0.000001     0.174493   178.636290
	  102 D(12,8,4,14)    =    178.461914     0.000001     0.174620   178.636535
	  103 D(12,10,6,16)   =    178.460566     0.000001     0.175802   178.636368
	  104 D(13,3,7,17)    =     -0.994162     0.000001     0.107967    -0.886195
	  105 D(14,4,8,18)    =     -0.994065     0.000001     0.107242    -0.886823
	  106 D(15,5,9,19)    =     -0.994234     0.000001     0.107317    -0.886917
	  107 D(16,6,10,20)   =     -0.994358     0.000001     0.108063    -0.886295
	  108 D(17,7,11,21)   =     -0.475384     0.000001     0.107816    -0.367568
	  109 D(18,8,12,22)   =     -0.473575     0.000001     0.106009    -0.367566
	  110 D(19,9,11,21)   =     -0.473431     0.000001     0.105655    -0.367776
	  111 D(20,10,12,22)  =     -0.475234     0.000001     0.107465    -0.367770
	 ---------------------------------------------------------------------------
	Successfully symmetrized geometry.

  ==> Convergence Check <==

  Measures of convergence in internal coordinates in au.
  Criteria marked as inactive (o), active & met (*), and active & unmet ( ).
  ---------------------------------------------------------------------------------------------
   Step     Total Energy     Delta E     MAX Force     RMS Force      MAX Disp      RMS Disp   
  ---------------------------------------------------------------------------------------------
    Convergence Criteria             o    2.50e-03 *    1.70e-03 *    1.00e-02 *    6.70e-03 *
  ---------------------------------------------------------------------------------------------
      3    -463.13023527   -8.51e-05 o    3.05e-04 *    8.43e-05 *    3.74e-03 *    1.46e-03 *  ~
  ---------------------------------------------------------------------------------------------


  **** Optimization is complete! (in 3 steps) ****

  ==> Optimization Summary <==

  Measures of convergence in internal coordinates in au.
  --------------------------------------------------------------------------------------------------------------- ~
   Step         Total Energy             Delta E       MAX Force       RMS Force        MAX Disp        RMS Disp  ~
  --------------------------------------------------------------------------------------------------------------- ~
      1    -463.124529400043   -463.124529400043      0.02702509      0.00676829      0.06560812      0.01720414  ~
      2    -463.130150131181     -0.005620731139      0.00428135      0.00086669      0.01149940      0.00296982  ~
      3    -463.130235268561     -0.000085137379      0.00030493      0.00008435      0.00374490      0.00146431  ~
  --------------------------------------------------------------------------------------------------------------- ~

	Writing optimization data to binary file.
	Final energy is   -463.1302352685608
	Final (previous) structure:
	Cartesian Geometry (in Angstrom)
	    C     0.7408691238   0.0495511555  -0.0275284283
	    C    -0.7408691915  -0.0495395242   0.0275422167
	    C     1.3644257316   1.0727506868  -0.7540138238
	    C    -1.3975287052  -0.3094259515   1.2378163649
	    C     1.5469393923  -0.8779891145   0.6458409444
	    C    -1.5138376375   0.1146779008  -1.1296499328
	    C     2.7525603291   1.1649797143  -0.8069545871
	    C    -2.7855720564  -0.4038529435   1.2893705329
	    C     2.9350942366  -0.7844491505   0.5956744302
	    C    -2.9020822764   0.0233129473  -1.0780997594
	    C     3.5429704925   0.2370430316  -0.1316040301
	    C    -3.5429697012  -0.2370542417   0.1316041135
	    H     0.7560770819   1.8109993453  -1.2600435241
	    H    -0.8166263739  -0.4151795311   2.1447550098
	    H     1.0812782158  -1.6880999048   1.1917798162
	    H    -1.0207288257   0.2922762262  -2.0764700080
	    H     3.2162565144   1.9655937373  -1.3675514799
	    H    -3.2755482672  -0.5986489854   2.2339570385
	    H     3.5413096295  -1.5134588236   1.1165523762
	    H    -3.4820164388   0.1464870398  -1.9829589369
	    H     4.6212601230   0.3091880123  -0.1716535156
	    H    -4.6212585363  -0.3092108187   0.1716565483
	Saving final (previous) structure.
			--------------------------
			 OPTKING Finished Execution 
			--------------------------

    Final optimized geometry and variables:
    Molecular point group: c1
    Full point group: C1

    Geometry (in Angstrom), charge = 0, multiplicity = 1:

    C            0.740869126685     0.049551155709    -0.027528428360
    C           -0.740869194379    -0.049539524422     0.027542216805
    C            1.364425736952     1.072750690970    -0.754013826791
    C           -1.397528710656    -0.309425952737     1.237816369740
    C            1.546939398401    -0.877989117947     0.645840946921
    C           -1.513837643401     0.114677901268    -1.129649937240
    C            2.752560339922     1.164979718839    -0.806954590270
    C           -2.785572067355    -0.403852945127     1.289370537960
    C            2.935094248117    -0.784449153617     0.595674432559
    C           -2.902082287830     0.023312947438    -1.078099763594
    C            3.542970506383     0.237043032542    -0.131604030665
    C           -3.542969715091    -0.237054242668     0.131604114021
    H            0.756077084863     1.810999352380    -1.260043529018
    H           -0.816626377103    -0.415179532748     2.144755018280
    H            1.081278220028    -1.688099911426     1.191779820870
    H           -1.020728829693     0.292276227377    -2.076470016199
    H            3.216256527056     1.965593745010    -1.367551485231
    H           -3.275548280098    -0.598648987773     2.233957047236
    H            3.541309643389    -1.513458829579     1.116552380576
    H           -3.482016452508     0.146487040382    -1.982958944731
    H            4.621260141166     0.309188013533    -0.171653516289
    H           -4.621258554511    -0.309210819911     0.171656548957

	Removing binary optimization data file.
	Cleaning optimization helper files.

    Psi4 stopped on: Monday, 31 May 2021 05:07PM
    Psi4 wall time for execution: 0:02:02.29

*** Psi4 exiting successfully. Buy a developer a beer!
