
    -----------------------------------------------------------------------
          Psi4: An Open-Source Ab Initio Electronic Structure Package
                               Psi4 1.3.2 release

                         Git: Rev {HEAD} ecbda83 


    R. M. Parrish, L. A. Burns, D. G. A. Smith, A. C. Simmonett,
    A. E. DePrince III, E. G. Hohenstein, U. Bozkaya, A. Yu. Sokolov,
    R. Di Remigio, R. M. Richard, J. F. Gonthier, A. M. James,
    H. R. McAlexander, A. Kumar, M. Saitow, X. Wang, B. P. Pritchard,
    P. Verma, H. F. Schaefer III, K. Patkowski, R. A. King, E. F. Valeev,
    F. A. Evangelista, J. M. Turney, T. D. Crawford, and C. D. Sherrill,
    J. Chem. Theory Comput. 13(7) pp 3185--3197 (2017).
    (doi: 10.1021/acs.jctc.7b00174)


                         Additional Contributions by
    P. Kraus, H. Kruse, M. H. Lechner, M. C. Schieber, R. A. Shaw,
    A. Alenaizan, R. Galvelis, Z. L. Glick, S. Lehtola, and J. P. Misiewicz

    -----------------------------------------------------------------------


    Psi4 started on: Monday, 31 May 2021 05:43PM

    Process ID: 30979
    Host:       daniele-Precision-5750
    PSIDATADIR: /home/daniele/anaconda3/envs/poltype/share/psi4
    Memory:     500.0 MiB
    Threads:    1
    
  ==> Input File <==

--------------------------------------------------------------------------
molecule { 
0 1
 C    0.740825    0.049620   -0.027524
 C   -0.740832   -0.049552    0.027466
 C    1.382825    1.283560    0.140701
 C   -1.464028    0.586877    1.044820
 C    1.527167   -1.088703   -0.248761
 C   -1.445970   -0.781677   -0.936816
 C    2.771064    1.376558    0.090293
 C   -2.852310    0.494919    1.095978
 C    2.915336   -0.995853   -0.301371
 C   -2.834084   -0.875681   -0.884848
 C    3.542185    0.237140   -0.131474
 C   -3.542178   -0.237196    0.131527
 H    0.787586    2.174958    0.290251
 H   -0.931396    1.137499    1.809270
 H    1.046476   -2.052127   -0.358388
 H   -0.902672   -1.260260   -1.741212
 H    3.249466    2.338700    0.215589
 H   -3.393853    0.987229    1.892625
 H    3.506980   -1.886368   -0.466370
 H   -3.362581   -1.439677   -1.641739
 H    4.620479    0.309318   -0.171482
 H   -4.620469   -0.309419    0.171578
}
memory 700MB
set_num_threads(3)
psi4_io.set_default_path("/home/daniele/PSI4_sctatch/Psi4-biphenyl")
set freeze_core True
E, wfn = energy('wb97x-d/6-311+G*',return_wfn=True)
oeprop(wfn,"WIBERG_LOWDIN_INDICES")
clean()
--------------------------------------------------------------------------

  Memory set to 667.572 MiB by Python driver.
  Threads set to 3 by Python driver.

*** tstart() called on daniele-Precision-5750
*** at Mon May 31 17:43:53 2021

   => Loading Basis Set <=

    Name: 6-311+G*
    Role: ORBITAL
    Keyword: BASIS
    atoms 1-12  entry C          line   130 file /home/daniele/anaconda3/envs/poltype/share/psi4/basis/6-311pgs.gbs 
    atoms 13-22 entry H          line    47 file /home/daniele/anaconda3/envs/poltype/share/psi4/basis/6-311pgs.gbs 


         ---------------------------------------------------------
                                   SCF
               by Justin Turney, Rob Parrish, Andy Simmonett
                          and Daniel G. A. Smith
                              RKS Reference
                        3 Threads,    667 MiB Core
         ---------------------------------------------------------

  ==> Geometry <==

    Molecular point group: c1
    Full point group: C1

    Geometry (in Angstrom), charge = 0, multiplicity = 1:

       Center              X                  Y                   Z               Mass       
    ------------   -----------------  -----------------  -----------------  -----------------
         C            0.740824895344     0.049620026936    -0.027524097059    12.000000000000
         C           -0.740832104656    -0.049551973064     0.027465902941    12.000000000000
         C            1.382824895344     1.283560026936     0.140700902941    12.000000000000
         C           -1.464028104656     0.586877026936     1.044819902941    12.000000000000
         C            1.527166895344    -1.088702973064    -0.248761097059    12.000000000000
         C           -1.445970104656    -0.781676973064    -0.936816097059    12.000000000000
         C            2.771063895344     1.376558026936     0.090292902941    12.000000000000
         C           -2.852310104656     0.494919026936     1.095977902941    12.000000000000
         C            2.915335895344    -0.995852973064    -0.301371097059    12.000000000000
         C           -2.834084104656    -0.875680973064    -0.884848097059    12.000000000000
         C            3.542184895344     0.237140026936    -0.131474097059    12.000000000000
         C           -3.542178104656    -0.237195973064     0.131526902941    12.000000000000
         H            0.787585895344     2.174958026936     0.290250902941     1.007825032230
         H           -0.931396104656     1.137499026936     1.809269902941     1.007825032230
         H            1.046475895344    -2.052126973064    -0.358388097059     1.007825032230
         H           -0.902672104656    -1.260259973064    -1.741212097059     1.007825032230
         H            3.249465895344     2.338700026936     0.215588902941     1.007825032230
         H           -3.393853104656     0.987229026936     1.892624902941     1.007825032230
         H            3.506979895344    -1.886367973064    -0.466370097059     1.007825032230
         H           -3.362581104656    -1.439676973064    -1.641739097059     1.007825032230
         H            4.620478895344     0.309318026936    -0.171482097059     1.007825032230
         H           -4.620469104656    -0.309418973064     0.171577902941     1.007825032230

  Running in c1 symmetry.

  Rotational constants: A =      0.09564  B =      0.01815  C =      0.01604 [cm^-1]
  Rotational constants: A =   2867.26180  B =    544.12791  C =    480.98622 [MHz]
  Nuclear repulsion =  599.937602446074266

  Charge       = 0
  Multiplicity = 1
  Electrons    = 82
  Nalpha       = 41
  Nbeta        = 41

  ==> Algorithm <==

  SCF Algorithm Type is DF.
  DIIS enabled.
  MOM disabled.
  Fractional occupation disabled.
  Guess Type is SAD.
  Energy threshold   = 1.00e-06
  Density threshold  = 1.00e-06
  Integral threshold = 0.00e+00

  ==> Primary Basis <==

  Basis Set: 6-311+G*
    Blend: 6-311+G*
    Number of shells: 150
    Number of basis function: 294
    Number of Cartesian functions: 306
    Spherical Harmonics?: true
    Max angular momentum: 2

  ==> DFT Potential <==

   => Composite Functional: WB97X-D <= 

    wB97X-D Hyb-GGA Exchange-Correlation Functional

    J.-D. Chai and M. Head-Gordon, Phys. Chem. Chem. Phys. 10, 6615 (2008)

    Deriv               =              1
    GGA                 =           TRUE
    Meta                =          FALSE

    Exchange Hybrid     =           TRUE
    MP2 Hybrid          =          FALSE

   => Exchange-Correlation Functionals <=

    1.0000   wB97D range-separated functional

   => Exact (HF) Exchange <=

    0.7780            HF,LR [omega = 0.2000]
    0.2220               HF 

   => Molecular Quadrature <=

    Radial Scheme          =       TREUTLER
    Pruning Scheme         =           FLAT
    Nuclear Scheme         =       TREUTLER

    BS radius alpha        =              1
    Pruning alpha          =              1
    Radial Points          =             75
    Spherical Points       =            302
    Total Points           =         498300
    Total Blocks           =           3672
    Max Points             =            256
    Max Functions          =            264

   => WB97X-D: Empirical Dispersion <=

    Chai and Head-Gordon Dispersion Correction
    Chai, J.-D.; Head-Gordon, M. (2010), J. Chem. Phys., 132: 6615-6620

        s6 =       1.000000

   => Loading Basis Set <=

    Name: (6-311+G* AUX)
    Role: JKFIT
    Keyword: DF_BASIS_SCF
    atoms 1-12  entry C          line   200 file /home/daniele/anaconda3/envs/poltype/share/psi4/basis/heavy-aug-cc-pvtz-jkfit.gbs 
    atoms 13-22 entry H          line   116 file /home/daniele/anaconda3/envs/poltype/share/psi4/basis/heavy-aug-cc-pvtz-jkfit.gbs 

  ==> Pre-Iterations <==

   -------------------------------------------------------
    Irrep   Nso     Nmo     Nalpha   Nbeta   Ndocc  Nsocc
   -------------------------------------------------------
     A        294     294       0       0       0       0
   -------------------------------------------------------
    Total     294     294      41      41      41       0
   -------------------------------------------------------

  ==> Integral Setup <==

  ==> DiskDFJK: Density-Fitted J/K Matrices <==

    J tasked:                  Yes
    K tasked:                  Yes
    wK tasked:                 Yes
    Omega:               2.000E-01
    OpenMP threads:              3
    Integrals threads:           3
    Memory [MiB]:              450
    Algorithm:                Disk
    Integral Cache:           NONE
    Schwarz Cutoff:          1E-12
    Fitting Condition:       1E-10

   => Auxiliary Basis Set <=

  Basis Set: (6-311+G* AUX)
    Blend: HEAVY-AUG-CC-PVTZ-JKFIT
    Number of shells: 460
    Number of basis function: 1548
    Number of Cartesian functions: 1922
    Spherical Harmonics?: true
    Max angular momentum: 4

  Cached 1.8% of DFT collocation blocks in 0.051 [GiB].

  Minimum eigenvalue in the overlap matrix is 1.3024025605E-06.
  Using Symmetric Orthogonalization.

  SCF Guess: Superposition of Atomic Densities via on-the-fly atomic UHF.

  ==> Iterations <==

                           Total Energy        Delta E     RMS |[F,P]|

   @DF-RKS iter SAD:  -462.60735709130677   -4.62607e+02   0.00000e+00 
   @DF-RKS iter   1:  -462.72011382300639   -1.12757e-01   3.27546e-03 DIIS
   @DF-RKS iter   2:  -462.98873337083387   -2.68620e-01   2.36449e-03 DIIS
   @DF-RKS iter   3:  -463.23297745780434   -2.44244e-01   1.66071e-04 DIIS
   @DF-RKS iter   4:  -463.23417658973727   -1.19913e-03   6.33455e-05 DIIS
   @DF-RKS iter   5:  -463.23429030422454   -1.13714e-04   4.45551e-05 DIIS
   @DF-RKS iter   6:  -463.23437985592295   -8.95517e-05   3.27724e-06 DIIS
   @DF-RKS iter   7:  -463.23438048211830   -6.26195e-07   1.65705e-06 DIIS
   @DF-RKS iter   8:  -463.23438060793524   -1.25817e-07   3.39580e-07 DIIS
  Energy and wave function converged.


  ==> Post-Iterations <==

    Orbital Energies [Eh]
    ---------------------

    Doubly Occupied:                                                      

       1A    -10.302848     2A    -10.302552     3A    -10.291966  
       4A    -10.291960     5A    -10.291869     6A    -10.291868  
       7A    -10.291024     8A    -10.291019     9A    -10.290981  
      10A    -10.290980    11A    -10.290597    12A    -10.290597  
      13A     -0.977025    14A     -0.954493    15A     -0.882715  
      16A     -0.854737    17A     -0.847916    18A     -0.824571  
      19A     -0.723710    20A     -0.717178    21A     -0.692055  
      22A     -0.675744    23A     -0.629106    24A     -0.595715  
      25A     -0.563330    26A     -0.555803    27A     -0.534811  
      28A     -0.531269    29A     -0.515012    30A     -0.510262  
      31A     -0.509461    32A     -0.468894    33A     -0.454599  
      34A     -0.453311    35A     -0.437041    36A     -0.423192  
      37A     -0.421084    38A     -0.355754    39A     -0.335014  
      40A     -0.333263    41A     -0.306340  

    Virtual:                                                              

      42A      0.029570    43A      0.050733    44A      0.053514  
      45A      0.058150    46A      0.066682    47A      0.072807  
      48A      0.081475    49A      0.084891    50A      0.085585  
      51A      0.099880    52A      0.100232    53A      0.103264  
      54A      0.112075    55A      0.115624    56A      0.127702  
      57A      0.128362    58A      0.137774    59A      0.145371  
      60A      0.153926    61A      0.160468    62A      0.167300  
      63A      0.169407    64A      0.176789    65A      0.186017  
      66A      0.187892    67A      0.192654    68A      0.196587  
      69A      0.203890    70A      0.205356    71A      0.215170  
      72A      0.215193    73A      0.218860    74A      0.223537  
      75A      0.225587    76A      0.235524    77A      0.238331  
      78A      0.252626    79A      0.254861    80A      0.260314  
      81A      0.263558    82A      0.265005    83A      0.265349  
      84A      0.265909    85A      0.267165    86A      0.272847  
      87A      0.279599    88A      0.279695    89A      0.284846  
      90A      0.293928    91A      0.294749    92A      0.296887  
      93A      0.306903    94A      0.309992    95A      0.316942  
      96A      0.317814    97A      0.325659    98A      0.329885  
      99A      0.339955   100A      0.342218   101A      0.344092  
     102A      0.347147   103A      0.355145   104A      0.365342  
     105A      0.365827   106A      0.376681   107A      0.390615  
     108A      0.391405   109A      0.403356   110A      0.408206  
     111A      0.413285   112A      0.448583   113A      0.459326  
     114A      0.464938   115A      0.527670   116A      0.556249  
     117A      0.592197   118A      0.603555   119A      0.603580  
     120A      0.607039   121A      0.612858   122A      0.615075  
     123A      0.627063   124A      0.634541   125A      0.635132  
     126A      0.639430   127A      0.649606   128A      0.657849  
     129A      0.664597   130A      0.667806   131A      0.678863  
     132A      0.687486   133A      0.698706   134A      0.707876  
     135A      0.712512   136A      0.723779   137A      0.744556  
     138A      0.749960   139A      0.765807   140A      0.767574  
     141A      0.771243   142A      0.779882   143A      0.783987  
     144A      0.793168   145A      0.793314   146A      0.803179  
     147A      0.808337   148A      0.821796   149A      0.824173  
     150A      0.847233   151A      0.850781   152A      0.853642  
     153A      0.881825   154A      0.894368   155A      0.910794  
     156A      0.918816   157A      0.925129   158A      0.928840  
     159A      0.929995   160A      0.937390   161A      0.945301  
     162A      0.954111   163A      0.962315   164A      0.989633  
     165A      0.994689   166A      1.014277   167A      1.029085  
     168A      1.052574   169A      1.065656   170A      1.080797  
     171A      1.089278   172A      1.113347   173A      1.120468  
     174A      1.132483   175A      1.173233   176A      1.211038  
     177A      1.219633   178A      1.235389   179A      1.285052  
     180A      1.285580   181A      1.310283   182A      1.319327  
     183A      1.326941   184A      1.334809   185A      1.394495  
     186A      1.415247   187A      1.415329   188A      1.430205  
     189A      1.574914   190A      1.575119   191A      1.602904  
     192A      1.607356   193A      1.611750   194A      1.633046  
     195A      1.633945   196A      1.643246   197A      1.679962  
     198A      1.750476   199A      1.808626   200A      1.828063  
     201A      1.853624   202A      1.855845   203A      1.859170  
     204A      1.859412   205A      1.899961   206A      1.912807  
     207A      1.922112   208A      1.930955   209A      1.946671  
     210A      1.982681   211A      2.018846   212A      2.021714  
     213A      2.027139   214A      2.034406   215A      2.040983  
     216A      2.056337   217A      2.083271   218A      2.086873  
     219A      2.110455   220A      2.148364   221A      2.161151  
     222A      2.263795   223A      2.330594   224A      2.340442  
     225A      2.357732   226A      2.368956   227A      2.373485  
     228A      2.419984   229A      2.438258   230A      2.450762  
     231A      2.457330   232A      2.458345   233A      2.496530  
     234A      2.514154   235A      2.522653   236A      2.543111  
     237A      2.544491   238A      2.763501   239A      2.764063  
     240A      2.784953   241A      2.785628   242A      2.801435  
     243A      2.831442   244A      2.884447   245A      2.886987  
     246A      2.902417   247A      2.936905   248A      2.943033  
     249A      2.974868   250A      2.986736   251A      3.025773  
     252A      3.036588   253A      3.087271   254A      3.103639  
     255A      3.174696   256A      3.195056   257A      3.270323  
     258A      3.286735   259A      3.303255   260A      3.407354  
     261A      3.408941   262A      3.410591   263A      3.414745  
     264A      3.424557   265A      3.428213   266A      3.431116  
     267A      3.448776   268A      3.513017   269A      3.566325  
     270A      3.654304   271A      3.718643   272A      3.724764  
     273A      3.753254   274A      3.784605   275A      3.803346  
     276A      4.054605   277A      4.123029   278A      4.128496  
     279A      4.137216   280A      4.520948   281A      4.882800  
     282A      4.900255   283A     23.417486   284A     23.593042  
     285A     23.977597   286A     23.977792   287A     24.009578  
     288A     24.041057   289A     24.135090   290A     24.178108  
     291A     24.179013   292A     24.192815   293A     24.271260  
     294A     24.290774  

    Final Occupation by Irrep:
              A 
    DOCC [    41 ]

  @DF-RKS Final Energy:  -463.23438060793524

   => Energetics <=

    Nuclear Repulsion Energy =            599.9376024460742656
    One-Electron Energy =               -1813.0734024505811703
    Two-Electron Energy =                 797.1580320887574089
    DFT Exchange-Correlation Energy =     -47.2444894077056929
    Empirical Dispersion Energy =          -0.0121232844799570
    VV10 Nonlocal Energy =                  0.0000000000000000
    Total Energy =                       -463.2343806079352930

Computation Completed


Properties will be evaluated at   0.000000,   0.000000,   0.000000 [a0]

Properties computed using the SCF density matrix

  Nuclear Dipole Moment: [e a0]
     X:     0.0000      Y:    -0.0001      Z:     0.0001

  Electronic Dipole Moment: [e a0]
     X:    -0.0000      Y:     0.0001      Z:    -0.0001

  Dipole Moment: [e a0]
     X:    -0.0000      Y:    -0.0000      Z:     0.0000     Total:     0.0001

  Dipole Moment: [D]
     X:    -0.0000      Y:    -0.0001      Z:     0.0001     Total:     0.0001


*** tstop() called on daniele-Precision-5750 at Mon May 31 17:44:52 2021
Module time:
	user time   =     167.24 seconds =       2.79 minutes
	system time =       6.92 seconds =       0.12 minutes
	total time  =         59 seconds =       0.98 minutes
Total time:
	user time   =     167.24 seconds =       2.79 minutes
	system time =       6.92 seconds =       0.12 minutes
	total time  =         59 seconds =       0.98 minutes


Properties will be evaluated at   0.000000,   0.000000,   0.000000 [a0]
OEProp: No title given, name of density matrix used for the following properties is 'SCF density'


  Wiberg Bond Indices using Orthogonal Lowdin Orbitals:

  Irrep: 1 Size: 22 x 22

                 1                   2                   3                   4                   5

    1     0.00000000000000     1.03550607244189     1.41604965639694     0.11876536559492     1.41605620024273
    2     1.03550607244189     0.00000000000000     0.11876318652423     1.41605331246105     0.11876055018567
    3     1.41604965639694     0.11876318652423     0.00000000000000     0.05629687035472     0.12878982790182
    4     0.11876536559492     1.41605331246105     0.05629687035472     0.00000000000000     0.02843486425253
    5     1.41605620024273     0.11876055018567     0.12878982790182     0.02843486425253     0.00000000000000
    6     0.11876565013765     1.41605587009344     0.02843420616127     0.12879010285351     0.05629852501649
    7     0.13291634649511     0.01648732559965     1.52531055214329     0.00560844814243     0.14489360033359
    8     0.01648785400355     0.13291520059930     0.00560827273923     1.52530580755883     0.00357937195077
    9     0.13291476169287     0.01648806277441     0.14489333652998     0.00357925034052     1.52530347809797
   10     0.01648727196285     0.13291691335361     0.00357907950070     0.14489293463442     0.00560839074555
   11     0.13662646443010     0.00907435438621     0.13748828070847     0.00697969393417     0.13748844153730
   12     0.00907510183183     0.13662722754411     0.00697943889244     0.13748840189068     0.00697929312500
   13     0.05496114945199     0.01685745658337     0.81468417931705     0.01126779788586     0.00974135948660
   14     0.01685690958800     0.05496048428073     0.01126719323791     0.81468372094455     0.00161404584699
   15     0.05496099701573     0.01685744949055     0.00974189631166     0.00161361712454     0.81468304844263
   16     0.01685649736911     0.05496212469395     0.00161348557305     0.00974193941038     0.01126873670357
   17     0.01062029736457     0.00112488857713     0.06015585257561     0.00021125712402     0.00245220851471
   18     0.00112482935435     0.01061985381496     0.00021128186634     0.06015643350939     0.00034187335968
   19     0.01062034280787     0.00112483043087     0.00245251043769     0.00034182721575     0.06015519766502
   20     0.00112481582365     0.01061989526330     0.00034184207390     0.00245242567906     0.00021125764684
   21     0.00279094156433     0.00028776957579     0.01123791973705     0.00007919391812     0.01123822970575
   22     0.00028763659701     0.00279102388705     0.00007916895510     0.01123775421280     0.00007923431587

                 6                   7                   8                   9                  10

    1     0.11876565013765     0.13291634649511     0.01648785400355     0.13291476169287     0.01648727196285
    2     1.41605587009344     0.01648732559965     0.13291520059930     0.01648806277441     0.13291691335361
    3     0.02843420616127     1.52531055214329     0.00560827273923     0.14489333652998     0.00357907950070
    4     0.12879010285351     0.00560844814243     1.52530580755883     0.00357925034052     0.14489293463442
    5     0.05629852501649     0.14489360033359     0.00357937195077     1.52530347809797     0.00560839074555
    6     0.00000000000000     0.00357913695308     0.14489287397749     0.00560848236172     1.52530869748422
    7     0.00357913695308     0.00000000000000     0.00075472666482     0.13706019696955     0.00061313433395
    8     0.14489287397749     0.00075472666482     0.00000000000000     0.00061311432484     0.13706113820925
    9     0.00560848236172     0.13706019696955     0.00061311432484     0.00000000000000     0.00075477049139
   10     1.52530869748422     0.00061313433395     0.13706113820925     0.00075477049139     0.00000000000000
   11     0.00697972681367     1.51920932800566     0.00071219086127     1.51921820034937     0.00071213787034
   12     0.13748733744495     0.00071218760429     1.51921590268607     0.00071228481629     1.51921182281477
   13     0.00161333342563     0.05588103886336     0.00099836869708     0.00221708551504     0.00036925582850
   14     0.00974190381652     0.00099835970353     0.05588171965712     0.00036920289527     0.00221703148697
   15     0.01126815697082     0.00221696566827     0.00036925351833     0.05588107204339     0.00099846535098
   16     0.81468203575693     0.00036922058320     0.00221716581432     0.00099831136110     0.05588172770168
   17     0.00034178725343     0.83438908071755     0.00003970684045     0.01131748321595     0.00006035005715
   18     0.00245281068464     0.00003969814201     0.83438768171179     0.00006032218457     0.01131725272922
   19     0.00021129363180     0.01131759368824     0.00006033394398     0.83438870858306     0.00003970739795
   20     0.06015631884219     0.00006034301564     0.01131741810617     0.00003968760737     0.83438826832902
   21     0.00007916054539     0.05903207901692     0.00003630179726     0.05903283912656     0.00003630191144
   22     0.01123751868257     0.00003628855796     0.05903333490239     0.00003628376987     0.05903305215489

                11                  12                  13                  14                  15

    1     0.13662646443010     0.00907510183183     0.05496114945199     0.01685690958800     0.05496099701573
    2     0.00907435438621     0.13662722754411     0.01685745658337     0.05496048428073     0.01685744949055
    3     0.13748828070847     0.00697943889244     0.81468417931705     0.01126719323791     0.00974189631166
    4     0.00697969393417     0.13748840189068     0.01126779788586     0.81468372094455     0.00161361712454
    5     0.13748844153730     0.00697929312500     0.00974135948660     0.00161404584699     0.81468304844263
    6     0.00697972681367     0.13748733744495     0.00161333342563     0.00974190381652     0.01126815697082
    7     1.51920932800566     0.00071218760429     0.05588103886336     0.00099835970353     0.00221696566827
    8     0.00071219086127     1.51921590268607     0.00099836869708     0.05588171965712     0.00036925351833
    9     1.51921820034937     0.00071228481629     0.00221708551504     0.00036920289527     0.05588107204339
   10     0.00071213787034     1.51921182281477     0.00036925582850     0.00221703148697     0.00099846535098
   11     0.00000000000000     0.00305984854970     0.01059295537868     0.00026559701061     0.01059270552984
   12     0.00305984854970     0.00000000000000     0.00026554984724     0.01059294200549     0.00026553605715
   13     0.01059295537868     0.00026554984724     0.00000000000000     0.00103264334586     0.00033619013306
   14     0.00026559701061     0.01059294200549     0.00103264334586     0.00000000000000     0.00005212409041
   15     0.01059270552984     0.00026553605715     0.00033619013306     0.00005212409041     0.00000000000000
   16     0.00026559789731     0.01059282266211     0.00005214106397     0.00033619612971     0.00103281752788
   17     0.05890334916580     0.00005865864411     0.00524799106917     0.00003515064081     0.00026698142689
   18     0.00005868696398     0.05890416838241     0.00003515357316     0.00524812058521     0.00004010220137
   19     0.05890383815638     0.00005867977360     0.00026696923457     0.00004010416641     0.00524802725754
   20     0.00005866710414     0.05890382590219     0.00004010302113     0.00026697545223     0.00003514514203
   21     0.83615115061265     0.00001349231026     0.00023690359679     0.00001594695268     0.00023690279727
   22     0.00001350114988     0.83615036386772     0.00001594978065     0.00023690303122     0.00001594487153

                16                  17                  18                  19                  20

    1     0.01685649736911     0.01062029736457     0.00112482935435     0.01062034280787     0.00112481582365
    2     0.05496212469395     0.00112488857713     0.01061985381496     0.00112483043087     0.01061989526330
    3     0.00161348557305     0.06015585257561     0.00021128186634     0.00245251043769     0.00034184207390
    4     0.00974193941038     0.00021125712402     0.06015643350939     0.00034182721575     0.00245242567906
    5     0.01126873670357     0.00245220851471     0.00034187335968     0.06015519766502     0.00021125764684
    6     0.81468203575693     0.00034178725343     0.00245281068464     0.00021129363180     0.06015631884219
    7     0.00036922058320     0.83438908071755     0.00003969814201     0.01131759368824     0.00006034301564
    8     0.00221716581432     0.00003970684045     0.83438768171179     0.00006033394398     0.01131741810617
    9     0.00099831136110     0.01131748321595     0.00006032218457     0.83438870858306     0.00003968760737
   10     0.05588172770168     0.00006035005715     0.01131725272922     0.00003970739795     0.83438826832902
   11     0.00026559789731     0.05890334916580     0.00005868696398     0.05890383815638     0.00005866710414
   12     0.01059282266211     0.00005865864411     0.05890416838241     0.00005867977360     0.05890382590219
   13     0.00005214106397     0.00524799106917     0.00003515357316     0.00026696923457     0.00004010302113
   14     0.00033619612971     0.00003515064081     0.00524812058521     0.00004010416641     0.00026697545223
   15     0.00103281752788     0.00026698142689     0.00004010220137     0.00524802725754     0.00003514514203
   16     0.00000000000000     0.00004010380092     0.00026696976185     0.00003515366260     0.00524810746357
   17     0.00004010380092     0.00000000000000     0.00000796836537     0.00025448735070     0.00001471811192
   18     0.00026696976185     0.00000796836537     0.00000000000000     0.00001471756072     0.00025448075525
   19     0.00003515366260     0.00025448735070     0.00001471756072     0.00000000000000     0.00000796831229
   20     0.00524810746357     0.00001471811192     0.00025448075525     0.00000796831229     0.00000000000000
   21     0.00001595002173     0.00520291075713     0.00000119203041     0.00520297144041     0.00000119202317
   22     0.00023689841609     0.00000119162115     0.00520308200815     0.00000119200644     0.00520305279607

                21                  22

    1     0.00279094156433     0.00028763659701
    2     0.00028776957579     0.00279102388705
    3     0.01123791973705     0.00007916895510
    4     0.00007919391812     0.01123775421280
    5     0.01123822970575     0.00007923431587
    6     0.00007916054539     0.01123751868257
    7     0.05903207901692     0.00003628855796
    8     0.00003630179726     0.05903333490239
    9     0.05903283912656     0.00003628376987
   10     0.00003630191144     0.05903305215489
   11     0.83615115061265     0.00001350114988
   12     0.00001349231026     0.83615036386772
   13     0.00023690359679     0.00001594978065
   14     0.00001594695268     0.00023690303122
   15     0.00023690279727     0.00001594487153
   16     0.00001595002173     0.00023689841609
   17     0.00520291075713     0.00000119162115
   18     0.00000119203041     0.00520308200815
   19     0.00520297144041     0.00000119200644
   20     0.00000119202317     0.00520305279607
   21     0.00000000000000     0.00000031802395
   22     0.00000031802395     0.00000000000000



  Atomic Valences: 

 #  #
 Irrep: 1
      1:  4.7198552
      2:  4.7198539
      3:  4.4839780
      4:  4.4839810
      5:  4.4839777
      6:  4.4839849
      7:  4.4514857
      8:  4.4514877
      9:  4.4514869
     10:  4.4514877
     11:  4.4533547
     12:  4.4533549
     13:  0.9867136
     14:  0.9867133
     15:  0.9867134
     16:  0.9867140
     17:  0.9907464
     18:  0.9907467
     19:  0.9907465
     20:  0.9907465
     21:  0.9909297
     22:  0.9909297


    Psi4 stopped on: Monday, 31 May 2021 05:44PM
    Psi4 wall time for execution: 0:00:59.16

*** Psi4 exiting successfully. Buy a developer a beer!
