
    -----------------------------------------------------------------------
          Psi4: An Open-Source Ab Initio Electronic Structure Package
                               Psi4 1.3.2 release

                         Git: Rev {HEAD} ecbda83 


    R. M. Parrish, L. A. Burns, D. G. A. Smith, A. C. Simmonett,
    A. E. DePrince III, E. G. Hohenstein, U. Bozkaya, A. Yu. Sokolov,
    R. Di Remigio, R. M. Richard, J. F. Gonthier, A. M. James,
    H. R. McAlexander, A. Kumar, M. Saitow, X. Wang, B. P. Pritchard,
    P. Verma, H. F. Schaefer III, K. Patkowski, R. A. King, E. F. Valeev,
    F. A. Evangelista, J. M. Turney, T. D. Crawford, and C. D. Sherrill,
    J. Chem. Theory Comput. 13(7) pp 3185--3197 (2017).
    (doi: 10.1021/acs.jctc.7b00174)


                         Additional Contributions by
    P. Kraus, H. Kruse, M. H. Lechner, M. C. Schieber, R. A. Shaw,
    A. Alenaizan, R. Galvelis, Z. L. Glick, S. Lehtola, and J. P. Misiewicz

    -----------------------------------------------------------------------


    Psi4 started on: Monday, 31 May 2021 05:39PM

    Process ID: 30504
    Host:       daniele-Precision-5750
    PSIDATADIR: /home/daniele/anaconda3/envs/poltype/share/psi4
    Memory:     500.0 MiB
    Threads:    1
    
  ==> Input File <==

--------------------------------------------------------------------------
molecule { 
0 1
 C    0.740869    0.049551   -0.027528
 C   -0.740869   -0.049540    0.027542
 C    1.364426    1.072751   -0.754014
 C   -1.397529   -0.309426    1.237816
 C    1.546939   -0.877989    0.645841
 C   -1.513838    0.114678   -1.129650
 C    2.752560    1.164980   -0.806955
 C   -2.785572   -0.403853    1.289371
 C    2.935094   -0.784449    0.595674
 C   -2.902082    0.023313   -1.078100
 C    3.542971    0.237043   -0.131604
 C   -3.542970   -0.237054    0.131604
 H    0.756077    1.810999   -1.260044
 H   -0.816626   -0.415180    2.144755
 H    1.081278   -1.688100    1.191780
 H   -1.020729    0.292276   -2.076470
 H    3.216257    1.965594   -1.367551
 H   -3.275548   -0.598649    2.233957
 H    3.541310   -1.513459    1.116552
 H   -3.482016    0.146487   -1.982959
 H    4.621260    0.309188   -0.171654
 H   -4.621259   -0.309211    0.171657
}
memory 700MB
set_num_threads(3)
psi4_io.set_default_path("/home/daniele/PSI4_sctatch/Psi4-biphenyl")
set freeze_core True
E, wfn = energy('wb97x-d/6-311+G*',return_wfn=True)
oeprop(wfn,"WIBERG_LOWDIN_INDICES")
clean()
--------------------------------------------------------------------------

  Memory set to 667.572 MiB by Python driver.
  Threads set to 3 by Python driver.

*** tstart() called on daniele-Precision-5750
*** at Mon May 31 17:39:17 2021

   => Loading Basis Set <=

    Name: 6-311+G*
    Role: ORBITAL
    Keyword: BASIS
    atoms 1-12  entry C          line   130 file /home/daniele/anaconda3/envs/poltype/share/psi4/basis/6-311pgs.gbs 
    atoms 13-22 entry H          line    47 file /home/daniele/anaconda3/envs/poltype/share/psi4/basis/6-311pgs.gbs 


         ---------------------------------------------------------
                                   SCF
               by Justin Turney, Rob Parrish, Andy Simmonett
                          and Daniel G. A. Smith
                              RKS Reference
                        3 Threads,    667 MiB Core
         ---------------------------------------------------------

  ==> Geometry <==

    Molecular point group: c1
    Full point group: C1

    Geometry (in Angstrom), charge = 0, multiplicity = 1:

       Center              X                  Y                   Z               Mass       
    ------------   -----------------  -----------------  -----------------  -----------------
         C            0.740869051719     0.049550970342    -0.027527916795    12.000000000000
         C           -0.740868948281    -0.049540029658     0.027542083205    12.000000000000
         C            1.364426051719     1.072750970342    -0.754013916795    12.000000000000
         C           -1.397528948281    -0.309426029658     1.237816083205    12.000000000000
         C            1.546939051719    -0.877989029658     0.645841083205    12.000000000000
         C           -1.513837948281     0.114677970342    -1.129649916795    12.000000000000
         C            2.752560051719     1.164979970342    -0.806954916795    12.000000000000
         C           -2.785571948281    -0.403853029658     1.289371083205    12.000000000000
         C            2.935094051719    -0.784449029658     0.595674083205    12.000000000000
         C           -2.902081948281     0.023312970342    -1.078099916795    12.000000000000
         C            3.542971051719     0.237042970342    -0.131603916795    12.000000000000
         C           -3.542969948281    -0.237054029658     0.131604083205    12.000000000000
         H            0.756077051719     1.810998970342    -1.260043916795     1.007825032230
         H           -0.816625948281    -0.415180029658     2.144755083205     1.007825032230
         H            1.081278051719    -1.688100029658     1.191780083205     1.007825032230
         H           -1.020728948281     0.292275970342    -2.076469916795     1.007825032230
         H            3.216257051719     1.965593970342    -1.367550916795     1.007825032230
         H           -3.275547948281    -0.598649029658     2.233957083205     1.007825032230
         H            3.541310051719    -1.513459029658     1.116552083205     1.007825032230
         H           -3.482015948281     0.146486970342    -1.982958916795     1.007825032230
         H            4.621260051719     0.309187970342    -0.171653916795     1.007825032230
         H           -4.621258948281    -0.309211029658     0.171657083205     1.007825032230

  Running in c1 symmetry.

  Rotational constants: A =      0.09566  B =      0.01818  C =      0.01600 [cm^-1]
  Rotational constants: A =   2867.89249  B =    545.15606  C =    479.79928 [MHz]
  Nuclear repulsion =  599.951787214358092

  Charge       = 0
  Multiplicity = 1
  Electrons    = 82
  Nalpha       = 41
  Nbeta        = 41

  ==> Algorithm <==

  SCF Algorithm Type is DF.
  DIIS enabled.
  MOM disabled.
  Fractional occupation disabled.
  Guess Type is SAD.
  Energy threshold   = 1.00e-06
  Density threshold  = 1.00e-06
  Integral threshold = 0.00e+00

  ==> Primary Basis <==

  Basis Set: 6-311+G*
    Blend: 6-311+G*
    Number of shells: 150
    Number of basis function: 294
    Number of Cartesian functions: 306
    Spherical Harmonics?: true
    Max angular momentum: 2

  ==> DFT Potential <==

   => Composite Functional: WB97X-D <= 

    wB97X-D Hyb-GGA Exchange-Correlation Functional

    J.-D. Chai and M. Head-Gordon, Phys. Chem. Chem. Phys. 10, 6615 (2008)

    Deriv               =              1
    GGA                 =           TRUE
    Meta                =          FALSE

    Exchange Hybrid     =           TRUE
    MP2 Hybrid          =          FALSE

   => Exchange-Correlation Functionals <=

    1.0000   wB97D range-separated functional

   => Exact (HF) Exchange <=

    0.7780            HF,LR [omega = 0.2000]
    0.2220               HF 

   => Molecular Quadrature <=

    Radial Scheme          =       TREUTLER
    Pruning Scheme         =           FLAT
    Nuclear Scheme         =       TREUTLER

    BS radius alpha        =              1
    Pruning alpha          =              1
    Radial Points          =             75
    Spherical Points       =            302
    Total Points           =         498300
    Total Blocks           =           3710
    Max Points             =            256
    Max Functions          =            264

   => WB97X-D: Empirical Dispersion <=

    Chai and Head-Gordon Dispersion Correction
    Chai, J.-D.; Head-Gordon, M. (2010), J. Chem. Phys., 132: 6615-6620

        s6 =       1.000000

   => Loading Basis Set <=

    Name: (6-311+G* AUX)
    Role: JKFIT
    Keyword: DF_BASIS_SCF
    atoms 1-12  entry C          line   200 file /home/daniele/anaconda3/envs/poltype/share/psi4/basis/heavy-aug-cc-pvtz-jkfit.gbs 
    atoms 13-22 entry H          line   116 file /home/daniele/anaconda3/envs/poltype/share/psi4/basis/heavy-aug-cc-pvtz-jkfit.gbs 

  ==> Pre-Iterations <==

   -------------------------------------------------------
    Irrep   Nso     Nmo     Nalpha   Nbeta   Ndocc  Nsocc
   -------------------------------------------------------
     A        294     294       0       0       0       0
   -------------------------------------------------------
    Total     294     294      41      41      41       0
   -------------------------------------------------------

  ==> Integral Setup <==

  ==> DiskDFJK: Density-Fitted J/K Matrices <==

    J tasked:                  Yes
    K tasked:                  Yes
    wK tasked:                 Yes
    Omega:               2.000E-01
    OpenMP threads:              3
    Integrals threads:           3
    Memory [MiB]:              450
    Algorithm:                Disk
    Integral Cache:           NONE
    Schwarz Cutoff:          1E-12
    Fitting Condition:       1E-10

   => Auxiliary Basis Set <=

  Basis Set: (6-311+G* AUX)
    Blend: HEAVY-AUG-CC-PVTZ-JKFIT
    Number of shells: 460
    Number of basis function: 1548
    Number of Cartesian functions: 1922
    Spherical Harmonics?: true
    Max angular momentum: 4

  Cached 1.8% of DFT collocation blocks in 0.052 [GiB].

  Minimum eigenvalue in the overlap matrix is 1.3013453425E-06.
  Using Symmetric Orthogonalization.

  SCF Guess: Superposition of Atomic Densities via on-the-fly atomic UHF.

  ==> Iterations <==

                           Total Energy        Delta E     RMS |[F,P]|

   @DF-RKS iter SAD:  -462.61073416400757   -4.62611e+02   0.00000e+00 
   @DF-RKS iter   1:  -462.72015712561273   -1.09423e-01   3.27563e-03 DIIS
   @DF-RKS iter   2:  -462.98871877869811   -2.68562e-01   2.36496e-03 DIIS
   @DF-RKS iter   3:  -463.23301288438626   -2.44294e-01   1.65631e-04 DIIS
   @DF-RKS iter   4:  -463.23421409020528   -1.20121e-03   6.16852e-05 DIIS
   @DF-RKS iter   5:  -463.23432079849692   -1.06708e-04   4.39409e-05 DIIS
   @DF-RKS iter   6:  -463.23440778134756   -8.69829e-05   3.31829e-06 DIIS
   @DF-RKS iter   7:  -463.23440842050883   -6.39161e-07   1.66504e-06 DIIS
   @DF-RKS iter   8:  -463.23440854781177   -1.27303e-07   3.39552e-07 DIIS
  Energy and wave function converged.


  ==> Post-Iterations <==

    Orbital Energies [Eh]
    ---------------------

    Doubly Occupied:                                                      

       1A    -10.303036     2A    -10.302740     3A    -10.291995  
       4A    -10.291989     5A    -10.291900     6A    -10.291900  
       7A    -10.291071     8A    -10.291066     9A    -10.291030  
      10A    -10.291029    11A    -10.290615    12A    -10.290615  
      13A     -0.977076    14A     -0.954537    15A     -0.882784  
      16A     -0.854952    17A     -0.847856    18A     -0.824606  
      19A     -0.723837    20A     -0.717673    21A     -0.691566  
      22A     -0.675837    23A     -0.629379    24A     -0.595535  
      25A     -0.563777    26A     -0.556121    27A     -0.534641  
      28A     -0.530539    29A     -0.515350    30A     -0.510492  
      31A     -0.509245    32A     -0.469476    33A     -0.454420  
      34A     -0.453183    35A     -0.437472    36A     -0.422771  
      37A     -0.421434    38A     -0.356816    39A     -0.334833  
      40A     -0.333523    41A     -0.305609  

    Virtual:                                                              

      42A      0.028614    43A      0.051560    44A      0.052604  
      45A      0.058132    46A      0.066691    47A      0.072949  
      48A      0.082158    49A      0.084861    50A      0.085726  
      51A      0.100105    52A      0.100575    53A      0.103380  
      54A      0.111957    55A      0.116257    56A      0.127567  
      57A      0.128266    58A      0.138159    59A      0.145020  
      60A      0.153812    61A      0.160713    62A      0.167674  
      63A      0.169458    64A      0.176909    65A      0.185812  
      66A      0.187835    67A      0.192890    68A      0.196758  
      69A      0.203864    70A      0.205501    71A      0.215340  
      72A      0.215624    73A      0.219043    74A      0.224143  
      75A      0.225713    76A      0.235710    77A      0.237951  
      78A      0.252387    79A      0.254415    80A      0.259721  
      81A      0.264093    82A      0.264768    83A      0.265970  
      84A      0.266418    85A      0.267661    86A      0.272917  
      87A      0.279876    88A      0.280733    89A      0.284065  
      90A      0.294195    91A      0.296160    92A      0.296427  
      93A      0.307478    94A      0.310142    95A      0.316505  
      96A      0.318377    97A      0.326256    98A      0.330074  
      99A      0.339812   100A      0.343460   101A      0.343869  
     102A      0.347053   103A      0.356060   104A      0.363677  
     105A      0.365606   106A      0.379667   107A      0.389272  
     108A      0.390155   109A      0.403784   110A      0.407251  
     111A      0.413583   112A      0.448850   113A      0.460203  
     114A      0.464815   115A      0.528489   116A      0.555685  
     117A      0.592072   118A      0.601379   119A      0.602346  
     120A      0.607577   121A      0.612955   122A      0.615261  
     123A      0.626845   124A      0.634643   125A      0.635993  
     126A      0.639193   127A      0.649170   128A      0.657741  
     129A      0.665182   130A      0.668065   131A      0.678048  
     132A      0.686870   133A      0.701789   134A      0.705407  
     135A      0.711352   136A      0.725716   137A      0.745254  
     138A      0.749466   139A      0.764606   140A      0.766314  
     141A      0.768829   142A      0.778927   143A      0.784178  
     144A      0.792139   145A      0.793821   146A      0.803036  
     147A      0.807638   148A      0.821444   149A      0.823857  
     150A      0.848750   151A      0.851263   152A      0.859679  
     153A      0.882489   154A      0.894039   155A      0.909943  
     156A      0.918622   157A      0.925194   158A      0.928560  
     159A      0.931938   160A      0.936334   161A      0.945230  
     162A      0.954484   163A      0.962924   164A      0.990707  
     165A      0.994388   166A      1.012806   167A      1.026565  
     168A      1.055466   169A      1.064484   170A      1.079941  
     171A      1.088663   172A      1.111974   173A      1.120216  
     174A      1.133879   175A      1.174600   176A      1.210490  
     177A      1.219106   178A      1.231880   179A      1.284535  
     180A      1.286014   181A      1.311084   182A      1.319875  
     183A      1.327640   184A      1.334470   185A      1.396739  
     186A      1.413112   187A      1.415805   188A      1.426404  
     189A      1.574847   190A      1.575859   191A      1.602466  
     192A      1.607132   193A      1.611418   194A      1.631944  
     195A      1.633385   196A      1.643799   197A      1.679884  
     198A      1.750472   199A      1.808299   200A      1.827979  
     201A      1.852409   202A      1.855845   203A      1.858693  
     204A      1.859168   205A      1.898231   206A      1.913252  
     207A      1.923654   208A      1.930668   209A      1.946295  
     210A      1.980665   211A      2.018267   212A      2.022095  
     213A      2.029198   214A      2.032242   215A      2.040826  
     216A      2.055120   217A      2.083348   218A      2.087290  
     219A      2.110436   220A      2.148435   221A      2.164193  
     222A      2.267482   223A      2.328334   224A      2.340530  
     225A      2.355390   226A      2.364325   227A      2.375379  
     228A      2.419197   229A      2.437059   230A      2.453374  
     231A      2.455405   232A      2.458611   233A      2.496231  
     234A      2.513239   235A      2.524221   236A      2.541328  
     237A      2.544867   238A      2.762724   239A      2.765012  
     240A      2.782958   241A      2.783665   242A      2.804156  
     243A      2.830478   244A      2.885361   245A      2.886363  
     246A      2.900135   247A      2.937446   248A      2.942030  
     249A      2.974378   250A      2.987111   251A      3.026878  
     252A      3.034751   253A      3.086387   254A      3.103108  
     255A      3.175341   256A      3.194603   257A      3.272894  
     258A      3.286376   259A      3.302048   260A      3.407163  
     261A      3.409205   262A      3.409275   263A      3.415907  
     264A      3.426992   265A      3.427433   266A      3.430304  
     267A      3.450634   268A      3.513694   269A      3.566616  
     270A      3.653526   271A      3.717461   272A      3.724904  
     273A      3.754832   274A      3.783821   275A      3.803386  
     276A      4.052781   277A      4.122360   278A      4.129356  
     279A      4.137684   280A      4.526344   281A      4.881469  
     282A      4.901310   283A     23.416430   284A     23.592181  
     285A     23.977010   286A     23.977679   287A     24.009291  
     288A     24.040693   289A     24.135654   290A     24.178352  
     291A     24.179276   292A     24.191281   293A     24.271510  
     294A     24.289860  

    Final Occupation by Irrep:
              A 
    DOCC [    41 ]

  @DF-RKS Final Energy:  -463.23440854781177

   => Energetics <=

    Nuclear Repulsion Energy =            599.9517872143580917
    One-Electron Energy =               -1813.0963658343871430
    Two-Electron Energy =                 797.1669835224904546
    DFT Exchange-Correlation Energy =     -47.2446864384516090
    Empirical Dispersion Energy =          -0.0121270118216008
    VV10 Nonlocal Energy =                  0.0000000000000000
    Total Energy =                       -463.2344085478117677

Computation Completed


Properties will be evaluated at   0.000000,   0.000000,   0.000000 [a0]

Properties computed using the SCF density matrix

  Nuclear Dipole Moment: [e a0]
     X:     0.0000      Y:    -0.0001      Z:     0.0000

  Electronic Dipole Moment: [e a0]
     X:    -0.0000      Y:     0.0000      Z:    -0.0000

  Dipole Moment: [e a0]
     X:    -0.0000      Y:    -0.0000      Z:     0.0000     Total:     0.0000

  Dipole Moment: [D]
     X:    -0.0000      Y:    -0.0000      Z:     0.0000     Total:     0.0001


*** tstop() called on daniele-Precision-5750 at Mon May 31 17:40:21 2021
Module time:
	user time   =     179.59 seconds =       2.99 minutes
	system time =       7.29 seconds =       0.12 minutes
	total time  =         64 seconds =       1.07 minutes
Total time:
	user time   =     179.59 seconds =       2.99 minutes
	system time =       7.29 seconds =       0.12 minutes
	total time  =         64 seconds =       1.07 minutes


Properties will be evaluated at   0.000000,   0.000000,   0.000000 [a0]
OEProp: No title given, name of density matrix used for the following properties is 'SCF density'


  Wiberg Bond Indices using Orthogonal Lowdin Orbitals:

  Irrep: 1 Size: 22 x 22

                 1                   2                   3                   4                   5

    1     0.00000000000000     1.03661423821050     1.41535998575280     0.11834948636924     1.41538933477044
    2     1.03661423821050     0.00000000000000     0.11835148536668     1.41539137635870     0.11835028368837
    3     1.41535998575280     0.11835148536668     0.00000000000000     0.02837896411017     0.12870758987660
    4     0.11834948636924     1.41539137635870     0.02837896411017     0.00000000000000     0.05701528405980
    5     1.41538933477044     0.11835028368837     0.12870758987660     0.05701528405980     0.00000000000000
    6     0.11835139203981     1.41535539434492     0.05701426272810     0.12870683318718     0.02837889142921
    7     0.13284440594518     0.01649614492881     1.52559278797029     0.00357449793246     0.14475037470676
    8     0.01649665874517     0.13284512299975     0.00357461529668     1.52556869519013     0.00568026130957
    9     0.13284492979861     0.01649699597751     0.14475145037269     0.00568021659761     1.52556494102458
   10     0.01649691332831     0.13284402712313     0.00568045088804     0.14475004467291     0.00357466685005
   11     0.13653160499491     0.00898574156760     0.13749597881892     0.00714448277638     0.13749721478756
   12     0.00898539405060     0.13653106499270     0.00714452069738     0.13749677138906     0.00714461330686
   13     0.05487434770718     0.01676597147331     0.81466525435755     0.00153768158420     0.00974928987964
   14     0.01676603202066     0.05487603971960     0.00153727938050     0.81466359288380     0.01167750625621
   15     0.05487493871240     0.01676569423275     0.00975053548728     0.01167778378611     0.81466422761970
   16     0.01676677554028     0.05487157530404     0.01167797659910     0.00974950195834     0.00153778919135
   17     0.01062144982913     0.00112250834683     0.06016335487158     0.00034230534893     0.00245440542778
   18     0.00112262306476     0.01062151475313     0.00034224488107     0.06016270463301     0.00021097495758
   19     0.01062133072900     0.00112246715304     0.00245479316311     0.00021098199785     0.06016120928602
   20     0.00112258059471     0.01062157518109     0.00021094317576     0.00245437355890     0.00034230363442
   21     0.00278120257718     0.00028904431973     0.01123034523672     0.00008209553735     0.01123069411661
   22     0.00028909990752     0.00278116879872     0.00008208533552     0.01123058179367     0.00008209848891

                 6                   7                   8                   9                  10

    1     0.11835139203981     0.13284440594518     0.01649665874517     0.13284492979861     0.01649691332831
    2     1.41535539434492     0.01649614492881     0.13284512299975     0.01649699597751     0.13284402712313
    3     0.05701426272810     1.52559278797029     0.00357461529668     0.14475145037269     0.00568045088804
    4     0.12870683318718     0.00357449793246     1.52556869519013     0.00568021659761     0.14475004467291
    5     0.02837889142921     0.14475037470676     0.00568026130957     1.52556494102458     0.00357466685005
    6     0.00000000000000     0.00568057792230     0.14475174743862     0.00357459520806     1.52559005065739
    7     0.00568057792230     0.00000000000000     0.00062326115976     0.13708652492476     0.00073950849554
    8     0.14475174743862     0.00062326115976     0.00000000000000     0.00073946968962     0.13708709037761
    9     0.00357459520806     0.13708652492476     0.00073946968962     0.00000000000000     0.00062328412256
   10     1.52559005065739     0.00073950849554     0.13708709037761     0.00062328412256     0.00000000000000
   11     0.00714438010563     1.51902534852958     0.00071623232111     1.51905403134859     0.00071633692321
   12     0.13749631586143     0.00071622206809     1.51905043504457     0.00071627427345     1.51902812057650
   13     0.01167815640349     0.05589594307767     0.00037019759169     0.00221584542199     0.00103604788195
   14     0.00975063058515     0.00037020472190     0.05589577467600     0.00103597044581     0.00221554170572
   15     0.00153746170121     0.00221554424307     0.00103601786245     0.05589581269115     0.00037014184756
   16     0.81466724341432     0.00103616666713     0.00221540935125     0.00037016809932     0.05589522113628
   17     0.00021098084662     0.83436660493620     0.00006080566464     0.01132003627048     0.00004000980022
   18     0.00245453169837     0.00006082000931     0.83436592567059     0.00004002329951     0.01132028381601
   19     0.00034232044383     0.01132040977013     0.00004003005637     0.83436659812289     0.00006079488157
   20     0.06016207820131     0.00004003462113     0.01132027164802     0.00006080288965     0.83436736887095
   21     0.00008211374757     0.05904308358002     0.00003711916877     0.05904362107405     0.00003711640835
   22     0.01123095035829     0.00003713341371     0.05904372544972     0.00003712478518     0.05904226217794

                11                  12                  13                  14                  15

    1     0.13653160499491     0.00898539405060     0.05487434770718     0.01676603202066     0.05487493871240
    2     0.00898574156760     0.13653106499270     0.01676597147331     0.05487603971960     0.01676569423275
    3     0.13749597881892     0.00714452069738     0.81466525435755     0.00153727938050     0.00975053548728
    4     0.00714448277638     0.13749677138906     0.00153768158420     0.81466359288380     0.01167778378611
    5     0.13749721478756     0.00714461330686     0.00974928987964     0.01167750625621     0.81466422761970
    6     0.00714438010563     0.13749631586143     0.01167815640349     0.00975063058515     0.00153746170121
    7     1.51902534852958     0.00071622206809     0.05589594307767     0.00037020472190     0.00221554424307
    8     0.00071623232111     1.51905043504457     0.00037019759169     0.05589577467600     0.00103601786245
    9     1.51905403134859     0.00071627427345     0.00221584542199     0.00103597044581     0.05589581269115
   10     0.00071633692321     1.51902812057650     0.00103604788195     0.00221554170572     0.00037014184756
   11     0.00000000000000     0.00325517184025     0.01058539146695     0.00026386566612     0.01058552158580
   12     0.00325517184025     0.00000000000000     0.00026390365465     0.01058514925291     0.00026390207832
   13     0.01058539146695     0.00026390365465     0.00000000000000     0.00005755029951     0.00033763248455
   14     0.00026386566612     0.01058514925291     0.00005755029951     0.00000000000000     0.00116230802682
   15     0.01058552158580     0.00026390207832     0.00033763248455     0.00116230802682     0.00000000000000
   16     0.00026390001572     0.01058581739072     0.00116252456202     0.00033764111321     0.00005753957164
   17     0.05890254386655     0.00005653136343     0.00526038906831     0.00004142643035     0.00026674558163
   18     0.00005652241939     0.05890334607273     0.00004142939835     0.00526040167989     0.00003583687251
   19     0.05890381735079     0.00005653661029     0.00026671670479     0.00003583517877     0.00526035409363
   20     0.00005653486119     0.05890272066713     0.00003584510281     0.00026674708785     0.00004142850930
   21     0.83613748224658     0.00001399065301     0.00023645994380     0.00001659527453     0.00023645076668
   22     0.00001398670297     0.83613771618001     0.00001659973182     0.00023644537385     0.00001659391952

                16                  17                  18                  19                  20

    1     0.01676677554028     0.01062144982913     0.00112262306476     0.01062133072900     0.00112258059471
    2     0.05487157530404     0.00112250834683     0.01062151475313     0.00112246715304     0.01062157518109
    3     0.01167797659910     0.06016335487158     0.00034224488107     0.00245479316311     0.00021094317576
    4     0.00974950195834     0.00034230534893     0.06016270463301     0.00021098199785     0.00245437355890
    5     0.00153778919135     0.00245440542778     0.00021097495758     0.06016120928602     0.00034230363442
    6     0.81466724341432     0.00021098084662     0.00245453169837     0.00034232044383     0.06016207820131
    7     0.00103616666713     0.83436660493620     0.00006082000931     0.01132040977013     0.00004003462113
    8     0.00221540935125     0.00006080566464     0.83436592567059     0.00004003005637     0.01132027164802
    9     0.00037016809932     0.01132003627048     0.00004002329951     0.83436659812289     0.00006080288965
   10     0.05589522113628     0.00004000980022     0.01132028381601     0.00006079488157     0.83436736887095
   11     0.00026390001572     0.05890254386655     0.00005652241939     0.05890381735079     0.00005653486119
   12     0.01058581739072     0.00005653136343     0.05890334607273     0.00005653661029     0.05890272066713
   13     0.00116252456202     0.00526038906831     0.00004142939835     0.00026671670479     0.00003584510281
   14     0.00033764111321     0.00004142643035     0.00526040167989     0.00003583517877     0.00026674708785
   15     0.00005753957164     0.00026674558163     0.00003583687251     0.00526035409363     0.00004142850930
   16     0.00000000000000     0.00003584094139     0.00026672802047     0.00004142920164     0.00526028043178
   17     0.00003584094139     0.00000000000000     0.00001499359371     0.00025472991521     0.00000788551929
   18     0.00026672802047     0.00001499359371     0.00000000000000     0.00000788560327     0.00025472947595
   19     0.00004142920164     0.00025472991521     0.00000788560327     0.00000000000000     0.00001499391201
   20     0.00526028043178     0.00000788551929     0.00025472947595     0.00001499391201     0.00000000000000
   21     0.00001659483813     0.00520123153652     0.00000121679540     0.00520140862953     0.00000121703963
   22     0.00023647529856     0.00000121703688     0.00520138837780     0.00000121718492     0.00520112887331

                21                  22

    1     0.00278120257718     0.00028909990752
    2     0.00028904431973     0.00278116879872
    3     0.01123034523672     0.00008208533552
    4     0.00008209553735     0.01123058179367
    5     0.01123069411661     0.00008209848891
    6     0.00008211374757     0.01123095035829
    7     0.05904308358002     0.00003713341371
    8     0.00003711916877     0.05904372544972
    9     0.05904362107405     0.00003712478518
   10     0.00003711640835     0.05904226217794
   11     0.83613748224658     0.00001398670297
   12     0.00001399065301     0.83613771618001
   13     0.00023645994380     0.00001659973182
   14     0.00001659527453     0.00023644537385
   15     0.00023645076668     0.00001659391952
   16     0.00001659483813     0.00023647529856
   17     0.00520123153652     0.00000121703688
   18     0.00000121679540     0.00520138837780
   19     0.00520140862953     0.00000121718492
   20     0.00000121703963     0.00520112887331
   21     0.00000000000000     0.00000033393704
   22     0.00000033393704     0.00000000000000



  Atomic Valences: 

 #  #
 Irrep: 1
      1:  4.7181047
      2:  4.7180994
      3:  4.4841669
      4:  4.4841683
      5:  4.4841640
      6:  4.4841609
      7:  4.4515156
      8:  4.4515189
      9:  4.4515187
     10:  4.4515153
     11:  4.4533361
     12:  4.4533345
     13:  0.9870532
     14:  0.9870525
     15:  0.9870525
     16:  0.9870526
     17:  0.9907460
     18:  0.9907461
     19:  0.9907459
     20:  0.9907458
     21:  0.9909194
     22:  0.9909193


    Psi4 stopped on: Monday, 31 May 2021 05:40PM
    Psi4 wall time for execution: 0:01:03.63

*** Psi4 exiting successfully. Buy a developer a beer!
