
    -----------------------------------------------------------------------
          Psi4: An Open-Source Ab Initio Electronic Structure Package
                               Psi4 1.3.2 release

                         Git: Rev {HEAD} ecbda83 


    R. M. Parrish, L. A. Burns, D. G. A. Smith, A. C. Simmonett,
    A. E. DePrince III, E. G. Hohenstein, U. Bozkaya, A. Yu. Sokolov,
    R. Di Remigio, R. M. Richard, J. F. Gonthier, A. M. James,
    H. R. McAlexander, A. Kumar, M. Saitow, X. Wang, B. P. Pritchard,
    P. Verma, H. F. Schaefer III, K. Patkowski, R. A. King, E. F. Valeev,
    F. A. Evangelista, J. M. Turney, T. D. Crawford, and C. D. Sherrill,
    J. Chem. Theory Comput. 13(7) pp 3185--3197 (2017).
    (doi: 10.1021/acs.jctc.7b00174)


                         Additional Contributions by
    P. Kraus, H. Kruse, M. H. Lechner, M. C. Schieber, R. A. Shaw,
    A. Alenaizan, R. Galvelis, Z. L. Glick, S. Lehtola, and J. P. Misiewicz

    -----------------------------------------------------------------------


    Psi4 started on: Monday, 31 May 2021 05:31PM

    Process ID: 30261
    Host:       daniele-Precision-5750
    PSIDATADIR: /home/daniele/anaconda3/envs/poltype/share/psi4
    Memory:     500.0 MiB
    Threads:    1
    
  ==> Input File <==

--------------------------------------------------------------------------
molecule { 
0 1
 C    0.744402    0.049868   -0.027874
 C   -0.744497   -0.049657    0.027500
 C    1.419555    0.294291   -1.267362
 C   -1.384609   -1.106712    0.751828
 C    1.535950   -0.096557    1.156944
 C   -1.571102    0.909490   -0.642328
 C    2.824192    0.387356   -1.309919
 C   -2.789580   -1.192130    0.799024
 C    2.939750   -0.001797    1.094918
 C   -2.974585    0.807262   -0.585246
 C    3.582198    0.239639   -0.133568
 C   -3.582320   -0.239239    0.132866
 H    0.851966    0.404858   -2.189774
 H   -0.789380   -1.857762    1.268442
 H    1.057955   -0.277154    2.118280
 H   -1.120737    1.730463   -1.197663
 H    3.326315    0.573010   -2.257814
 H   -3.264884   -2.000220    1.352374
 H    3.530908   -0.114388    2.002101
 H   -3.592567    1.542327   -1.097958
 H    4.667628    0.312316   -0.173965
 H   -4.667763   -0.311825    0.173093
}
set optking { 
  frozen_dihedral = ("
    3 1 2 4
    3 1 2 6
    5 1 2 4
    5 1 2 6
  ")
}
set {
  geom_maxiter 400
  g_convergence GAU_LOOSE
  dynamic_level 1
}
memory 700MB
set_num_threads(3)
psi4_io.set_default_path("/home/daniele/PSI4_sctatch/Psi4-biphenyl")
for _ in range(1):
  try:
    set opt_coordinates both
    optimize('wb97x-d/6-311G')
    break
  except OptimizationConvergenceError:
    break
  else:
    try:
      set opt_coordinates cartesian
      optimize('wb97x-d/6-311G')
      break
    except OptimizationConvergenceError:
      pass
clean()
--------------------------------------------------------------------------

  Memory set to 667.572 MiB by Python driver.
  Threads set to 3 by Python driver.
gradient() will perform analytic gradient computation.

*** tstart() called on daniele-Precision-5750
*** at Mon May 31 17:31:12 2021

   => Loading Basis Set <=

    Name: 6-311G
    Role: ORBITAL
    Keyword: BASIS
    atoms 1-12  entry C          line    92 file /home/daniele/anaconda3/envs/poltype/share/psi4/basis/6-311g.gbs 
    atoms 13-22 entry H          line    21 file /home/daniele/anaconda3/envs/poltype/share/psi4/basis/6-311g.gbs 


         ---------------------------------------------------------
                                   SCF
               by Justin Turney, Rob Parrish, Andy Simmonett
                          and Daniel G. A. Smith
                              RKS Reference
                        3 Threads,    667 MiB Core
         ---------------------------------------------------------

  ==> Geometry <==

    Molecular point group: c1
    Full point group: C1

    Geometry (in Angstrom), charge = 0, multiplicity = 1:

       Center              X                  Y                   Z               Mass       
    ------------   -----------------  -----------------  -----------------  -----------------
         C            0.744455968514     0.049716092021    -0.027604587755    12.000000000000
         C           -0.744443031486    -0.049808907979     0.027769412245    12.000000000000
         C            1.419608968514     0.294139092021    -1.267092587755    12.000000000000
         C           -1.384555031486    -1.106863907979     0.752097412245    12.000000000000
         C            1.536003968514    -0.096708907979     1.157213412245    12.000000000000
         C           -1.571048031486     0.909338092021    -0.642058587755    12.000000000000
         C            2.824245968514     0.387204092021    -1.309649587755    12.000000000000
         C           -2.789526031486    -1.192281907979     0.799293412245    12.000000000000
         C            2.939803968514    -0.001948907979     1.095187412245    12.000000000000
         C           -2.974531031486     0.807110092021    -0.584976587755    12.000000000000
         C            3.582251968514     0.239487092021    -0.133298587755    12.000000000000
         C           -3.582266031486    -0.239390907979     0.133135412245    12.000000000000
         H            0.852019968514     0.404706092021    -2.189504587755     1.007825032230
         H           -0.789326031486    -1.857913907979     1.268711412245     1.007825032230
         H            1.058008968514    -0.277305907979     2.118549412245     1.007825032230
         H           -1.120683031486     1.730311092021    -1.197393587755     1.007825032230
         H            3.326368968514     0.572858092021    -2.257544587755     1.007825032230
         H           -3.264830031486    -2.000371907979     1.352643412245     1.007825032230
         H            3.530961968514    -0.114539907979     2.002370412245     1.007825032230
         H           -3.592513031486     1.542175092021    -1.097688587755     1.007825032230
         H            4.667681968514     0.312164092021    -0.173695587755     1.007825032230
         H           -4.667709031486    -0.311976907979     0.173362412245     1.007825032230

  Running in c1 symmetry.

  Rotational constants: A =      0.09266  B =      0.01769  C =      0.01562 [cm^-1]
  Rotational constants: A =   2777.99786  B =    530.26029  C =    468.30033 [MHz]
  Nuclear repulsion =  591.938503949882715

  Charge       = 0
  Multiplicity = 1
  Electrons    = 82
  Nalpha       = 41
  Nbeta        = 41

  ==> Algorithm <==

  SCF Algorithm Type is DF.
  DIIS enabled.
  MOM disabled.
  Fractional occupation disabled.
  Guess Type is SAD.
  Energy threshold   = 1.00e-08
  Density threshold  = 1.00e-08
  Integral threshold = 0.00e+00

  ==> Primary Basis <==

  Basis Set: 6-311G
    Blend: 6-311G
    Number of shells: 114
    Number of basis function: 186
    Number of Cartesian functions: 186
    Spherical Harmonics?: true
    Max angular momentum: 1

  ==> DFT Potential <==

   => Composite Functional: WB97X-D <= 

    wB97X-D Hyb-GGA Exchange-Correlation Functional

    J.-D. Chai and M. Head-Gordon, Phys. Chem. Chem. Phys. 10, 6615 (2008)

    Deriv               =              1
    GGA                 =           TRUE
    Meta                =          FALSE

    Exchange Hybrid     =           TRUE
    MP2 Hybrid          =          FALSE

   => Exchange-Correlation Functionals <=

    1.0000   wB97D range-separated functional

   => Exact (HF) Exchange <=

    0.7780            HF,LR [omega = 0.2000]
    0.2220               HF 

   => Molecular Quadrature <=

    Radial Scheme          =       TREUTLER
    Pruning Scheme         =           FLAT
    Nuclear Scheme         =       TREUTLER

    BS radius alpha        =              1
    Pruning alpha          =              1
    Radial Points          =             75
    Spherical Points       =            302
    Total Points           =         491424
    Total Blocks           =           3632
    Max Points             =            256
    Max Functions          =            153

   => WB97X-D: Empirical Dispersion <=

    Chai and Head-Gordon Dispersion Correction
    Chai, J.-D.; Head-Gordon, M. (2010), J. Chem. Phys., 132: 6615-6620

        s6 =       1.000000

   => Loading Basis Set <=

    Name: (6-311G AUX)
    Role: JKFIT
    Keyword: DF_BASIS_SCF
    atoms 1-12  entry C          line   125 file /home/daniele/anaconda3/envs/poltype/share/psi4/basis/cc-pvtz-jkfit.gbs 
    atoms 13-22 entry H          line    51 file /home/daniele/anaconda3/envs/poltype/share/psi4/basis/cc-pvtz-jkfit.gbs 

  ==> Pre-Iterations <==

   -------------------------------------------------------
    Irrep   Nso     Nmo     Nalpha   Nbeta   Ndocc  Nsocc
   -------------------------------------------------------
     A        186     186       0       0       0       0
   -------------------------------------------------------
    Total     186     186      41      41      41       0
   -------------------------------------------------------

  ==> Integral Setup <==

  ==> DiskDFJK: Density-Fitted J/K Matrices <==

    J tasked:                  Yes
    K tasked:                  Yes
    wK tasked:                 Yes
    Omega:               2.000E-01
    OpenMP threads:              3
    Integrals threads:           3
    Memory [MiB]:              172
    Algorithm:                Disk
    Integral Cache:           NONE
    Schwarz Cutoff:          1E-12
    Fitting Condition:       1E-10

   => Auxiliary Basis Set <=

  Basis Set: (6-311G AUX)
    Blend: CC-PVTZ-JKFIT
    Number of shells: 400
    Number of basis function: 1248
    Number of Cartesian functions: 1502
    Spherical Harmonics?: true
    Max angular momentum: 4

  Cached 25.0% of DFT collocation blocks in 0.391 [GiB].

  Minimum eigenvalue in the overlap matrix is 2.7495461933E-04.
  Using Symmetric Orthogonalization.

  SCF Guess: Superposition of Atomic Densities via on-the-fly atomic UHF.

  ==> Iterations <==

                           Total Energy        Delta E     RMS |[F,P]|

   @DF-RKS iter SAD:  -462.20537789538514   -4.62205e+02   0.00000e+00 
   @DF-RKS iter   1:  -462.81916272226800   -6.13785e-01   3.93624e-03 DIIS
   @DF-RKS iter   2:  -463.01724031170301   -1.98078e-01   2.42115e-03 DIIS
   @DF-RKS iter   3:  -463.12323912430611   -1.05999e-01   2.39116e-04 DIIS
   @DF-RKS iter   4:  -463.12373184746446   -4.92723e-04   2.03198e-04 DIIS
   @DF-RKS iter   5:  -463.12453300000681   -8.01153e-04   1.67441e-05 DIIS
   @DF-RKS iter   6:  -463.12454040095400   -7.40095e-06   3.81362e-06 DIIS
   @DF-RKS iter   7:  -463.12454067292674   -2.71973e-07   1.79149e-06 DIIS
   @DF-RKS iter   8:  -463.12454074288610   -6.99594e-08   2.04689e-07 DIIS
   @DF-RKS iter   9:  -463.12454074639368   -3.50758e-09   9.30984e-08 DIIS
   @DF-RKS iter  10:  -463.12454074664680   -2.53124e-10   3.36571e-08 DIIS
   @DF-RKS iter  11:  -463.12454074669097   -4.41673e-11   2.73727e-09 DIIS
  Energy and wave function converged.


  ==> Post-Iterations <==

    Orbital Energies [Eh]
    ---------------------

    Doubly Occupied:                                                      

       1A    -10.315973     2A    -10.315701     3A    -10.300340  
       4A    -10.300338     5A    -10.300327     6A    -10.300325  
       7A    -10.298783     8A    -10.298781     9A    -10.298697  
      10A    -10.298696    11A    -10.297137    12A    -10.297137  
      13A     -0.970644    14A     -0.950026    15A     -0.880080  
      16A     -0.853534    17A     -0.847503    18A     -0.822019  
      19A     -0.725082    20A     -0.714566    21A     -0.691334  
      22A     -0.675455    23A     -0.626130    24A     -0.594440  
      25A     -0.564940    26A     -0.555028    27A     -0.536305  
      28A     -0.529785    29A     -0.516772    30A     -0.511042  
      31A     -0.510393    32A     -0.464866    33A     -0.453895  
      34A     -0.448702    35A     -0.437588    36A     -0.423382  
      37A     -0.422445    38A     -0.352783    39A     -0.333286  
      40A     -0.331840    41A     -0.302255  

    Virtual:                                                              

      42A      0.031498    43A      0.056813    44A      0.058832  
      45A      0.086530    46A      0.125043    47A      0.131200  
      48A      0.148095    49A      0.163343    50A      0.165073  
      51A      0.184266    52A      0.190734    53A      0.204527  
      54A      0.208448    55A      0.223058    56A      0.229979  
      57A      0.232875    58A      0.299406    59A      0.315820  
      60A      0.341370    61A      0.348176    62A      0.356776  
      63A      0.361411    64A      0.364758    65A      0.376877  
      66A      0.387479    67A      0.406663    68A      0.434300  
      69A      0.452037    70A      0.458305    71A      0.473383  
      72A      0.478471    73A      0.482399    74A      0.486819  
      75A      0.491195    76A      0.505014    77A      0.509109  
      78A      0.511113    79A      0.518425    80A      0.523134  
      81A      0.526307    82A      0.550039    83A      0.554586  
      84A      0.558372    85A      0.569375    86A      0.579861  
      87A      0.603034    88A      0.610626    89A      0.631047  
      90A      0.640404    91A      0.657078    92A      0.664346  
      93A      0.677148    94A      0.678046    95A      0.688783  
      96A      0.695778    97A      0.695834    98A      0.702977  
      99A      0.715519   100A      0.727306   101A      0.733301  
     102A      0.740171   103A      0.744862   104A      0.755845  
     105A      0.793939   106A      0.831750   107A      0.850007  
     108A      0.851819   109A      0.855204   110A      0.863780  
     111A      0.875087   112A      0.878420   113A      0.911361  
     114A      0.916290   115A      0.925664   116A      0.954426  
     117A      0.956483   118A      0.978798   119A      0.991464  
     120A      1.004846   121A      1.023155   122A      1.102034  
     123A      1.106518   124A      1.144621   125A      1.145736  
     126A      1.167837   127A      1.347027   128A      1.375205  
     129A      2.284343   130A      2.313258   131A      2.344367  
     132A      2.348058   133A      2.408256   134A      2.409755  
     135A      2.431406   136A      2.452440   137A      2.591227  
     138A      2.621682   139A      2.629633   140A      2.632269  
     141A      2.667075   142A      2.669035   143A      2.670907  
     144A      2.713222   145A      2.783409   146A      2.783450  
     147A      2.819512   148A      2.824030   149A      2.835271  
     150A      2.846042   151A      2.851300   152A      2.880010  
     153A      2.936631   154A      2.941440   155A      2.943931  
     156A      2.988203   157A      3.004404   158A      3.010847  
     159A      3.091199   160A      3.143101   161A      3.194153  
     162A      3.215057   163A      3.228856   164A      3.232442  
     165A      3.233185   166A      3.281791   167A      3.292733  
     168A      3.328334   169A      3.346084   170A      3.350650  
     171A      3.365150   172A      3.385495   173A      3.469849  
     174A      3.600469   175A     23.226317   176A     23.312868  
     177A     23.466360   178A     23.470460   179A     23.484760  
     180A     23.523095   181A     23.697900   182A     23.734547  
     183A     23.735905   184A     23.754933   185A     23.971866  
     186A     23.978603  

    Final Occupation by Irrep:
              A 
    DOCC [    41 ]

  @DF-RKS Final Energy:  -463.12454074669097

   => Energetics <=

    Nuclear Repulsion Energy =            591.9385039498827155
    One-Electron Energy =               -1796.8146315730650713
    Two-Electron Energy =                 788.8678158769693027
    DFT Exchange-Correlation Energy =     -47.1042491598755646
    Empirical Dispersion Energy =          -0.0119798406024881
    VV10 Nonlocal Energy =                  0.0000000000000000
    Total Energy =                       -463.1245407466910819

Computation Completed


Properties will be evaluated at   0.000000,   0.000000,   0.000000 [a0]

Properties computed using the SCF density matrix

  Nuclear Dipole Moment: [e a0]
     X:    -0.0000      Y:     0.0001      Z:    -0.0002

  Electronic Dipole Moment: [e a0]
     X:     0.0000      Y:    -0.0001      Z:     0.0002

  Dipole Moment: [e a0]
     X:    -0.0000      Y:     0.0000      Z:    -0.0000     Total:     0.0000

  Dipole Moment: [D]
     X:    -0.0000      Y:     0.0000      Z:    -0.0001     Total:     0.0001


*** tstop() called on daniele-Precision-5750 at Mon May 31 17:31:39 2021
Module time:
	user time   =      73.88 seconds =       1.23 minutes
	system time =       3.20 seconds =       0.05 minutes
	total time  =         27 seconds =       0.45 minutes
Total time:
	user time   =      73.88 seconds =       1.23 minutes
	system time =       3.20 seconds =       0.05 minutes
	total time  =         27 seconds =       0.45 minutes

*** tstart() called on daniele-Precision-5750
*** at Mon May 31 17:31:39 2021


         ------------------------------------------------------------
                                   SCF GRAD                          
                          Rob Parrish, Justin Turney,                
                       Andy Simmonett, and Alex Sokolov              
         ------------------------------------------------------------

  ==> Geometry <==

    Molecular point group: c1
    Full point group: C1

    Geometry (in Angstrom), charge = 0, multiplicity = 1:

       Center              X                  Y                   Z               Mass       
    ------------   -----------------  -----------------  -----------------  -----------------
         C            0.744455968514     0.049716092021    -0.027604587755    12.000000000000
         C           -0.744443031486    -0.049808907979     0.027769412245    12.000000000000
         C            1.419608968514     0.294139092021    -1.267092587755    12.000000000000
         C           -1.384555031486    -1.106863907979     0.752097412245    12.000000000000
         C            1.536003968514    -0.096708907979     1.157213412245    12.000000000000
         C           -1.571048031486     0.909338092021    -0.642058587755    12.000000000000
         C            2.824245968514     0.387204092021    -1.309649587755    12.000000000000
         C           -2.789526031486    -1.192281907979     0.799293412245    12.000000000000
         C            2.939803968514    -0.001948907979     1.095187412245    12.000000000000
         C           -2.974531031486     0.807110092021    -0.584976587755    12.000000000000
         C            3.582251968514     0.239487092021    -0.133298587755    12.000000000000
         C           -3.582266031486    -0.239390907979     0.133135412245    12.000000000000
         H            0.852019968514     0.404706092021    -2.189504587755     1.007825032230
         H           -0.789326031486    -1.857913907979     1.268711412245     1.007825032230
         H            1.058008968514    -0.277305907979     2.118549412245     1.007825032230
         H           -1.120683031486     1.730311092021    -1.197393587755     1.007825032230
         H            3.326368968514     0.572858092021    -2.257544587755     1.007825032230
         H           -3.264830031486    -2.000371907979     1.352643412245     1.007825032230
         H            3.530961968514    -0.114539907979     2.002370412245     1.007825032230
         H           -3.592513031486     1.542175092021    -1.097688587755     1.007825032230
         H            4.667681968514     0.312164092021    -0.173695587755     1.007825032230
         H           -4.667709031486    -0.311976907979     0.173362412245     1.007825032230

  Nuclear repulsion =  591.938503949882715

  ==> Basis Set <==

  Basis Set: 6-311G
    Blend: 6-311G
    Number of shells: 114
    Number of basis function: 186
    Number of Cartesian functions: 186
    Spherical Harmonics?: true
    Max angular momentum: 1

  ==> DFJKGrad: Density-Fitted SCF Gradients <==

    Gradient:                    1
    J tasked:                  Yes
    K tasked:                  Yes
    wK tasked:                 Yes
    Omega:               2.000E-01
    OpenMP threads:              3
    Integrals threads:           3
    Memory [MiB]:              500
    Schwarz Cutoff:          0E+00
    Fitting Condition:       1E-10

   => Auxiliary Basis Set <=

  Basis Set: (6-311G AUX)
    Blend: CC-PVTZ-JKFIT
    Number of shells: 400
    Number of basis function: 1248
    Number of Cartesian functions: 1502
    Spherical Harmonics?: true
    Max angular momentum: 4

  ==> DFT Potential <==

   => Composite Functional: WB97X-D <= 

    wB97X-D Hyb-GGA Exchange-Correlation Functional

    J.-D. Chai and M. Head-Gordon, Phys. Chem. Chem. Phys. 10, 6615 (2008)

    Deriv               =              1
    GGA                 =           TRUE
    Meta                =          FALSE

    Exchange Hybrid     =           TRUE
    MP2 Hybrid          =          FALSE

   => Exchange-Correlation Functionals <=

    1.0000   wB97D range-separated functional

   => Exact (HF) Exchange <=

    0.7780            HF,LR [omega = 0.2000]
    0.2220               HF 

   => Molecular Quadrature <=

    Radial Scheme          =       TREUTLER
    Pruning Scheme         =           FLAT
    Nuclear Scheme         =       TREUTLER

    BS radius alpha        =              1
    Pruning alpha          =              1
    Radial Points          =             75
    Spherical Points       =            302
    Total Points           =         491424
    Total Blocks           =           3632
    Max Points             =            256
    Max Functions          =            153


  -Total Gradient:
     Atom            X                  Y                   Z
    ------   -----------------  -----------------  -----------------
       1       -0.018573496789    -0.001235379732     0.000716428470
       2        0.018575745193     0.001210594207    -0.000677753309
       3       -0.002391349684     0.001211967113    -0.018175345268
       4        0.003008631157    -0.015727074970     0.008941545392
       5       -0.000854200377    -0.001426281723     0.018271144361
       6        0.000229833466     0.015969348301    -0.009082363338
       7        0.006118058068     0.001358109958    -0.008974846677
       8       -0.005818367776    -0.007900520075     0.004822023308
       9        0.006877981219    -0.000488808496     0.008486252904
      10       -0.007173438929     0.007035081942    -0.004340438806
      11        0.007145419225     0.000475779391    -0.000272215003
      12       -0.007146180976    -0.000470131489     0.000265223378
      13       -0.000309183526     0.001458928295    -0.005034098611
      14        0.000423655318    -0.003909966358     0.003489819994
      15        0.000253473660    -0.001467822817     0.005042198321
      16       -0.000367291301     0.003910127805    -0.003483181461
      17        0.002549817795     0.000985932129    -0.003906286907
      18       -0.002455551755    -0.003268763562     0.002464914110
      19        0.002945486340    -0.000621179665     0.003707473809
      20       -0.003038234565     0.002898055493    -0.002256258636
      21        0.004726082501     0.000320267976    -0.000175663711
      22       -0.004726885584    -0.000318295136     0.000171469861


*** tstop() called on daniele-Precision-5750 at Mon May 31 17:31:52 2021
Module time:
	user time   =      40.62 seconds =       0.68 minutes
	system time =       0.54 seconds =       0.01 minutes
	total time  =         13 seconds =       0.22 minutes
Total time:
	user time   =     114.51 seconds =       1.91 minutes
	system time =       3.74 seconds =       0.06 minutes
	total time  =         40 seconds =       0.67 minutes

			-----------------------------------------
			 OPTKING 2.0: for geometry optimizations 
			  - R.A. King,  Bethel University        
			-----------------------------------------
	At level 1: Red. Int., RFO, no backsteps, dynamic trust

	Internal coordinates to be generated automatically.
	Detected frag 1 with atoms:  1 2 3 4 5 6 7 8 9 10 11 12 13 14 15 16 17 18 19 20
	 21 22
	---Fragment 1 Bond Connectivity---
	 1 : 2 3 5
	 2 : 1 4 6
	 3 : 1 7 13
	 4 : 2 8 14
	 5 : 1 9 15
	 6 : 2 10 16
	 7 : 3 11 17
	 8 : 4 12 18
	 9 : 5 11 19
	 10 : 6 12 20
	 11 : 7 9 21
	 12 : 8 10 22
	 13 : 3
	 14 : 4
	 15 : 5
	 16 : 6
	 17 : 7
	 18 : 8
	 19 : 9
	 20 : 10
	 21 : 11
	 22 : 12

	Assuming in current code that numbering for constraints corresponds to unified fragment.
	Frozen dihedral atom list: 
	     3     1     2     4
	     3     1     2     6
	     5     1     2     4
	     5     1     2     6
	---Fragment 1 Geometry and Gradient---
	 C           1.4068178930        0.0939497979       -0.0521651107
	 C          -1.4067934455       -0.0941251947        0.0524765838
	 C           2.6826721557        0.5558423267       -2.3944579665
	 C          -2.6164298151       -2.0916696442        1.4212581288
	 C           2.9026268281       -0.1827533500        2.1868164179
	 C          -2.9688505094        1.7183999494       -1.2133148874
	 C           5.3370513914        0.7317096886       -2.4748790412
	 C          -5.2714402193       -2.2530862704        1.5104456430
	 C           5.5554243630       -0.0036829023        2.0696042652
	 C          -5.6210490012        1.5252170270       -1.1054455407
	 C           6.7694751329        0.4525650145       -0.2518978238
	 C          -6.7695017080       -0.4523832530        0.2515894667
	 H           1.6100843939        0.7647836752       -4.1375640213
	 H          -1.4916100232       -3.5109484508        2.3975171014
	 H           1.9993471888       -0.5240322191        4.0034781724
	 H          -2.1177840030        3.2698140758       -2.2627459452
	 H           6.2859263427        1.0825449027       -4.2661409869
	 H          -6.1696346057       -3.7801550551        2.5561255945
	 H           6.6725510799       -0.2164490565        3.7839316809
	 H          -6.7888657316        2.9142885614       -2.0743308019
	 H           8.8206405612        0.5899046401       -0.3282370901
	 H          -8.8206917028       -0.5895509135        0.3276074796
	            -0.0185734968       -0.0012353797        0.0007164285
	             0.0185757452        0.0012105942       -0.0006777533
	            -0.0023913497        0.0012119671       -0.0181753453
	             0.0030086312       -0.0157270750        0.0089415454
	            -0.0008542004       -0.0014262817        0.0182711444
	             0.0002298335        0.0159693483       -0.0090823633
	             0.0061180581        0.0013581100       -0.0089748467
	            -0.0058183678       -0.0079005201        0.0048220233
	             0.0068779812       -0.0004888085        0.0084862529
	            -0.0071734389        0.0070350819       -0.0043404388
	             0.0071454192        0.0004757794       -0.0002722150
	            -0.0071461810       -0.0004701315        0.0002652234
	            -0.0003091835        0.0014589283       -0.0050340986
	             0.0004236553       -0.0039099664        0.0034898200
	             0.0002534737       -0.0014678228        0.0050421983
	            -0.0003672913        0.0039101278       -0.0034831815
	             0.0025498178        0.0009859321       -0.0039062869
	            -0.0024555518       -0.0032687636        0.0024649141
	             0.0029454863       -0.0006211797        0.0037074738
	            -0.0030382346        0.0028980555       -0.0022562586
	             0.0047260825        0.0003202680       -0.0001756637
	            -0.0047268856       -0.0003182951        0.0001714699

	Previous optimization step data not found.  Starting new optimization.

	---Fragment 1 Intrafragment Coordinates---
	 - Coordinate -           - BOHR/RAD -       - ANG/DEG -
	 R(1,2)           =         2.821831	       1.493249
	 R(1,3)           =         2.706933	       1.432447
	 R(1,5)           =         2.706852	       1.432404
	 R(2,4)           =         2.706837	       1.432396
	 R(2,6)           =         2.706935	       1.432448
	 R(3,7)           =         2.661414	       1.408360
	 R(3,13)          =         2.057309	       1.088681
	 R(4,8)           =         2.661408	       1.408356
	 R(4,14)          =         2.057341	       1.088698
	 R(5,9)           =         2.661417	       1.408361
	 R(5,15)          =         2.057339	       1.088697
	 R(6,10)          =         2.661412	       1.408358
	 R(6,16)          =         2.057305	       1.088679
	 R(7,11)          =         2.659211	       1.407194
	 R(7,17)          =         2.057199	       1.088623
	 R(8,12)          =         2.659218	       1.407197
	 R(8,18)          =         2.057216	       1.088632
	 R(9,11)          =         2.659220	       1.407199
	 R(9,19)          =         2.057221	       1.088635
	 R(10,12)         =         2.659209	       1.407193
	 R(10,20)         =         2.057196	       1.088621
	 R(11,21)         =         2.057175	       1.088610
	 R(12,22)         =         2.057176	       1.088611
	 B(1,2,4)         =         2.110075	     120.898396
	 B(1,2,6)         =         2.109948	     120.891122
	 B(1,3,7)         =         2.103083	     120.497780
	 B(1,3,13)        =         2.099880	     120.314241
	 B(1,5,9)         =         2.103082	     120.497744
	 B(1,5,15)        =         2.099860	     120.313119
	 B(2,1,3)         =         2.109957	     120.891622
	 B(2,1,5)         =         2.110061	     120.897569
	 B(2,4,8)         =         2.103091	     120.498225
	 B(2,4,14)        =         2.099855	     120.312836
	 B(2,6,10)        =         2.103082	     120.497726
	 B(2,6,16)        =         2.099883	     120.314457
	 B(3,1,5)         =         2.063168	     118.210809
	 B(3,7,11)        =         2.100229	     120.334269
	 B(3,7,17)        =         2.091634	     119.841829
	 B(4,2,6)         =         2.063162	     118.210482
	 B(4,8,12)        =         2.100246	     120.335235
	 B(4,8,18)        =         2.091640	     119.842142
	 B(5,9,11)        =         2.100245	     120.335162
	 B(5,9,19)        =         2.091636	     119.841938
	 B(6,10,12)       =         2.100233	     120.334494
	 B(6,10,20)       =         2.091635	     119.841845
	 B(7,3,13)        =         2.080207	     119.187094
	 B(7,11,9)        =         2.096563	     120.124183
	 B(7,11,21)       =         2.093312	     119.937953
	 B(8,4,14)        =         2.080224	     119.188068
	 B(8,12,10)       =         2.096556	     120.123787
	 B(8,12,22)       =         2.093314	     119.938039
	 B(9,5,15)        =         2.080228	     119.188260
	 B(9,11,21)       =         2.093311	     119.937864
	 B(10,6,16)       =         2.080204	     119.186929
	 B(10,12,22)      =         2.093316	     119.938173
	 B(11,7,17)       =         2.091320	     119.823838
	 B(11,9,19)       =         2.091303	     119.822836
	 B(12,8,18)       =         2.091298	     119.822559
	 B(12,10,20)      =         2.091316	     119.823597
	 D(1,2,4,8)       =         3.141042	     179.968459
	 D(1,2,4,14)      =        -0.006527	      -0.373941
	 D(1,2,6,10)      =         3.140965	     179.964056
	 D(1,2,6,16)      =        -0.006661	      -0.381636
	 D(1,3,7,11)      =         0.001199	       0.068701
	 D(1,3,7,17)      =         3.141178	     179.976238
	 D(1,5,9,11)      =         0.001167	       0.066881
	 D(1,5,9,19)      =         3.141153	     179.974830
	 D(2,1,3,7)       =         3.140974	     179.964580
	 D(2,1,3,13)      =        -0.006639	      -0.380415
	 D(2,1,5,9)       =         3.141034	     179.967995
	 D(2,1,5,15)      =        -0.006552	      -0.375415
	 D(2,4,8,12)      =         0.001174	       0.067276
	 D(2,4,8,18)      =         3.141160	     179.975191
	 D(2,6,10,12)     =         0.001194	       0.068428
	 D(2,6,10,20)     =         3.141176	     179.976141
	*D(3,1,2,4)       =         2.336753	     133.886112
	*D(3,1,2,6)       =        -0.804868	     -46.115564
	 D(3,1,5,9)       =        -0.000509	      -0.029182
	 D(3,1,5,15)      =         3.135090	     179.627408
	 D(3,7,11,9)      =        -0.000543	      -0.031088
	 D(3,7,11,21)     =         3.141093	     179.971382
	*D(4,2,1,5)       =        -0.804789	     -46.110990
	 D(4,2,6,10)      =        -0.000656	      -0.037576
	 D(4,2,6,16)      =         3.134903	     179.616732
	 D(4,8,12,10)     =        -0.000641	      -0.036745
	 D(4,8,12,22)     =         3.140896	     179.960102
	*D(5,1,2,6)       =         2.336775	     133.887334
	 D(5,1,3,7)       =        -0.000667	      -0.038243
	 D(5,1,3,13)      =         3.134904	     179.616762
	 D(5,9,11,7)      =        -0.000642	      -0.036763
	 D(5,9,11,21)     =         3.140908	     179.960768
	 D(6,2,4,8)       =        -0.000522	      -0.029909
	 D(6,2,4,14)      =         3.135095	     179.627691
	 D(6,10,12,8)     =        -0.000544	      -0.031166
	 D(6,10,12,22)    =         3.141104	     179.971987
	 D(7,11,9,19)     =        -3.140628	    -179.944729
	 D(8,12,10,20)    =        -3.140526	    -179.938896
	 D(9,11,7,17)     =        -3.140522	    -179.938642
	 D(10,12,8,18)    =        -3.140627	    -179.944678
	 D(11,7,3,13)     =        -3.134440	    -179.590162
	 D(11,9,5,15)     =        -3.134499	    -179.593541
	 D(12,8,4,14)     =        -3.134509	    -179.594144
	 D(12,10,6,16)    =        -3.134432	    -179.589747
	 D(13,3,7,17)     =         0.005539	       0.317376
	 D(14,4,8,18)     =         0.005476	       0.313771
	 D(15,5,9,19)     =         0.005487	       0.314407
	 D(16,6,10,20)    =         0.005550	       0.317966
	 D(17,7,11,21)    =         0.001114	       0.063828
	 D(18,8,12,22)    =         0.000911	       0.052169
	 D(19,9,11,21)    =         0.000922	       0.052802
	 D(20,10,12,22)   =         0.001122	       0.064257

	Current energy   :      -463.1245407467

	Generating empirical Hessian (Schlegel '84) for each fragment.
	Taking RFO optimization step.
	Going to follow RFO solution 1.
	Using RFO vector 1.
	Norm of target step-size    0.17953
	Projected energy change by RFO approximation:        -0.0117798941

	Back-transformation to cartesian coordinates...
	Could not converge backtransformation.
	Using first guess instead.

	Back-transformation to cartesian coordinates to adjust frozen coordinates...
	Successfully converged to displaced geometry.

	--- Internal Coordinate Step in ANG or DEG, aJ/ANG or AJ/DEG ---
	 ---------------------------------------------------------------------------
	   Coordinate                Previous        Force       Change         New 
	   ----------                --------       ------       ------       ------
	    1 R(1,2)          =      1.493249    -0.070137    -0.013130     1.480119
	    2 R(1,3)          =      1.432447    -0.221763    -0.034565     1.397883
	    3 R(1,5)          =      1.432404    -0.221574    -0.034530     1.397874
	    4 R(2,4)          =      1.432396    -0.221534    -0.034523     1.397874
	    5 R(2,6)          =      1.432448    -0.221759    -0.034564     1.397884
	    6 R(3,7)          =      1.408360    -0.125456    -0.017681     1.390679
	    7 R(3,13)         =      1.088681    -0.037689    -0.006413     1.082268
	    8 R(4,8)          =      1.408356    -0.125412    -0.017673     1.390683
	    9 R(4,14)         =      1.088698    -0.037774    -0.006427     1.082271
	   10 R(5,9)          =      1.408361    -0.125444    -0.017678     1.390683
	   11 R(5,15)         =      1.088697    -0.037771    -0.006426     1.082271
	   12 R(6,10)         =      1.408358    -0.125448    -0.017680     1.390678
	   13 R(6,16)         =      1.088679    -0.037679    -0.006412     1.082267
	   14 R(7,11)         =      1.407194    -0.116269    -0.015836     1.391359
	   15 R(7,17)         =      1.088623    -0.039097    -0.006886     1.081736
	   16 R(8,12)         =      1.407197    -0.116331    -0.015844     1.391354
	   17 R(8,18)         =      1.088632    -0.039146    -0.006895     1.081737
	   18 R(9,11)         =      1.407199    -0.116344    -0.015846     1.391353
	   19 R(9,19)         =      1.088635    -0.039161    -0.006897     1.081737
	   20 R(10,12)        =      1.407193    -0.116253    -0.015833     1.391359
	   21 R(10,20)        =      1.088621    -0.039086    -0.006884     1.081737
	   22 R(11,21)        =      1.088610    -0.039053    -0.006931     1.081679
	   23 R(12,22)        =      1.088611    -0.039057    -0.006932     1.081679
	   24 B(1,2,4)        =    120.898396    -0.000096    -0.184299   120.714097
	   25 B(1,2,6)        =    120.891122    -0.000094    -0.179972   120.711149
	   26 B(1,3,7)        =    120.497780     0.000099     0.220700   120.718481
	   27 B(1,3,13)       =    120.314241    -0.000244    -0.968232   119.346009
	   28 B(1,5,9)        =    120.497744     0.000099     0.221075   120.718819
	   29 B(1,5,15)       =    120.313119    -0.000244    -0.967088   119.346031
	   30 B(2,1,3)        =    120.891622    -0.000094    -0.180298   120.711324
	   31 B(2,1,5)        =    120.897569    -0.000095    -0.183697   120.713872
	   32 B(2,4,8)        =    120.498225     0.000099     0.220670   120.718895
	   33 B(2,4,14)       =    120.312836    -0.000244    -0.966810   119.346026
	   34 B(2,6,10)       =    120.497726     0.000099     0.220748   120.718473
	   35 B(2,6,16)       =    120.314457    -0.000244    -0.968366   119.346091
	   36 B(3,1,5)        =    118.210809     0.000190     0.363995   118.574805
	   37 B(3,7,11)       =    120.334269    -0.000065    -0.095027   120.239243
	   38 B(3,7,17)       =    119.841829    -0.000000    -0.096099   119.745730
	   39 B(4,2,6)        =    118.210482     0.000190     0.364272   118.574753
	   40 B(4,8,12)       =    120.335235    -0.000065    -0.096206   120.239029
	   41 B(4,8,18)       =    119.842142    -0.000000    -0.096027   119.746115
	   42 B(5,9,11)       =    120.335162    -0.000065    -0.096118   120.239044
	   43 B(5,9,19)       =    119.841938    -0.000000    -0.095864   119.746074
	   44 B(6,10,12)      =    120.334494    -0.000065    -0.095223   120.239270
	   45 B(6,10,20)      =    119.841845    -0.000000    -0.096125   119.745720
	   46 B(7,3,13)       =    119.187094     0.000145     0.740702   119.927796
	   47 B(7,11,9)       =    120.124183    -0.000257    -0.614776   119.509407
	   48 B(7,11,21)      =    119.937953     0.000129     0.307517   120.245470
	   49 B(8,4,14)       =    119.188068     0.000145     0.739308   119.927375
	   50 B(8,12,10)      =    120.123787    -0.000257    -0.614411   119.509377
	   51 B(8,12,22)      =    119.938039     0.000128     0.307105   120.245145
	   52 B(9,5,15)       =    119.188260     0.000145     0.739183   119.927444
	   53 B(9,11,21)      =    119.937864     0.000129     0.307259   120.245123
	   54 B(10,6,16)      =    119.186929     0.000145     0.740790   119.927719
	   55 B(10,12,22)     =    119.938173     0.000129     0.307305   120.245479
	   56 B(11,7,17)      =    119.823838     0.000065     0.189473   120.013310
	   57 B(11,9,19)      =    119.822836     0.000066     0.190338   120.013174
	   58 B(12,8,18)      =    119.822559     0.000066     0.190589   120.013148
	   59 B(12,10,20)     =    119.823597     0.000065     0.189697   120.013294
	   60 D(1,2,4,8)      =    179.968459    -0.000000    -0.034965   179.933494
	   61 D(1,2,4,14)     =     -0.373941    -0.000006    -0.702990    -1.076931
	   62 D(1,2,6,10)     =    179.964056    -0.000000    -0.031612   179.932444
	   63 D(1,2,6,16)     =     -0.381636    -0.000006    -0.697184    -1.078820
	   64 D(1,3,7,11)     =      0.068701     0.000001     0.066612     0.135313
	   65 D(1,3,7,17)     =    179.976238    -0.000003    -0.317526   179.658712
	   66 D(1,5,9,11)     =      0.066881     0.000001     0.066809     0.133690
	   67 D(1,5,9,19)     =    179.974830    -0.000003    -0.316392   179.658438
	   68 D(2,1,3,7)      =    179.964580    -0.000000    -0.031331   179.933249
	   69 D(2,1,3,13)     =     -0.380415    -0.000006    -0.697441    -1.077856
	   70 D(2,1,5,9)      =    179.967995    -0.000000    -0.035305   179.932690
	   71 D(2,1,5,15)     =     -0.375415    -0.000006    -0.702511    -1.077926
	   72 D(2,4,8,12)     =      0.067276     0.000001     0.066624     0.133900
	   73 D(2,4,8,18)     =    179.975191    -0.000003    -0.316646   179.658545
	   74 D(2,6,10,12)    =      0.068428     0.000001     0.066675     0.135103
	   75 D(2,6,10,20)    =    179.976141    -0.000003    -0.317494   179.658647
	   76 *D(3,1,2,4)     =    133.886112    -0.000000    -0.000000   133.886112
	   77 *D(3,1,2,6)     =    -46.115564     0.000000     0.000000   -46.115564
	   78 D(3,1,5,9)      =     -0.029182    -0.000000    -0.035290    -0.064472
	   79 D(3,1,5,15)     =    179.627408    -0.000006    -0.702496   178.924912
	   80 D(3,7,11,9)     =     -0.031088    -0.000000    -0.034622    -0.065710
	   81 D(3,7,11,21)    =    179.971382    -0.000000    -0.036291   179.935091
	   82 *D(4,2,1,5)     =    -46.110990     0.000000    -0.000000   -46.110990
	   83 D(4,2,6,10)     =     -0.037576    -0.000000    -0.031621    -0.069197
	   84 D(4,2,6,16)     =    179.616732    -0.000006    -0.697193   178.919539
	   85 D(4,8,12,10)    =     -0.036745    -0.000000    -0.030950    -0.067695
	   86 D(4,8,12,22)    =    179.960102    -0.000000    -0.028791   179.931311
	   87 *D(5,1,2,6)     =    133.887334    -0.000000     0.000000   133.887334
	   88 D(5,1,3,7)      =     -0.038243    -0.000000    -0.031346    -0.069589
	   89 D(5,1,3,13)     =    179.616762    -0.000006    -0.697456   178.919306
	   90 D(5,9,11,7)     =     -0.036763    -0.000000    -0.030913    -0.067676
	   91 D(5,9,11,21)    =    179.960768    -0.000000    -0.029245   179.931523
	   92 D(6,2,4,8)      =     -0.029909    -0.000000    -0.034956    -0.064865
	   93 D(6,2,4,14)     =    179.627691    -0.000006    -0.702981   178.924710
	   94 D(6,10,12,8)    =     -0.031166    -0.000000    -0.034525    -0.065691
	   95 D(6,10,12,22)   =    179.971987    -0.000000    -0.036685   179.935302
	   96 D(7,11,9,19)    =   -179.944729     0.000003     0.353580  -179.591149
	   97 D(8,12,10,20)   =   -179.938896     0.000003     0.350941  -179.587955
	   98 D(9,11,7,17)    =   -179.938642     0.000003     0.350813  -179.587829
	   99 D(10,12,8,18)   =   -179.944678     0.000003     0.353613  -179.591065
	  100 D(11,7,3,13)    =   -179.590162     0.000006     0.742438  -178.847724
	  101 D(11,9,5,15)    =   -179.593541     0.000006     0.743699  -178.849843
	  102 D(12,8,4,14)    =   -179.594144     0.000006     0.744320  -178.849824
	  103 D(12,10,6,16)   =   -179.589747     0.000006     0.741972  -178.847775
	  104 D(13,3,7,17)    =      0.317376     0.000003     0.358300     0.675676
	  105 D(14,4,8,18)    =      0.313771     0.000003     0.361049     0.674821
	  106 D(15,5,9,19)    =      0.314407     0.000003     0.360498     0.674905
	  107 D(16,6,10,20)   =      0.317966     0.000003     0.357803     0.675769
	  108 D(17,7,11,21)   =      0.063828     0.000003     0.349144     0.412972
	  109 D(18,8,12,22)   =      0.052169     0.000003     0.355773     0.407941
	  110 D(19,9,11,21)   =      0.052802     0.000003     0.355248     0.408050
	  111 D(20,10,12,22)  =      0.064257     0.000003     0.348781     0.413039
	 ---------------------------------------------------------------------------
	Successfully symmetrized geometry.

  ==> Convergence Check <==

  Measures of convergence in internal coordinates in au.
  Criteria marked as inactive (o), active & met (*), and active & unmet ( ).
  --------------------------------------------------------------------------------------------- ~
   Step     Total Energy     Delta E     MAX Force     RMS Force      MAX Disp      RMS Disp    ~
  --------------------------------------------------------------------------------------------- ~
    Convergence Criteria             o    2.50e-03 *    1.70e-03 *    1.00e-02 *    6.70e-03 *  ~
  --------------------------------------------------------------------------------------------- ~
      1    -463.12454075   -4.63e+02 o    2.69e-02      6.73e-03      6.53e-02      1.70e-02    ~
  ---------------------------------------------------------------------------------------------

	Writing optimization data to binary file.
	Structure for next step:
	Cartesian Geometry (in Angstrom)
	    C     0.7379048307   0.0493241797  -0.0274214168
	    C    -0.7379026336  -0.0493267718   0.0274613016
	    C     1.3928960774   0.2879558140  -1.2390801552
	    C    -1.3585628134  -1.0825367394   0.7354930269
	    C     1.5066385072  -0.0941918253   1.1312434148
	    C    -1.5409709412   0.8887712508  -0.6276216047
	    C     2.7794317896   0.3820451618  -1.2905929800
	    C    -2.7451956013  -1.1745338977   0.7882675351
	    C     2.8933595541  -0.0029045228   1.0795687121
	    C    -2.9276009740   0.7954267102  -0.5773162865
	    C     3.5351834009   0.2362904464  -0.1315098904
	    C    -3.5351886630  -0.2362617390   0.1314409253
	    H     0.8111250728   0.3835458689  -2.1466637626
	    H    -0.7488092041  -1.8257031977   1.2327003015
	    H     1.0114959791  -0.2618188652   2.0788957140
	    H    -1.0738068729   1.7039321590  -1.1648116793
	    H     3.2703727249   0.5615851341  -2.2376389652
	    H    -3.2089316133  -1.9837801898   1.3361954129
	    H     3.4725238074  -0.1109515337   1.9867898242
	    H    -3.5339711994   1.5331780976  -1.0854423810
	    H     4.6137089452   0.3084123711  -0.1716336757
	    H    -4.6137178658  -0.3083608864   0.1715026987
			--------------------------
			 OPTKING Finished Execution 
			--------------------------

    Structure for next step:
    Molecular point group: c1
    Full point group: C1

    Geometry (in Angstrom), charge = 0, multiplicity = 1:

    C            0.737905482024     0.049319402682    -0.027415469544
    C           -0.737901988113    -0.049331549188     0.027467249086
    C            1.392896731269     0.287951037934    -1.239074212732
    C           -1.358562170283    -1.082541520862     0.735498977128
    C            1.506639161501    -0.094196602854     1.131249366595
    C           -1.540970298797     0.888766477054    -0.627615659832
    C            2.779432448915     0.382040386091    -1.290587037669
    C           -2.745194963727    -1.174538679564     0.788273485555
    C            2.893360213931    -0.002909300048     1.079574663682
    C           -2.927600337137     0.795421936124    -0.577310341393
    C            3.535184063160     0.236285670076    -0.131503943523
    C           -3.535188028480    -0.236266517165     0.131446873212
    H            0.811125724432     0.383541093153    -2.146657823622
    H           -0.748808558627    -1.825707982124     1.232706253766
    H            1.011496631533    -0.261823643451     2.078901669522
    H           -1.073806228749     1.703927388496    -1.164805736525
    H            3.270373386210     0.561580359113    -2.237633026661
    H           -3.208930977520    -1.983784974842     1.336201365578
    H            3.472524469502    -0.110956311387     1.986795779361
    H           -3.533970564853     1.533173326434    -1.085436437932
    H            4.613709611744     0.308407595057    -0.171627728989
    H           -4.613717235550    -0.308365664836     0.171508646789

gradient() will perform analytic gradient computation.

*** tstart() called on daniele-Precision-5750
*** at Mon May 31 17:31:52 2021

   => Loading Basis Set <=

    Name: 6-311G
    Role: ORBITAL
    Keyword: BASIS
    atoms 1-12  entry C          line    92 file /home/daniele/anaconda3/envs/poltype/share/psi4/basis/6-311g.gbs 
    atoms 13-22 entry H          line    21 file /home/daniele/anaconda3/envs/poltype/share/psi4/basis/6-311g.gbs 


         ---------------------------------------------------------
                                   SCF
               by Justin Turney, Rob Parrish, Andy Simmonett
                          and Daniel G. A. Smith
                              RKS Reference
                        3 Threads,    667 MiB Core
         ---------------------------------------------------------

  ==> Geometry <==

    Molecular point group: c1
    Full point group: C1

    Geometry (in Angstrom), charge = 0, multiplicity = 1:

       Center              X                  Y                   Z               Mass       
    ------------   -----------------  -----------------  -----------------  -----------------
         C            0.737905482024     0.049319402682    -0.027415469544    12.000000000000
         C           -0.737901988113    -0.049331549188     0.027467249086    12.000000000000
         C            1.392896731269     0.287951037934    -1.239074212732    12.000000000000
         C           -1.358562170283    -1.082541520862     0.735498977128    12.000000000000
         C            1.506639161501    -0.094196602854     1.131249366595    12.000000000000
         C           -1.540970298797     0.888766477054    -0.627615659832    12.000000000000
         C            2.779432448915     0.382040386091    -1.290587037669    12.000000000000
         C           -2.745194963727    -1.174538679564     0.788273485555    12.000000000000
         C            2.893360213931    -0.002909300048     1.079574663682    12.000000000000
         C           -2.927600337137     0.795421936124    -0.577310341393    12.000000000000
         C            3.535184063160     0.236285670076    -0.131503943523    12.000000000000
         C           -3.535188028480    -0.236266517165     0.131446873212    12.000000000000
         H            0.811125724432     0.383541093153    -2.146657823622     1.007825032230
         H           -0.748808558627    -1.825707982124     1.232706253766     1.007825032230
         H            1.011496631533    -0.261823643451     2.078901669522     1.007825032230
         H           -1.073806228749     1.703927388496    -1.164805736525     1.007825032230
         H            3.270373386210     0.561580359113    -2.237633026661     1.007825032230
         H           -3.208930977520    -1.983784974842     1.336201365578     1.007825032230
         H            3.472524469502    -0.110956311387     1.986795779361     1.007825032230
         H           -3.533970564853     1.533173326434    -1.085436437932     1.007825032230
         H            4.613709611744     0.308407595057    -0.171627728989     1.007825032230
         H           -4.613717235550    -0.308365664836     0.171508646789     1.007825032230

  Running in c1 symmetry.

  Rotational constants: A =      0.09599  B =      0.01824  C =      0.01612 [cm^-1]
  Rotational constants: A =   2877.80467  B =    546.72557  C =    483.17415 [MHz]
  Nuclear repulsion =  601.092054682217508

  Charge       = 0
  Multiplicity = 1
  Electrons    = 82
  Nalpha       = 41
  Nbeta        = 41

  ==> Algorithm <==

  SCF Algorithm Type is DF.
  DIIS enabled.
  MOM disabled.
  Fractional occupation disabled.
  Guess Type is READ.
  Energy threshold   = 1.00e-08
  Density threshold  = 1.00e-08
  Integral threshold = 0.00e+00

  ==> Primary Basis <==

  Basis Set: 6-311G
    Blend: 6-311G
    Number of shells: 114
    Number of basis function: 186
    Number of Cartesian functions: 186
    Spherical Harmonics?: true
    Max angular momentum: 1

  ==> DFT Potential <==

   => Composite Functional: WB97X-D <= 

    wB97X-D Hyb-GGA Exchange-Correlation Functional

    J.-D. Chai and M. Head-Gordon, Phys. Chem. Chem. Phys. 10, 6615 (2008)

    Deriv               =              1
    GGA                 =           TRUE
    Meta                =          FALSE

    Exchange Hybrid     =           TRUE
    MP2 Hybrid          =          FALSE

   => Exchange-Correlation Functionals <=

    1.0000   wB97D range-separated functional

   => Exact (HF) Exchange <=

    0.7780            HF,LR [omega = 0.2000]
    0.2220               HF 

   => Molecular Quadrature <=

    Radial Scheme          =       TREUTLER
    Pruning Scheme         =           FLAT
    Nuclear Scheme         =       TREUTLER

    BS radius alpha        =              1
    Pruning alpha          =              1
    Radial Points          =             75
    Spherical Points       =            302
    Total Points           =         491412
    Total Blocks           =           3634
    Max Points             =            256
    Max Functions          =            156

   => WB97X-D: Empirical Dispersion <=

    Chai and Head-Gordon Dispersion Correction
    Chai, J.-D.; Head-Gordon, M. (2010), J. Chem. Phys., 132: 6615-6620

        s6 =       1.000000

   => Loading Basis Set <=

    Name: (6-311G AUX)
    Role: JKFIT
    Keyword: DF_BASIS_SCF
    atoms 1-12  entry C          line   125 file /home/daniele/anaconda3/envs/poltype/share/psi4/basis/cc-pvtz-jkfit.gbs 
    atoms 13-22 entry H          line    51 file /home/daniele/anaconda3/envs/poltype/share/psi4/basis/cc-pvtz-jkfit.gbs 

   => Loading Basis Set <=

    Name: 6-311G
    Role: ORBITAL
    Keyword: BASIS
    atoms 1-12  entry C          line    92 file /home/daniele/anaconda3/envs/poltype/share/psi4/basis/6-311g.gbs 
    atoms 13-22 entry H          line    21 file /home/daniele/anaconda3/envs/poltype/share/psi4/basis/6-311g.gbs 

  Reading orbitals from file 180, no projection.

  ==> Pre-Iterations <==

   -------------------------------------------------------
    Irrep   Nso     Nmo     Nalpha   Nbeta   Ndocc  Nsocc
   -------------------------------------------------------
     A        186     186       0       0       0       0
   -------------------------------------------------------
    Total     186     186      41      41      41       0
   -------------------------------------------------------

  ==> Integral Setup <==

  ==> DiskDFJK: Density-Fitted J/K Matrices <==

    J tasked:                  Yes
    K tasked:                  Yes
    wK tasked:                 Yes
    Omega:               2.000E-01
    OpenMP threads:              3
    Integrals threads:           3
    Memory [MiB]:              173
    Algorithm:                Disk
    Integral Cache:           NONE
    Schwarz Cutoff:          1E-12
    Fitting Condition:       1E-10

   => Auxiliary Basis Set <=

  Basis Set: (6-311G AUX)
    Blend: CC-PVTZ-JKFIT
    Number of shells: 400
    Number of basis function: 1248
    Number of Cartesian functions: 1502
    Spherical Harmonics?: true
    Max angular momentum: 4

  Cached 25.0% of DFT collocation blocks in 0.384 [GiB].

  Minimum eigenvalue in the overlap matrix is 2.3427707855E-04.
  Using Symmetric Orthogonalization.

  SCF Guess: Orbitals guess was supplied from a previous computation.

  ==> Iterations <==

                           Total Energy        Delta E     RMS |[F,P]|

   @DF-RKS iter   0:  -463.29166197580918   -4.63292e+02   8.23935e-04 
   @DF-RKS iter   1:  -463.12937725786117    1.62285e-01   1.75246e-04 DIIS
   @DF-RKS iter   2:  -463.12953664595426   -1.59388e-04   1.70943e-04 DIIS
   @DF-RKS iter   3:  -463.13009418833377   -5.57542e-04   3.07638e-05 DIIS
   @DF-RKS iter   4:  -463.13011034617966   -1.61578e-05   7.10210e-06 DIIS
   @DF-RKS iter   5:  -463.13011137873667   -1.03256e-06   8.23470e-07 DIIS
   @DF-RKS iter   6:  -463.13011140763263   -2.88960e-08   2.90214e-07 DIIS
   @DF-RKS iter   7:  -463.13011140963175   -1.99913e-09   1.18541e-07 DIIS
   @DF-RKS iter   8:  -463.13011141006803   -4.36273e-10   1.57839e-08 DIIS
   @DF-RKS iter   9:  -463.13011141008593   -1.79057e-11   7.65821e-09 DIIS
  Energy and wave function converged.


  ==> Post-Iterations <==

    Orbital Energies [Eh]
    ---------------------

    Doubly Occupied:                                                      

       1A    -10.304771     2A    -10.304475     3A    -10.293108  
       4A    -10.293104     5A    -10.292998     6A    -10.292997  
       7A    -10.291990     8A    -10.291989     9A    -10.291949  
      10A    -10.291949    11A    -10.291684    12A    -10.291683  
      13A     -0.982758    14A     -0.960398    15A     -0.887121  
      16A     -0.858267    17A     -0.851265    18A     -0.828805  
      19A     -0.726620    20A     -0.720275    21A     -0.694272  
      22A     -0.678736    23A     -0.633275    24A     -0.598155  
      25A     -0.561651    26A     -0.561161    27A     -0.536316  
      28A     -0.534898    29A     -0.518124    30A     -0.514581  
      31A     -0.512209    32A     -0.471388    33A     -0.455345  
      34A     -0.454886    35A     -0.437148    36A     -0.422734  
      37A     -0.421538    38A     -0.356527    39A     -0.335241  
      40A     -0.333572    41A     -0.306232  

    Virtual:                                                              

      42A      0.038475    43A      0.061185    44A      0.063260  
      45A      0.093056    46A      0.126265    47A      0.132790  
      48A      0.149505    49A      0.165366    50A      0.166696  
      51A      0.186634    52A      0.194582    53A      0.207307  
      54A      0.213578    55A      0.225417    56A      0.237784  
      57A      0.245198    58A      0.311241    59A      0.329108  
      60A      0.347797    61A      0.360678    62A      0.363724  
      63A      0.370050    64A      0.370273    65A      0.386617  
      66A      0.391860    67A      0.411833    68A      0.440656  
      69A      0.453264    70A      0.470545    71A      0.476685  
      72A      0.484411    73A      0.485070    74A      0.493732  
      75A      0.496463    76A      0.512622    77A      0.516144  
      78A      0.516704    79A      0.521100    80A      0.526582  
      81A      0.533523    82A      0.550641    83A      0.556622  
      84A      0.560988    85A      0.578897    86A      0.582120  
      87A      0.614674    88A      0.614844    89A      0.640860  
      90A      0.653712    91A      0.668280    92A      0.673948  
      93A      0.685466    94A      0.685696    95A      0.695080  
      96A      0.699462    97A      0.701046    98A      0.709479  
      99A      0.723020   100A      0.724409   101A      0.739652  
     102A      0.747000   103A      0.751795   104A      0.756784  
     105A      0.794121   106A      0.843868   107A      0.857016  
     108A      0.863336   109A      0.870229   110A      0.873567  
     111A      0.892062   112A      0.895506   113A      0.914234  
     114A      0.922856   115A      0.940759   116A      0.967333  
     117A      0.976408   118A      0.997981   119A      1.008476  
     120A      1.016748   121A      1.033984   122A      1.108991  
     123A      1.113332   124A      1.147343   125A      1.156550  
     126A      1.177259   127A      1.349045   128A      1.385174  
     129A      2.287332   130A      2.323614   131A      2.356948  
     132A      2.363152   133A      2.417630   134A      2.418885  
     135A      2.441127   136A      2.467315   137A      2.600599  
     138A      2.637674   139A      2.639127   140A      2.639743  
     141A      2.672238   142A      2.676404   143A      2.679007  
     144A      2.719502   145A      2.762657   146A      2.762721  
     147A      2.795904   148A      2.812024   149A      2.833908  
     150A      2.849359   151A      2.852820   152A      2.880942  
     153A      2.930504   154A      2.934359   155A      2.935784  
     156A      2.989538   157A      3.008569   158A      3.014483  
     159A      3.089710   160A      3.174626   161A      3.211273  
     162A      3.215951   163A      3.242785   164A      3.267925  
     165A      3.278439   166A      3.308902   167A      3.314945  
     168A      3.360788   169A      3.374006   170A      3.386525  
     171A      3.402882   172A      3.421096   173A      3.484751  
     174A      3.625367   175A     23.227220   176A     23.308589  
     177A     23.473207   178A     23.476199   179A     23.496166  
     180A     23.528775   181A     23.724742   182A     23.757164  
     183A     23.766836   184A     23.777754   185A     24.018192  
     186A     24.026349  

    Final Occupation by Irrep:
              A 
    DOCC [    41 ]

  @DF-RKS Final Energy:  -463.13011141008593

   => Energetics <=

    Nuclear Repulsion Energy =            601.0920546822175083
    One-Electron Energy =               -1815.0034618694473920
    Two-Electron Energy =                 798.0410856852034840
    DFT Exchange-Correlation Energy =     -47.2476412579312779
    Empirical Dispersion Energy =          -0.0121486501281892
    VV10 Nonlocal Energy =                  0.0000000000000000
    Total Energy =                       -463.1301114100859877

Computation Completed


Properties will be evaluated at   0.000000,   0.000000,   0.000000 [a0]

Properties computed using the SCF density matrix

  Nuclear Dipole Moment: [e a0]
     X:    -0.0000      Y:    -0.0000      Z:    -0.0000

  Electronic Dipole Moment: [e a0]
     X:     0.0000      Y:     0.0000      Z:     0.0000

  Dipole Moment: [e a0]
     X:     0.0000      Y:    -0.0000      Z:    -0.0000     Total:     0.0000

  Dipole Moment: [D]
     X:     0.0000      Y:    -0.0000      Z:    -0.0000     Total:     0.0000


*** tstop() called on daniele-Precision-5750 at Mon May 31 17:32:15 2021
Module time:
	user time   =      65.06 seconds =       1.08 minutes
	system time =       2.68 seconds =       0.04 minutes
	total time  =         23 seconds =       0.38 minutes
Total time:
	user time   =     179.89 seconds =       3.00 minutes
	system time =       6.47 seconds =       0.11 minutes
	total time  =         63 seconds =       1.05 minutes

*** tstart() called on daniele-Precision-5750
*** at Mon May 31 17:32:15 2021


         ------------------------------------------------------------
                                   SCF GRAD                          
                          Rob Parrish, Justin Turney,                
                       Andy Simmonett, and Alex Sokolov              
         ------------------------------------------------------------

  ==> Geometry <==

    Molecular point group: c1
    Full point group: C1

    Geometry (in Angstrom), charge = 0, multiplicity = 1:

       Center              X                  Y                   Z               Mass       
    ------------   -----------------  -----------------  -----------------  -----------------
         C            0.737905482024     0.049319402682    -0.027415469544    12.000000000000
         C           -0.737901988113    -0.049331549188     0.027467249086    12.000000000000
         C            1.392896731269     0.287951037934    -1.239074212732    12.000000000000
         C           -1.358562170283    -1.082541520862     0.735498977128    12.000000000000
         C            1.506639161501    -0.094196602854     1.131249366595    12.000000000000
         C           -1.540970298797     0.888766477054    -0.627615659832    12.000000000000
         C            2.779432448915     0.382040386091    -1.290587037669    12.000000000000
         C           -2.745194963727    -1.174538679564     0.788273485555    12.000000000000
         C            2.893360213931    -0.002909300048     1.079574663682    12.000000000000
         C           -2.927600337137     0.795421936124    -0.577310341393    12.000000000000
         C            3.535184063160     0.236285670076    -0.131503943523    12.000000000000
         C           -3.535188028480    -0.236266517165     0.131446873212    12.000000000000
         H            0.811125724432     0.383541093153    -2.146657823622     1.007825032230
         H           -0.748808558627    -1.825707982124     1.232706253766     1.007825032230
         H            1.011496631533    -0.261823643451     2.078901669522     1.007825032230
         H           -1.073806228749     1.703927388496    -1.164805736525     1.007825032230
         H            3.270373386210     0.561580359113    -2.237633026661     1.007825032230
         H           -3.208930977520    -1.983784974842     1.336201365578     1.007825032230
         H            3.472524469502    -0.110956311387     1.986795779361     1.007825032230
         H           -3.533970564853     1.533173326434    -1.085436437932     1.007825032230
         H            4.613709611744     0.308407595057    -0.171627728989     1.007825032230
         H           -4.613717235550    -0.308365664836     0.171508646789     1.007825032230

  Nuclear repulsion =  601.092054682217508

  ==> Basis Set <==

  Basis Set: 6-311G
    Blend: 6-311G
    Number of shells: 114
    Number of basis function: 186
    Number of Cartesian functions: 186
    Spherical Harmonics?: true
    Max angular momentum: 1

  ==> DFJKGrad: Density-Fitted SCF Gradients <==

    Gradient:                    1
    J tasked:                  Yes
    K tasked:                  Yes
    wK tasked:                 Yes
    Omega:               2.000E-01
    OpenMP threads:              3
    Integrals threads:           3
    Memory [MiB]:              500
    Schwarz Cutoff:          0E+00
    Fitting Condition:       1E-10

   => Auxiliary Basis Set <=

  Basis Set: (6-311G AUX)
    Blend: CC-PVTZ-JKFIT
    Number of shells: 400
    Number of basis function: 1248
    Number of Cartesian functions: 1502
    Spherical Harmonics?: true
    Max angular momentum: 4

  ==> DFT Potential <==

   => Composite Functional: WB97X-D <= 

    wB97X-D Hyb-GGA Exchange-Correlation Functional

    J.-D. Chai and M. Head-Gordon, Phys. Chem. Chem. Phys. 10, 6615 (2008)

    Deriv               =              1
    GGA                 =           TRUE
    Meta                =          FALSE

    Exchange Hybrid     =           TRUE
    MP2 Hybrid          =          FALSE

   => Exchange-Correlation Functionals <=

    1.0000   wB97D range-separated functional

   => Exact (HF) Exchange <=

    0.7780            HF,LR [omega = 0.2000]
    0.2220               HF 

   => Molecular Quadrature <=

    Radial Scheme          =       TREUTLER
    Pruning Scheme         =           FLAT
    Nuclear Scheme         =       TREUTLER

    BS radius alpha        =              1
    Pruning alpha          =              1
    Radial Points          =             75
    Spherical Points       =            302
    Total Points           =         491412
    Total Blocks           =           3634
    Max Points             =            256
    Max Functions          =            156


  -Total Gradient:
     Atom            X                  Y                   Z
    ------   -----------------  -----------------  -----------------
       1       -0.000737588766    -0.000042774467     0.000033199292
       2        0.000738660886     0.000040024272    -0.000027707252
       3        0.000045696764    -0.000952856046     0.001990809250
       4       -0.000066557649     0.001397775096    -0.001716988913
       5       -0.000228132900     0.000939557876    -0.001991700704
       6        0.000247344588    -0.001377567090     0.001705528440
       7       -0.000705825802    -0.000376931742     0.002159598891
       8        0.000640512737     0.001833151210    -0.001237338355
       9       -0.000904804173     0.000270669035    -0.002100560531
      10        0.000970889372    -0.001725570821     0.001176157399
      11       -0.001675770578    -0.000113947872     0.000064109002
      12        0.001675356774     0.000111347101    -0.000059705978
      13       -0.000047800839     0.000130233863     0.000080872249
      14        0.000037433384     0.000130773936     0.000087298177
      15       -0.000036467664    -0.000137647192    -0.000076414683
      16        0.000047015914    -0.000125644744    -0.000087969699
      17        0.000022785853    -0.000029996731     0.000096078421
      18       -0.000025802044     0.000072970582    -0.000067988313
      19        0.000012582737     0.000031260914    -0.000097328015
      20       -0.000009618122    -0.000074824694     0.000070266424
      21        0.000136550369     0.000010482449    -0.000004307445
      22       -0.000136462229    -0.000010465673     0.000004076482


*** tstop() called on daniele-Precision-5750 at Mon May 31 17:32:30 2021
Module time:
	user time   =      42.50 seconds =       0.71 minutes
	system time =       0.55 seconds =       0.01 minutes
	total time  =         15 seconds =       0.25 minutes
Total time:
	user time   =     222.39 seconds =       3.71 minutes
	system time =       7.02 seconds =       0.12 minutes
	total time  =         78 seconds =       1.30 minutes

			-----------------------------------------
			 OPTKING 2.0: for geometry optimizations 
			  - R.A. King,  Bethel University        
			-----------------------------------------
	At level 1: Red. Int., RFO, no backsteps, dynamic trust

	Previous internal coordinate definitions found.
	---Fragment 1 Geometry and Gradient---
	 C           1.3944392675        0.0932001637       -0.0518077290
	 C          -1.3944326650       -0.0932231173        0.0519055782
	 C           2.6321933431        0.5441485992       -2.3415109112
	 C          -2.5673104262       -2.0457069939        1.3898916323
	 C           2.8471353851       -0.1780057813        2.1377514825
	 C          -2.9120118322        1.6795252311       -1.1860217091
	 C           5.2523661127        0.7219516986       -2.4388560423
	 C          -5.1876666424       -2.2195564281        1.4896209997
	 C           5.4676583866       -0.0054977803        2.0401004463
	 C          -5.5323628420        1.5031296135       -1.0909584346
	 C           6.6805296825        0.4465152038       -0.2485064377
	 C          -6.6805371758       -0.4464790101        0.2483985904
	 H           1.5328054725        0.7247876239       -4.0565953717
	 H          -1.4150430962       -3.4500880713        2.3294772128
	 H           1.9114516104       -0.4947749793        3.9285547972
	 H          -2.0291996841        3.2199561019       -2.2011638314
	 H           6.1801100279        1.0612330762       -4.2285135897
	 H          -6.0640007030       -3.7488102943        2.5250546294
	 H           6.5621202113       -0.2096770404        3.7544998902
	 H          -6.6782365030        2.8972776898       -2.0511775943
	 H           8.7186475886        0.5828058897       -0.3243294033
	 H          -8.7186619955       -0.5827266530        0.3241043706
	            -0.0007375888       -0.0000427745        0.0000331993
	             0.0007386609        0.0000400243       -0.0000277073
	             0.0000456968       -0.0009528560        0.0019908092
	            -0.0000665576        0.0013977751       -0.0017169889
	            -0.0002281329        0.0009395579       -0.0019917007
	             0.0002473446       -0.0013775671        0.0017055284
	            -0.0007058258       -0.0003769317        0.0021595989
	             0.0006405127        0.0018331512       -0.0012373384
	            -0.0009048042        0.0002706690       -0.0021005605
	             0.0009708894       -0.0017255708        0.0011761574
	            -0.0016757706       -0.0001139479        0.0000641090
	             0.0016753568        0.0001113471       -0.0000597060
	            -0.0000478008        0.0001302339        0.0000808722
	             0.0000374334        0.0001307739        0.0000872982
	            -0.0000364677       -0.0001376472       -0.0000764147
	             0.0000470159       -0.0001256447       -0.0000879697
	             0.0000227859       -0.0000299967        0.0000960784
	            -0.0000258020        0.0000729706       -0.0000679883
	             0.0000125827        0.0000312609       -0.0000973280
	            -0.0000096181       -0.0000748247        0.0000702664
	             0.0001365504        0.0000104824       -0.0000043074
	            -0.0001364622       -0.0000104657        0.0000040765

	---Fragment 1 Intrafragment Coordinates---
	 - Coordinate -           - BOHR/RAD -       - ANG/DEG -
	 R(1,2)           =         2.797019	       1.480119
	 R(1,3)           =         2.641615	       1.397883
	 R(1,5)           =         2.641600	       1.397874
	 R(2,4)           =         2.641598	       1.397874
	 R(2,6)           =         2.641618	       1.397884
	 R(3,7)           =         2.628002	       1.390679
	 R(3,13)          =         2.045189	       1.082268
	 R(4,8)           =         2.628010	       1.390683
	 R(4,14)          =         2.045196	       1.082271
	 R(5,9)           =         2.628010	       1.390683
	 R(5,15)          =         2.045195	       1.082271
	 R(6,10)          =         2.628001	       1.390678
	 R(6,16)          =         2.045189	       1.082267
	 R(7,11)          =         2.629287	       1.391359
	 R(7,17)          =         2.044186	       1.081736
	 R(8,12)          =         2.629277	       1.391354
	 R(8,18)          =         2.044187	       1.081737
	 R(9,11)          =         2.629276	       1.391353
	 R(9,19)          =         2.044187	       1.081737
	 R(10,12)         =         2.629288	       1.391359
	 R(10,20)         =         2.044186	       1.081737
	 R(11,21)         =         2.044077	       1.081679
	 R(12,22)         =         2.044076	       1.081679
	 B(1,2,4)         =         2.106858	     120.714097
	 B(1,2,6)         =         2.106807	     120.711149
	 B(1,3,7)         =         2.106935	     120.718481
	 B(1,3,13)        =         2.082981	     119.346009
	 B(1,5,9)         =         2.106941	     120.718819
	 B(1,5,15)        =         2.082981	     119.346031
	 B(2,1,3)         =         2.106810	     120.711324
	 B(2,1,5)         =         2.106855	     120.713872
	 B(2,4,8)         =         2.106942	     120.718895
	 B(2,4,14)        =         2.082981	     119.346026
	 B(2,6,10)        =         2.106935	     120.718473
	 B(2,6,16)        =         2.082982	     119.346091
	 B(3,1,5)         =         2.069521	     118.574805
	 B(3,7,11)        =         2.098571	     120.239243
	 B(3,7,17)        =         2.089957	     119.745730
	 B(4,2,6)         =         2.069520	     118.574753
	 B(4,8,12)        =         2.098567	     120.239029
	 B(4,8,18)        =         2.089964	     119.746115
	 B(5,9,11)        =         2.098567	     120.239044
	 B(5,9,19)        =         2.089963	     119.746074
	 B(6,10,12)       =         2.098571	     120.239270
	 B(6,10,20)       =         2.089957	     119.745720
	 B(7,3,13)        =         2.093135	     119.927796
	 B(7,11,9)        =         2.085833	     119.509407
	 B(7,11,21)       =         2.098679	     120.245470
	 B(8,4,14)        =         2.093128	     119.927375
	 B(8,12,10)       =         2.085832	     119.509377
	 B(8,12,22)       =         2.098674	     120.245145
	 B(9,5,15)        =         2.093129	     119.927444
	 B(9,11,21)       =         2.098673	     120.245123
	 B(10,6,16)       =         2.093134	     119.927719
	 B(10,12,22)      =         2.098680	     120.245479
	 B(11,7,17)       =         2.094627	     120.013310
	 B(11,9,19)       =         2.094625	     120.013174
	 B(12,8,18)       =         2.094625	     120.013148
	 B(12,10,20)      =         2.094627	     120.013294
	 D(1,2,4,8)       =         3.140432	     179.933494
	 D(1,2,4,14)      =        -0.018796	      -1.076931
	 D(1,2,6,10)      =         3.140414	     179.932444
	 D(1,2,6,16)      =        -0.018829	      -1.078820
	 D(1,3,7,11)      =         0.002362	       0.135313
	 D(1,3,7,17)      =         3.135636	     179.658712
	 D(1,5,9,11)      =         0.002333	       0.133690
	 D(1,5,9,19)      =         3.135631	     179.658438
	 D(2,1,3,7)       =         3.140428	     179.933249
	 D(2,1,3,13)      =        -0.018812	      -1.077856
	 D(2,1,5,9)       =         3.140418	     179.932690
	 D(2,1,5,15)      =        -0.018813	      -1.077926
	 D(2,4,8,12)      =         0.002337	       0.133900
	 D(2,4,8,18)      =         3.135633	     179.658545
	 D(2,6,10,12)     =         0.002358	       0.135103
	 D(2,6,10,20)     =         3.135635	     179.658647
	*D(3,1,2,4)       =         2.336753	     133.886112
	*D(3,1,2,6)       =        -0.804868	     -46.115564
	 D(3,1,5,9)       =        -0.001125	      -0.064472
	 D(3,1,5,15)      =         3.122829	     178.924912
	 D(3,7,11,9)      =        -0.001147	      -0.065710
	 D(3,7,11,21)     =         3.140460	     179.935091
	*D(4,2,1,5)       =        -0.804789	     -46.110990
	 D(4,2,6,10)      =        -0.001208	      -0.069197
	 D(4,2,6,16)      =         3.122735	     178.919539
	 D(4,8,12,10)     =        -0.001182	      -0.067695
	 D(4,8,12,22)     =         3.140394	     179.931311
	*D(5,1,2,6)       =         2.336775	     133.887334
	 D(5,1,3,7)       =        -0.001215	      -0.069589
	 D(5,1,3,13)      =         3.122731	     178.919306
	 D(5,9,11,7)      =        -0.001181	      -0.067676
	 D(5,9,11,21)     =         3.140398	     179.931523
	 D(6,2,4,8)       =        -0.001132	      -0.064865
	 D(6,2,4,14)      =         3.122825	     178.924710
	 D(6,10,12,8)     =        -0.001147	      -0.065691
	 D(6,10,12,22)    =         3.140463	     179.935302
	 D(7,11,9,19)     =        -3.134457	    -179.591149
	 D(8,12,10,20)    =        -3.134401	    -179.587955
	 D(9,11,7,17)     =        -3.134399	    -179.587829
	 D(10,12,8,18)    =        -3.134455	    -179.591065
	 D(11,7,3,13)     =        -3.121482	    -178.847724
	 D(11,9,5,15)     =        -3.121519	    -178.849843
	 D(12,8,4,14)     =        -3.121518	    -178.849824
	 D(12,10,6,16)    =        -3.121483	    -178.847775
	 D(13,3,7,17)     =         0.011793	       0.675676
	 D(14,4,8,18)     =         0.011778	       0.674821
	 D(15,5,9,19)     =         0.011779	       0.674905
	 D(16,6,10,20)    =         0.011794	       0.675769
	 D(17,7,11,21)    =         0.007208	       0.412972
	 D(18,8,12,22)    =         0.007120	       0.407941
	 D(19,9,11,21)    =         0.007122	       0.408050
	 D(20,10,12,22)   =         0.007209	       0.413039

	Current energy   :      -463.1301114101

	Energy change for the previous step:
		Projected    :        -0.0117798941
		Actual       :        -0.0055706634

	Performing BFGS update.
	Previous computed or guess Hessian on step 1.
	Steps to be used in Hessian update: 1
	Taking RFO optimization step.
	Going to follow RFO solution 1.
	Using RFO vector 1.
	Norm of target step-size    0.02744
	Projected energy change by RFO approximation:        -0.0001663661

	Back-transformation to cartesian coordinates...
	Could not converge backtransformation.
	Using first guess instead.

	Back-transformation to cartesian coordinates to adjust frozen coordinates...
	Successfully converged to displaced geometry.

	--- Internal Coordinate Step in ANG or DEG, aJ/ANG or AJ/DEG ---
	 ---------------------------------------------------------------------------
	   Coordinate                Previous        Force       Change         New 
	   ----------                --------       ------       ------       ------
	    1 R(1,2)          =      1.480119     0.034031     0.005861     1.485980
	    2 R(1,3)          =      1.397883     0.023849     0.003214     1.401096
	    3 R(1,5)          =      1.397874     0.023871     0.003217     1.401091
	    4 R(2,4)          =      1.397874     0.023871     0.003217     1.401090
	    5 R(2,6)          =      1.397884     0.023840     0.003212     1.401097
	    6 R(3,7)          =      1.390679     0.012874     0.001582     1.392261
	    7 R(3,13)         =      1.082268     0.000252    -0.000017     1.082251
	    8 R(4,8)          =      1.390683     0.012860     0.001580     1.392263
	    9 R(4,14)         =      1.082271     0.000236    -0.000019     1.082252
	   10 R(5,9)          =      1.390683     0.012860     0.001580     1.392263
[...]
	 R(9,19)          =         2.044298	       1.081796
	 R(10,12)         =         2.633499	       1.393588
	 R(10,20)         =         2.044299	       1.081796
	 R(11,21)         =         2.043643	       1.081449
	 R(12,22)         =         2.043643	       1.081449
	 B(1,2,4)         =         2.107396	     120.744924
	 B(1,2,6)         =         2.107379	     120.743949
	 B(1,3,7)         =         2.107567	     120.754694
	 B(1,3,13)        =         2.082844	     119.338191
	 B(1,5,9)         =         2.107568	     120.754736
	 B(1,5,15)        =         2.082846	     119.338295
	 B(2,1,3)         =         2.107380	     120.743974
	 B(2,1,5)         =         2.107396	     120.744881
	 B(2,4,8)         =         2.107568	     120.754754
	 B(2,4,14)        =         2.082846	     119.338299
	 B(2,6,10)        =         2.107567	     120.754701
	 B(2,6,16)        =         2.082844	     119.338194
	 B(3,1,5)         =         2.068410	     118.511145
	 B(3,7,11)        =         2.097723	     120.190679
	 B(3,7,17)        =         2.089980	     119.747019
	 B(4,2,6)         =         2.068409	     118.511127
	 B(4,8,12)        =         2.097724	     120.190716
	 B(4,8,18)        =         2.089979	     119.746965
	 B(5,9,11)        =         2.097724	     120.190709
	 B(5,9,19)        =         2.089979	     119.746968
	 B(6,10,12)       =         2.097723	     120.190681
	 B(6,10,20)       =         2.089980	     119.747031
	 B(7,3,13)        =         2.092549	     119.894249
	 B(7,11,9)        =         2.087377	     119.597917
	 B(7,11,21)       =         2.097904	     120.201040
	 B(8,4,14)        =         2.092546	     119.894071
	 B(8,12,10)       =         2.087377	     119.597900
	 B(8,12,22)       =         2.097904	     120.201056
	 B(9,5,15)        =         2.092547	     119.894093
	 B(9,11,21)       =         2.097904	     120.201043
	 B(10,6,16)       =         2.092549	     119.894239
	 B(10,12,22)      =         2.097904	     120.201044
	 B(11,7,17)       =         2.095447	     120.060261
	 B(11,9,19)       =         2.095447	     120.060288
	 B(12,8,18)       =         2.095447	     120.060283
	 B(12,10,20)      =         2.095447	     120.060247
	 D(1,2,4,8)       =         3.140671	     179.947212
	 D(1,2,4,14)      =        -0.023728	      -1.359504
	 D(1,2,6,10)      =         3.140707	     179.949231
	 D(1,2,6,16)      =        -0.023683	      -1.356958
	 D(1,3,7,11)      =         0.001820	       0.104270
	 D(1,3,7,17)      =         3.134348	     179.584925
	 D(1,5,9,11)      =         0.001803	       0.103328
	 D(1,5,9,19)      =         3.134343	     179.584644
	 D(2,1,3,7)       =         3.140721	     179.950061
	 D(2,1,3,13)      =        -0.023669	      -1.356145
	 D(2,1,5,9)       =         3.140657	     179.946380
	 D(2,1,5,15)      =        -0.023742	      -1.360294
	 D(2,4,8,12)      =         0.001806	       0.103487
	 D(2,4,8,18)      =         3.134344	     179.584705
	 D(2,6,10,12)     =         0.001817	       0.104104
	 D(2,6,10,20)     =         3.134347	     179.584836
	*D(3,1,2,4)       =         2.336753	     133.886112
	*D(3,1,2,6)       =        -0.804868	     -46.115564
	 D(3,1,5,9)       =        -0.000886	      -0.050785
	 D(3,1,5,15)      =         3.117901	     178.642541
	 D(3,7,11,9)      =        -0.000897	      -0.051396
	 D(3,7,11,21)     =         3.140691	     179.948361
	*D(4,2,1,5)       =        -0.804789	     -46.110990
	 D(4,2,6,10)      =        -0.000915	      -0.052408
	 D(4,2,6,16)      =         3.117881	     178.641403
	 D(4,8,12,10)     =        -0.000899	      -0.051495
	 D(4,8,12,22)     =         3.140697	     179.948699
	*D(5,1,2,6)       =         2.336775	     133.887334
	 D(5,1,3,7)       =        -0.000921	      -0.052775
	 D(5,1,3,13)      =         3.117874	     178.641019
	 D(5,9,11,7)      =        -0.000900	      -0.051544
	 D(5,9,11,21)     =         3.140697	     179.948698
	 D(6,2,4,8)       =        -0.000893	      -0.051149
	 D(6,2,4,14)      =         3.117893	     178.642135
	 D(6,10,12,8)     =        -0.000898	      -0.051442
	 D(6,10,12,22)    =         3.140691	     179.948364
	 D(7,11,9,19)     =        -3.133411	    -179.531227
	 D(8,12,10,20)    =        -3.133399	    -179.530539
	 D(9,11,7,17)     =        -3.133397	    -179.530415
	 D(10,12,8,18)    =        -3.133408	    -179.531079
	 D(11,7,3,13)     =        -3.116849	    -178.582297
	 D(11,9,5,15)     =        -3.116857	    -178.582772
	 D(12,8,4,14)     =        -3.116854	    -178.582570
	 D(12,10,6,16)    =        -3.116852	    -178.582480
	 D(13,3,7,17)     =         0.015679	       0.898358
	 D(14,4,8,18)     =         0.015684	       0.898648
	 D(15,5,9,19)     =         0.015683	       0.898544
	 D(16,6,10,20)    =         0.015677	       0.898252
	 D(17,7,11,21)    =         0.008192	       0.469342
	 D(18,8,12,22)    =         0.008188	       0.469115
	 D(19,9,11,21)    =         0.008186	       0.469016
	 D(20,10,12,22)   =         0.008190	       0.469267

	Current energy   :      -463.1301930262

	Energy change for the previous step:
		Projected    :        -0.0001663661
		Actual       :        -0.0000816161

	Performing BFGS update.
	Previous computed or guess Hessian on step 1.
	Steps to be used in Hessian update: 2 1
	Taking RFO optimization step.
	Going to follow RFO solution 1.
	Using RFO vector 1.
	Norm of target step-size    0.01385
	Projected energy change by RFO approximation:        -0.0000015260

	Back-transformation to cartesian coordinates...
	Successfully converged to displaced geometry.

	Back-transformation to cartesian coordinates to adjust frozen coordinates...
	Successfully converged to displaced geometry.

	--- Internal Coordinate Step in ANG or DEG, aJ/ANG or AJ/DEG ---
	 ---------------------------------------------------------------------------
	   Coordinate                Previous        Force       Change         New 
	   ----------                --------       ------       ------       ------
	    1 R(1,2)          =      1.485980    -0.001601    -0.000159     1.485820
	    2 R(1,3)          =      1.401096    -0.002452    -0.000380     1.400716
	    3 R(1,5)          =      1.401091    -0.002430    -0.000377     1.400714
	    4 R(2,4)          =      1.401090    -0.002427    -0.000376     1.400714
	    5 R(2,6)          =      1.401097    -0.002453    -0.000381     1.400716
	    6 R(3,7)          =      1.392261    -0.000199    -0.000028     1.392233
	    7 R(3,13)         =      1.082251     0.000406     0.000056     1.082307
	    8 R(4,8)          =      1.392263    -0.000206    -0.000029     1.392234
	    9 R(4,14)         =      1.082252     0.000402     0.000055     1.082307
	   10 R(5,9)          =      1.392263    -0.000205    -0.000029     1.392234
	   11 R(5,15)         =      1.082252     0.000403     0.000055     1.082307
	   12 R(6,10)         =      1.392260    -0.000198    -0.000028     1.392232
	   13 R(6,16)         =      1.082251     0.000407     0.000056     1.082307
	   14 R(7,11)         =      1.393588    -0.000353    -0.000016     1.393571
	   15 R(7,17)         =      1.081796    -0.000128    -0.000039     1.081758
	   16 R(8,12)         =      1.393586    -0.000349    -0.000016     1.393570
	   17 R(8,18)         =      1.081796    -0.000126    -0.000039     1.081757
	   18 R(9,11)         =      1.393586    -0.000349    -0.000016     1.393570
	   19 R(9,19)         =      1.081796    -0.000126    -0.000039     1.081757
	   20 R(10,12)        =      1.393588    -0.000353    -0.000016     1.393571
	   21 R(10,20)        =      1.081796    -0.000128    -0.000039     1.081758
	   22 R(11,21)        =      1.081449     0.000313     0.000030     1.081479
	   23 R(12,22)        =      1.081449     0.000313     0.000030     1.081479
	   24 B(1,2,4)        =    120.744924    -0.000009    -0.024049   120.720875
	   25 B(1,2,6)        =    120.743949    -0.000009    -0.023322   120.720626
	   26 B(1,3,7)        =    120.754694    -0.000007    -0.021980   120.732714
	   27 B(1,3,13)       =    119.338191     0.000001    -0.001980   119.336211
	   28 B(1,5,9)        =    120.754736    -0.000007    -0.022021   120.732716
	   29 B(1,5,15)       =    119.338295     0.000001    -0.001996   119.336299
	   30 B(2,1,3)        =    120.743974    -0.000009    -0.023370   120.720604
	   31 B(2,1,5)        =    120.744881    -0.000009    -0.023986   120.720896
	   32 B(2,4,8)        =    120.754754    -0.000007    -0.022040   120.732714
	   33 B(2,4,14)       =    119.338299     0.000001    -0.001988   119.336312
	   34 B(2,6,10)       =    120.754701    -0.000007    -0.021984   120.732717
	   35 B(2,6,16)       =    119.338194     0.000001    -0.001991   119.336203
	   36 B(3,1,5)        =    118.511145     0.000018     0.047356   118.558501
	   37 B(3,7,11)       =    120.190679    -0.000001    -0.003971   120.186708
	   38 B(3,7,17)       =    119.747019     0.000001     0.002376   119.749396
	   39 B(4,2,6)        =    118.511127     0.000018     0.047371   118.558499
	   40 B(4,8,12)       =    120.190716    -0.000001    -0.003993   120.186722
	   41 B(4,8,18)       =    119.746965     0.000001     0.002360   119.749324
	   42 B(5,9,11)       =    120.190709    -0.000001    -0.003990   120.186719
	   43 B(5,9,19)       =    119.746968     0.000001     0.002368   119.749336
	   44 B(6,10,12)      =    120.190681    -0.000001    -0.003976   120.186705
	   45 B(6,10,20)      =    119.747031     0.000001     0.002375   119.749406
	   46 B(7,3,13)       =    119.894249     0.000007     0.028080   119.922330
	   47 B(7,11,9)       =    119.597917    -0.000000     0.004352   119.602269
	   48 B(7,11,21)      =    120.201040     0.000000    -0.002193   120.198848
	   49 B(8,4,14)       =    119.894071     0.000007     0.028150   119.922221
	   50 B(8,12,10)      =    119.597900    -0.000000     0.004369   119.602269
	   51 B(8,12,22)      =    120.201056     0.000000    -0.002170   120.198886
	   52 B(9,5,15)       =    119.894093     0.000007     0.028137   119.922230
	   53 B(9,11,21)      =    120.201043     0.000000    -0.002160   120.198883
	   54 B(10,6,16)      =    119.894239     0.000007     0.028094   119.922333
	   55 B(10,12,22)     =    120.201044     0.000000    -0.002200   120.198845
	   56 B(11,7,17)      =    120.060261     0.000000     0.002001   120.062262
	   57 B(11,9,19)      =    120.060288     0.000000     0.002026   120.062314
	   58 B(12,8,18)      =    120.060283     0.000000     0.002038   120.062321
	   59 B(12,10,20)     =    120.060247     0.000000     0.002009   120.062256
	   60 D(1,2,4,8)      =    179.947212    -0.000000    -0.039263   179.907949
	   61 D(1,2,4,14)     =     -1.359504     0.000001     0.190314    -1.169190
	   62 D(1,2,6,10)     =    179.949231    -0.000000    -0.039668   179.909563
	   63 D(1,2,6,16)     =     -1.356958     0.000001     0.189808    -1.167149
	   64 D(1,3,7,11)     =      0.104270     0.000000     0.079205     0.183475
	   65 D(1,3,7,17)     =    179.584925     0.000001     0.133836   179.718761
	   66 D(1,5,9,11)     =      0.103328     0.000000     0.078993     0.182321
	   67 D(1,5,9,19)     =    179.584644     0.000001     0.133361   179.718004
	   68 D(2,1,3,7)      =    179.950061    -0.000000    -0.039735   179.910326
	   69 D(2,1,3,13)     =     -1.356145     0.000001     0.189840    -1.166305
	   70 D(2,1,5,9)      =    179.946380    -0.000000    -0.039192   179.907187
	   71 D(2,1,5,15)     =     -1.360294     0.000001     0.190258    -1.170036
	   72 D(2,4,8,12)     =      0.103487     0.000000     0.079029     0.182516
	   73 D(2,4,8,18)     =    179.584705     0.000001     0.133398   179.718103
	   74 D(2,6,10,12)    =      0.104104     0.000000     0.079177     0.183281
	   75 D(2,6,10,20)    =    179.584836     0.000001     0.133831   179.718667
	   76 *D(3,1,2,4)     =    133.886112     0.000000    -0.000000   133.886112
	   77 *D(3,1,2,6)     =    -46.115564     0.000000    -0.000000   -46.115564
	   78 D(3,1,5,9)      =     -0.050785    -0.000000    -0.039190    -0.089976
	   79 D(3,1,5,15)     =    178.642541     0.000001     0.190260   178.832802
	   80 D(3,7,11,9)     =     -0.051396    -0.000000    -0.039176    -0.090572
	   81 D(3,7,11,21)    =    179.948361    -0.000000    -0.039191   179.909170
	   82 *D(4,2,1,5)     =    -46.110990    -0.000000     0.000000   -46.110990
	   83 D(4,2,6,10)     =     -0.052408    -0.000000    -0.039669    -0.092077
	   84 D(4,2,6,16)     =    178.641403     0.000001     0.189807   178.831210
	   85 D(4,8,12,10)    =     -0.051495    -0.000000    -0.039302    -0.090797
	   86 D(4,8,12,22)    =    179.948699    -0.000000    -0.039341   179.909358
	   87 *D(5,1,2,6)     =    133.887334     0.000000     0.000000   133.887334
	   88 D(5,1,3,7)      =     -0.052775    -0.000000    -0.039737    -0.092511
	   89 D(5,1,3,13)     =    178.641019     0.000001     0.189838   178.830858
	   90 D(5,9,11,7)     =     -0.051544    -0.000000    -0.039307    -0.090851
	   91 D(5,9,11,21)    =    179.948698    -0.000000    -0.039291   179.909407
	   92 D(6,2,4,8)      =     -0.051149    -0.000000    -0.039262    -0.090411
	   93 D(6,2,4,14)     =    178.642135     0.000001     0.190315   178.832451
	   94 D(6,10,12,8)    =     -0.051442    -0.000000    -0.039184    -0.090626
	   95 D(6,10,12,22)   =    179.948364    -0.000000    -0.039146   179.909218
	   96 D(7,11,9,19)    =   -179.531227    -0.000000    -0.093848  -179.625074
	   97 D(8,12,10,20)   =   -179.530539    -0.000000    -0.094012  -179.624550
	   98 D(9,11,7,17)    =   -179.530415    -0.000000    -0.093981  -179.624396
	   99 D(10,12,8,18)   =   -179.531079    -0.000000    -0.093845  -179.624923
	  100 D(11,7,3,13)    =   -178.582297    -0.000001    -0.151314  -178.733611
	  101 D(11,9,5,15)    =   -178.582772    -0.000001    -0.151400  -178.734172
	  102 D(12,8,4,14)    =   -178.582570    -0.000001    -0.151491  -178.734062
	  103 D(12,10,6,16)   =   -178.582480    -0.000001    -0.151243  -178.733722
	  104 D(13,3,7,17)    =      0.898358    -0.000000    -0.096683     0.801675
	  105 D(14,4,8,18)    =      0.898648    -0.000000    -0.097122     0.801526
	  106 D(15,5,9,19)    =      0.898544    -0.000000    -0.097032     0.801512
	  107 D(16,6,10,20)   =      0.898252    -0.000000    -0.096589     0.801663
	  108 D(17,7,11,21)   =      0.469342    -0.000000    -0.093996     0.375346
	  109 D(18,8,12,22)   =      0.469115    -0.000000    -0.093883     0.375232
	  110 D(19,9,11,21)   =      0.469016    -0.000000    -0.093832     0.375184
	  111 D(20,10,12,22)  =      0.469267    -0.000000    -0.093973     0.375294
	 ---------------------------------------------------------------------------
	Successfully symmetrized geometry.

  ==> Convergence Check <==

  Measures of convergence in internal coordinates in au.
  Criteria marked as inactive (o), active & met (*), and active & unmet ( ).
  ---------------------------------------------------------------------------------------------
   Step     Total Energy     Delta E     MAX Force     RMS Force      MAX Disp      RMS Disp   
  ---------------------------------------------------------------------------------------------
    Convergence Criteria             o    2.50e-03 *    1.70e-03 *    1.00e-02 *    6.70e-03 *
  ---------------------------------------------------------------------------------------------
      3    -463.13019303   -8.16e-05 o    2.98e-04 *    7.90e-05 *    3.32e-03 *    1.31e-03 *  ~
  ---------------------------------------------------------------------------------------------


  **** Optimization is complete! (in 3 steps) ****

  ==> Optimization Summary <==

  Measures of convergence in internal coordinates in au.
  --------------------------------------------------------------------------------------------------------------- ~
   Step         Total Energy             Delta E       MAX Force       RMS Force        MAX Disp        RMS Disp  ~
  --------------------------------------------------------------------------------------------------------------- ~
      1    -463.124540746691   -463.124540746691      0.02691721      0.00673460      0.06531760      0.01702688  ~
      2    -463.130111410086     -0.005570663395      0.00413063      0.00085321      0.01107517      0.00260432  ~
      3    -463.130193026211     -0.000081616125      0.00029779      0.00007901      0.00332163      0.00131407  ~
  --------------------------------------------------------------------------------------------------------------- ~

	Writing optimization data to binary file.
	Final energy is   -463.1301930262107
	Final (previous) structure:
	Cartesian Geometry (in Angstrom)
	    C     0.7408249814   0.0495337292  -0.0275440157
	    C    -0.7408259121  -0.0495146900   0.0275498190
	    C     1.3980296426   0.2886983332  -1.2416087058
	    C    -1.3635877616  -1.0848324969   0.7370133611
	    C     1.5119549452  -0.0942043045   1.1333837855
	    C    -1.5463976880   0.8903536271  -0.6287835784
	    C     2.7861593754   0.3825685288  -1.2933163489
	    C    -2.7517845260  -1.1772038495   0.7896751636
	    C     2.9002399154  -0.0025437032   1.0818199481
	    C    -2.9346139238   0.7971641674  -0.5781850985
	    C     3.5421822777   0.2367217590  -0.1317464375
	    C    -3.5421815486  -0.2367372525   0.1317419976
	    H     0.8170250852   0.3798324099  -2.1501213882
	    H    -0.7542584133  -1.8307952038   1.2304972579
	    H     1.0170122947  -0.2572465972   2.0819183190
	    H    -1.0797800065   1.7082260179  -1.1622811511
	    H     3.2771643938   0.5609340363  -2.2406194410
	    H    -3.2154644122  -1.9872031857   1.3366529992
	    H     3.4792958169  -0.1094155775   1.9893194875
	    H    -3.5409936734   1.5356508024  -1.0853581658
	    H     4.6204828819   0.3087752276  -0.1718550744
	    H    -4.6204813213  -0.3088037489   0.1718484672
	Saving final (previous) structure.
			--------------------------
			 OPTKING Finished Execution 
			--------------------------

    Final optimized geometry and variables:
    Molecular point group: c1
    Full point group: C1

    Geometry (in Angstrom), charge = 0, multiplicity = 1:

    C            0.740824984308     0.049533729393    -0.027544015824
    C           -0.740825914979    -0.049514690189     0.027549819086
    C            1.398029648090     0.288698334328    -1.241608710697
    C           -1.363587766932    -1.084832501193     0.737013364032
    C            1.511954951165    -0.094204304835     1.133383789942
    C           -1.546397694115     0.890353630625    -0.628783580910
    C            2.786159386396     0.382568530277    -1.293316354014
    C           -2.751784536782    -1.177203854100     0.789675166752
    C            2.900239926816    -0.002543703173     1.081819952316
    C           -2.934613935285     0.797164170493    -0.578185100760
    C            3.542182291610     0.236721759959    -0.131746438053
    C           -3.542181562503    -0.236737253466     0.131741998083
    H            0.817025088444     0.379832411439    -2.150121396646
    H           -0.754258416270    -1.830795211005     1.230497262722
    H            1.017012298707    -0.257246598172     2.081918327173
    H           -1.079780010755     1.708226024571    -1.162281155660
    H            3.277164406708     0.560934038531    -2.240619449794
    H           -3.215464424873    -1.987203193475     1.336653004440
    H            3.479295830588    -0.109415577906     1.989319495352
    H           -3.540993687328     1.535650808468    -1.085358170108
    H            4.620482900045     0.308775228769    -0.171855075051
    H           -4.620481339439    -0.308803750124     0.171848467876

	Removing binary optimization data file.
	Cleaning optimization helper files.

    Psi4 stopped on: Monday, 31 May 2021 05:33PM
    Psi4 wall time for execution: 0:01:58.25

*** Psi4 exiting successfully. Buy a developer a beer!
