
    -----------------------------------------------------------------------
          Psi4: An Open-Source Ab Initio Electronic Structure Package
                               Psi4 1.3.2 release

                         Git: Rev {HEAD} ecbda83 


    R. M. Parrish, L. A. Burns, D. G. A. Smith, A. C. Simmonett,
    A. E. DePrince III, E. G. Hohenstein, U. Bozkaya, A. Yu. Sokolov,
    R. Di Remigio, R. M. Richard, J. F. Gonthier, A. M. James,
    H. R. McAlexander, A. Kumar, M. Saitow, X. Wang, B. P. Pritchard,
    P. Verma, H. F. Schaefer III, K. Patkowski, R. A. King, E. F. Valeev,
    F. A. Evangelista, J. M. Turney, T. D. Crawford, and C. D. Sherrill,
    J. Chem. Theory Comput. 13(7) pp 3185--3197 (2017).
    (doi: 10.1021/acs.jctc.7b00174)


                         Additional Contributions by
    P. Kraus, H. Kruse, M. H. Lechner, M. C. Schieber, R. A. Shaw,
    A. Alenaizan, R. Galvelis, Z. L. Glick, S. Lehtola, and J. P. Misiewicz

    -----------------------------------------------------------------------


    Psi4 started on: Monday, 31 May 2021 05:54PM

    Process ID: 31372
    Host:       daniele-Precision-5750
    PSIDATADIR: /home/daniele/anaconda3/envs/poltype/share/psi4
    Memory:     500.0 MiB
    Threads:    1
    
  ==> Input File <==

--------------------------------------------------------------------------
molecule { 
0 1
 C    0.743243    0.049740   -0.027626
 C   -0.743247   -0.049638    0.027680
 C    1.416449   -0.024039   -1.252241
 C   -1.362247   -1.228470    0.458393
 C    1.489402    0.218299    1.144194
 C   -1.543609    1.034286   -0.350306
 C    2.805314    0.069714   -1.304305
 C   -2.751154   -1.321292    0.511056
 C    2.878427    0.310134    1.092928
 C   -2.932580    0.941362   -0.299722
 C    3.539754    0.236552   -0.131648
 C   -3.539750   -0.236631    0.131608
 H    0.845275   -0.157947   -2.161609
 H   -0.748803   -2.071424    0.748626
 H    0.974345    0.279605    2.093972
 H   -1.070820    1.949862   -0.680928
 H    3.312475    0.010041   -2.257994
 H   -3.216010   -2.239220    0.845142
 H    3.442303    0.441345    2.006779
 H   -3.538763    1.787666   -0.594014
 H    4.618126    0.308597   -0.171768
 H   -4.618120   -0.308733    0.171684
}
memory 700MB
set_num_threads(3)
psi4_io.set_default_path("/home/daniele/PSI4_sctatch/Psi4-biphenyl")
set freeze_core True
E, wfn = energy('wb97x-d/6-311+G*',return_wfn=True)
oeprop(wfn,"WIBERG_LOWDIN_INDICES")
clean()
--------------------------------------------------------------------------

  Memory set to 667.572 MiB by Python driver.
  Threads set to 3 by Python driver.

*** tstart() called on daniele-Precision-5750
*** at Mon May 31 17:54:14 2021

   => Loading Basis Set <=

    Name: 6-311+G*
    Role: ORBITAL
    Keyword: BASIS
    atoms 1-12  entry C          line   130 file /home/daniele/anaconda3/envs/poltype/share/psi4/basis/6-311pgs.gbs 
    atoms 13-22 entry H          line    47 file /home/daniele/anaconda3/envs/poltype/share/psi4/basis/6-311pgs.gbs 


         ---------------------------------------------------------
                                   SCF
               by Justin Turney, Rob Parrish, Andy Simmonett
                          and Daniel G. A. Smith
                              RKS Reference
                        3 Threads,    667 MiB Core
         ---------------------------------------------------------

  ==> Geometry <==

    Molecular point group: c1
    Full point group: C1

    Geometry (in Angstrom), charge = 0, multiplicity = 1:

       Center              X                  Y                   Z               Mass       
    ------------   -----------------  -----------------  -----------------  -----------------
         C            0.743242791907     0.049740036524    -0.027626137198    12.000000000000
         C           -0.743247208093    -0.049637963476     0.027679862802    12.000000000000
         C            1.416448791907    -0.024038963476    -1.252241137198    12.000000000000
         C           -1.362247208093    -1.228469963476     0.458392862802    12.000000000000
         C            1.489401791907     0.218299036524     1.144193862802    12.000000000000
         C           -1.543609208093     1.034286036524    -0.350306137198    12.000000000000
         C            2.805313791907     0.069714036524    -1.304305137198    12.000000000000
         C           -2.751154208093    -1.321291963476     0.511055862802    12.000000000000
         C            2.878426791907     0.310134036524     1.092927862802    12.000000000000
         C           -2.932580208093     0.941362036524    -0.299722137198    12.000000000000
         C            3.539753791907     0.236552036524    -0.131648137198    12.000000000000
         C           -3.539750208093    -0.236630963476     0.131607862802    12.000000000000
         H            0.845274791907    -0.157946963476    -2.161609137198     1.007825032230
         H           -0.748803208093    -2.071423963476     0.748625862802     1.007825032230
         H            0.974344791907     0.279605036524     2.093971862802     1.007825032230
         H           -1.070820208093     1.949862036524    -0.680928137198     1.007825032230
         H            3.312474791907     0.010041036524    -2.257994137198     1.007825032230
         H           -3.216010208093    -2.239219963476     0.845141862802     1.007825032230
         H            3.442302791907     0.441345036524     2.006778862802     1.007825032230
         H           -3.538763208093     1.787666036524    -0.594014137198     1.007825032230
         H            4.618125791907     0.308597036524    -0.171768137198     1.007825032230
         H           -4.618120208093    -0.308732963476     0.171683862802     1.007825032230

  Running in c1 symmetry.

  Rotational constants: A =      0.09557  B =      0.01743  C =      0.01669 [cm^-1]
  Rotational constants: A =   2864.98625  B =    522.42431  C =    500.35579 [MHz]
  Nuclear repulsion =  599.294534016401258

  Charge       = 0
  Multiplicity = 1
  Electrons    = 82
  Nalpha       = 41
  Nbeta        = 41

  ==> Algorithm <==

  SCF Algorithm Type is DF.
  DIIS enabled.
  MOM disabled.
  Fractional occupation disabled.
  Guess Type is SAD.
  Energy threshold   = 1.00e-06
  Density threshold  = 1.00e-06
  Integral threshold = 0.00e+00

  ==> Primary Basis <==

  Basis Set: 6-311+G*
    Blend: 6-311+G*
    Number of shells: 150
    Number of basis function: 294
    Number of Cartesian functions: 306
    Spherical Harmonics?: true
    Max angular momentum: 2

  ==> DFT Potential <==

   => Composite Functional: WB97X-D <= 

    wB97X-D Hyb-GGA Exchange-Correlation Functional

    J.-D. Chai and M. Head-Gordon, Phys. Chem. Chem. Phys. 10, 6615 (2008)

    Deriv               =              1
    GGA                 =           TRUE
    Meta                =          FALSE

    Exchange Hybrid     =           TRUE
    MP2 Hybrid          =          FALSE

   => Exchange-Correlation Functionals <=

    1.0000   wB97D range-separated functional

   => Exact (HF) Exchange <=

    0.7780            HF,LR [omega = 0.2000]
    0.2220               HF 

   => Molecular Quadrature <=

    Radial Scheme          =       TREUTLER
    Pruning Scheme         =           FLAT
    Nuclear Scheme         =       TREUTLER

    BS radius alpha        =              1
    Pruning alpha          =              1
    Radial Points          =             75
    Spherical Points       =            302
    Total Points           =         498300
    Total Blocks           =           3696
    Max Points             =            256
    Max Functions          =            263

   => WB97X-D: Empirical Dispersion <=

    Chai and Head-Gordon Dispersion Correction
    Chai, J.-D.; Head-Gordon, M. (2010), J. Chem. Phys., 132: 6615-6620

        s6 =       1.000000

   => Loading Basis Set <=

    Name: (6-311+G* AUX)
    Role: JKFIT
    Keyword: DF_BASIS_SCF
    atoms 1-12  entry C          line   200 file /home/daniele/anaconda3/envs/poltype/share/psi4/basis/heavy-aug-cc-pvtz-jkfit.gbs 
    atoms 13-22 entry H          line   116 file /home/daniele/anaconda3/envs/poltype/share/psi4/basis/heavy-aug-cc-pvtz-jkfit.gbs 

  ==> Pre-Iterations <==

   -------------------------------------------------------
    Irrep   Nso     Nmo     Nalpha   Nbeta   Ndocc  Nsocc
   -------------------------------------------------------
     A        294     294       0       0       0       0
   -------------------------------------------------------
    Total     294     294      41      41      41       0
   -------------------------------------------------------

  ==> Integral Setup <==

  ==> DiskDFJK: Density-Fitted J/K Matrices <==

    J tasked:                  Yes
    K tasked:                  Yes
    wK tasked:                 Yes
    Omega:               2.000E-01
    OpenMP threads:              3
    Integrals threads:           3
    Memory [MiB]:              450
    Algorithm:                Disk
    Integral Cache:           NONE
    Schwarz Cutoff:          1E-12
    Fitting Condition:       1E-10

   => Auxiliary Basis Set <=

  Basis Set: (6-311+G* AUX)
    Blend: HEAVY-AUG-CC-PVTZ-JKFIT
    Number of shells: 460
    Number of basis function: 1548
    Number of Cartesian functions: 1922
    Spherical Harmonics?: true
    Max angular momentum: 4

  Cached 1.8% of DFT collocation blocks in 0.050 [GiB].

  Minimum eigenvalue in the overlap matrix is 1.2261707684E-06.
  Using Symmetric Orthogonalization.

  SCF Guess: Superposition of Atomic Densities via on-the-fly atomic UHF.

  ==> Iterations <==

                           Total Energy        Delta E     RMS |[F,P]|

   @DF-RKS iter SAD:  -462.56714291049087   -4.62567e+02   0.00000e+00 
   @DF-RKS iter   1:  -462.71755996343802   -1.50417e-01   3.27561e-03 DIIS
   @DF-RKS iter   2:  -462.98722605957329   -2.69666e-01   2.35998e-03 DIIS
   @DF-RKS iter   3:  -463.23082409000716   -2.43598e-01   1.67938e-04 DIIS
   @DF-RKS iter   4:  -463.23199447110068   -1.17038e-03   7.38103e-05 DIIS
   @DF-RKS iter   5:  -463.23216253094802   -1.68060e-04   4.73471e-05 DIIS
   @DF-RKS iter   6:  -463.23226466780193   -1.02137e-04   2.75688e-06 DIIS
   @DF-RKS iter   7:  -463.23226517056236   -5.02760e-07   1.21575e-06 DIIS
   @DF-RKS iter   8:  -463.23226523778334   -6.72210e-08   3.79058e-07 DIIS
  Energy and wave function converged.


  ==> Post-Iterations <==

    Orbital Energies [Eh]
    ---------------------

    Doubly Occupied:                                                      

       1A    -10.301320     2A    -10.301033     3A    -10.291492  
       4A    -10.291486     5A    -10.291367     6A    -10.291367  
       7A    -10.290449     8A    -10.290448     9A    -10.290360  
      10A    -10.290360    11A    -10.290220    12A    -10.290220  
      13A     -0.976003    14A     -0.954123    15A     -0.881541  
      16A     -0.851460    17A     -0.849245    18A     -0.824584  
      19A     -0.722206    20A     -0.708510    21A     -0.700232  
      22A     -0.675006    23A     -0.626486    24A     -0.597820  
      25A     -0.558484    26A     -0.549525    27A     -0.541633  
      28A     -0.536459    29A     -0.511753    30A     -0.510957  
      31A     -0.508091    32A     -0.461499    33A     -0.456559  
      34A     -0.456225    35A     -0.431539    36A     -0.428053  
      37A     -0.416958    38A     -0.337493    39A     -0.336874  
      40A     -0.330325    41A     -0.320655  

    Virtual:                                                              

      42A      0.042402    43A      0.045486    44A      0.058749  
      45A      0.061196    46A      0.065162    47A      0.066691  
      48A      0.079158    49A      0.081977    50A      0.085062  
      51A      0.095094    52A      0.098311    53A      0.100601  
      54A      0.109912    55A      0.113691    56A      0.130018  
      57A      0.132933    58A      0.135356    59A      0.148972  
      60A      0.154008    61A      0.157300    62A      0.162559  
      63A      0.163869    64A      0.181404    65A      0.184638  
      66A      0.189813    67A      0.190854    68A      0.192702  
      69A      0.200116    70A      0.206865    71A      0.213400  
      72A      0.213629    73A      0.217471    74A      0.224044  
      75A      0.224365    76A      0.236385    77A      0.239916  
      78A      0.249101    79A      0.253222    80A      0.255352  
      81A      0.258763    82A      0.261443    83A      0.263610  
      84A      0.263871    85A      0.270833    86A      0.273865  
      87A      0.277853    88A      0.278498    89A      0.282233  
      90A      0.287430    91A      0.292590    92A      0.294470  
      93A      0.300174    94A      0.310590    95A      0.317893  
      96A      0.318661    97A      0.320092    98A      0.331509  
      99A      0.337350   100A      0.337540   101A      0.339951  
     102A      0.342170   103A      0.349182   104A      0.350205  
     105A      0.364834   106A      0.366494   107A      0.399337  
     108A      0.399553   109A      0.402676   110A      0.418201  
     111A      0.438358   112A      0.449268   113A      0.451801  
     114A      0.465652   115A      0.517971   116A      0.572136  
     117A      0.590336   118A      0.601403   119A      0.606593  
     120A      0.608479   121A      0.611943   122A      0.612821  
     123A      0.622632   124A      0.622932   125A      0.635098  
     126A      0.636015   127A      0.639424   128A      0.655734  
     129A      0.657922   130A      0.665069   131A      0.674696  
     132A      0.690766   133A      0.703182   134A      0.723251  
     135A      0.730640   136A      0.743892   137A      0.745374  
     138A      0.756663   139A      0.772591   140A      0.774350  
     141A      0.774861   142A      0.784388   143A      0.787494  
     144A      0.795497   145A      0.807231   146A      0.808755  
     147A      0.815574   148A      0.824151   149A      0.833562  
     150A      0.839102   151A      0.840366   152A      0.850391  
     153A      0.884856   154A      0.895766   155A      0.910650  
     156A      0.922714   157A      0.922992   158A      0.924827  
     159A      0.930992   160A      0.934487   161A      0.947218  
     162A      0.950541   163A      0.964187   164A      0.968003  
     165A      1.017854   166A      1.023384   167A      1.041242  
     168A      1.045487   169A      1.076465   170A      1.102751  
     171A      1.102773   172A      1.113166   173A      1.115014  
     174A      1.120856   175A      1.152322   176A      1.229314  
     177A      1.231532   178A      1.240193   179A      1.283648  
     180A      1.286607   181A      1.310279   182A      1.338324  
     183A      1.343211   184A      1.352589   185A      1.377847  
     186A      1.405685   187A      1.425395   188A      1.472801  
     189A      1.520956   190A      1.581380   191A      1.603770  
     192A      1.606222   193A      1.610360   194A      1.627856  
     195A      1.633246   196A      1.658708   197A      1.683838  
     198A      1.754665   199A      1.813126   200A      1.819487  
     201A      1.852275   202A      1.859855   203A      1.870636  
     204A      1.878364   205A      1.891364   206A      1.902715  
     207A      1.939772   208A      1.942967   209A      1.959505  
     210A      1.964927   211A      1.999828   212A      2.021248  
     213A      2.024169   214A      2.051883   215A      2.060869  
     216A      2.068784   217A      2.082917   218A      2.085681  
     219A      2.120441   220A      2.135539   221A      2.136870  
     222A      2.224761   223A      2.350291   224A      2.354350  
     225A      2.368232   226A      2.379278   227A      2.406107  
     228A      2.406543   229A      2.434886   230A      2.445921  
     231A      2.449033   232A      2.482698   233A      2.499281  
     234A      2.510768   235A      2.514973   236A      2.549612  
     237A      2.605640   238A      2.714270   239A      2.757257  
     240A      2.768738   241A      2.814774   242A      2.817342  
     243A      2.839465   244A      2.861949   245A      2.894686  
     246A      2.934829   247A      2.936155   248A      2.951209  
     249A      2.982079   250A      2.988170   251A      2.990474  
     252A      3.048751   253A      3.096381   254A      3.104993  
     255A      3.191899   256A      3.198895   257A      3.253022  
     258A      3.271019   259A      3.340552   260A      3.390983  
     261A      3.397720   262A      3.406739   263A      3.411929  
     264A      3.419446   265A      3.432190   266A      3.450565  
     267A      3.463074   268A      3.515958   269A      3.560868  
     270A      3.666124   271A      3.728287   272A      3.731392  
     273A      3.733648   274A      3.797121   275A      3.802483  
     276A      4.084732   277A      4.121426   278A      4.125096  
     279A      4.133341   280A      4.457980   281A      4.891812  
     282A      4.893633   283A     23.426052   284A     23.598300  
     285A     23.974127   286A     23.974614   287A     24.014479  
     288A     24.039867   289A     24.128524   290A     24.175884  
     291A     24.175963   292A     24.211424   293A     24.270017  
     294A     24.307243  

    Final Occupation by Irrep:
              A 
    DOCC [    41 ]

  @DF-RKS Final Energy:  -463.23226523778334

   => Energetics <=

    Nuclear Repulsion Energy =            599.2945340164012578
    One-Electron Energy =               -1811.8468215955581400
    Two-Electron Energy =                 796.5746067184180674
    DFT Exchange-Correlation Energy =     -47.2426524286415059
    Empirical Dispersion Energy =          -0.0119319484030357
    VV10 Nonlocal Energy =                  0.0000000000000000
    Total Energy =                       -463.2322652377833947

Computation Completed


Properties will be evaluated at   0.000000,   0.000000,   0.000000 [a0]

Properties computed using the SCF density matrix

  Nuclear Dipole Moment: [e a0]
     X:     0.0000      Y:    -0.0002      Z:    -0.0001

  Electronic Dipole Moment: [e a0]
     X:     0.0000      Y:     0.0002      Z:     0.0001

  Dipole Moment: [e a0]
     X:     0.0000      Y:    -0.0000      Z:    -0.0000     Total:     0.0001

  Dipole Moment: [D]
     X:     0.0000      Y:    -0.0001      Z:    -0.0001     Total:     0.0001


*** tstop() called on daniele-Precision-5750 at Mon May 31 17:55:11 2021
Module time:
	user time   =     162.14 seconds =       2.70 minutes
	system time =       6.72 seconds =       0.11 minutes
	total time  =         57 seconds =       0.95 minutes
Total time:
	user time   =     162.14 seconds =       2.70 minutes
	system time =       6.72 seconds =       0.11 minutes
	total time  =         57 seconds =       0.95 minutes


Properties will be evaluated at   0.000000,   0.000000,   0.000000 [a0]
OEProp: No title given, name of density matrix used for the following properties is 'SCF density'


  Wiberg Bond Indices using Orthogonal Lowdin Orbitals:

  Irrep: 1 Size: 22 x 22

                 1                   2                   3                   4                   5

    1     0.00000000000000     1.01682942607071     1.42629930770132     0.12237311621333     1.42630464568158
    2     1.01682942607071     0.00000000000000     0.12237246719681     1.42631159272053     0.12237326005061
    3     1.42629930770132     0.12237246719681     0.00000000000000     0.03211807296167     0.13009018527596
    4     0.12237311621333     1.42631159272053     0.03211807296167     0.00000000000000     0.04238526567823
    5     1.42630464568158     0.12237326005061     0.13009018527596     0.04238526567823     0.00000000000000
    6     0.12237227677686     1.42628938673378     0.04238548689381     0.13009048876790     0.03211474771845
    7     0.13368471713818     0.01629865374581     1.52235064026768     0.00367630071531     0.14668183512047
    8     0.01629791880381     0.13368600014618     0.00367634130908     1.52233943016868     0.00432316043569
    9     0.13368584075050     0.01629779281423     0.14668197890518     0.00432299254156     1.52234498361855
   10     0.01629817801968     0.13368559312496     0.00432313126526     0.14668089401631     0.00367606732458
   11     0.13849433096579     0.01017423950393     0.13755134962394     0.00465834819610     0.13755074762742
   12     0.01017408184900     0.13849549107920     0.00465828042748     0.13755029057652     0.00465834242735
   13     0.05578467005319     0.01775341470292     0.81550283531098     0.00327917597769     0.00969103154524
   14     0.01775286277005     0.05578466270344     0.00327962993228     0.81550314697917     0.00613880438775
   15     0.05578421629148     0.01775280985325     0.00968983959168     0.00613881996372     0.81550421676950
   16     0.01775287334114     0.05578343247979     0.00613886654498     0.00969037190258     0.00327869741618
   17     0.01057773321415     0.00114829925342     0.06007710777133     0.00030447712191     0.00243686908702
   18     0.00114843266880     0.01057750173426     0.00030448765631     0.06007724789431     0.00024672355812
   19     0.01057754321124     0.00114837464900     0.00243665779386     0.00024672479955     0.06007741076327
   20     0.00114841506425     0.01057777009193     0.00024676843227     0.00243680852088     0.00030443356220
   21     0.00288545688266     0.00027623378596     0.01132566615520     0.00005344209142     0.01132573043580
   22     0.00027620309186     0.00288540469183     0.00005344560804     0.01132581612614     0.00005344954597

                 6                   7                   8                   9                  10

    1     0.12237227677686     0.13368471713818     0.01629791880381     0.13368584075050     0.01629817801968
    2     1.42628938673378     0.01629865374581     0.13368600014618     0.01629779281423     0.13368559312496
    3     0.04238548689381     1.52235064026768     0.00367634130908     0.14668197890518     0.00432313126526
    4     0.13009048876790     0.00367630071531     1.52233943016868     0.00432299254156     0.14668089401631
    5     0.03211474771845     0.14668183512047     0.00432316043569     1.52234498361855     0.00367606732458
    6     0.00000000000000     0.00432302445144     0.14668145313775     0.00367586758126     1.52236093050696
    7     0.00432302445144     0.00000000000000     0.00073317720722     0.13708717576591     0.00089085357072
    8     0.14668145313775     0.00073317720722     0.00000000000000     0.00089085866388     0.13708733336477
    9     0.00367586758126     0.13708717576591     0.00089085866388     0.00000000000000     0.00073316019017
   10     1.52236093050696     0.00089085357072     0.13708733336477     0.00073316019017     0.00000000000000
   11     0.00465830294594     1.52137022836743     0.00063366459401     1.52137698786985     0.00063363223826
   12     0.13755111366376     0.00063367800621     1.52138268025738     0.00063361591109     1.52136205340797
   13     0.00613863221295     0.05601855244321     0.00030264871341     0.00224721007619     0.00047233716628
   14     0.00969050917464     0.00030259533857     0.05601870067327     0.00047229553193     0.00224738115679
   15     0.00327901268246     0.00224754860527     0.00047225224370     0.05601969946185     0.00030250640655
   16     0.81550469987499     0.00047221728985     0.00224726081514     0.00030251923725     0.05601943753142
   17     0.00024676658029     0.83457089616504     0.00004906217222     0.01130395017205     0.00003971420855
   18     0.00243682173573     0.00004906107860     0.83457034972798     0.00003971551442     0.01130398959231
   19     0.00030443393486     0.01130402362369     0.00003971818365     0.83457071116863     0.00004906275435
   20     0.06007781352486     0.00003971217059     0.01130377790376     0.00004906129450     0.83457051667564
   21     0.00005344651066     0.05897693008544     0.00001859442194     0.05897659686587     0.00001859167410
   22     0.01132548864344     0.00001859114996     0.05897703937366     0.00001859055994     0.05897618621538

                11                  12                  13                  14                  15

    1     0.13849433096579     0.01017408184900     0.05578467005319     0.01775286277005     0.05578421629148
    2     0.01017423950393     0.13849549107920     0.01775341470292     0.05578466270344     0.01775280985325
    3     0.13755134962394     0.00465828042748     0.81550283531098     0.00327962993228     0.00968983959168
    4     0.00465834819610     0.13755029057652     0.00327917597769     0.81550314697917     0.00613881996372
    5     0.13755074762742     0.00465834242735     0.00969103154524     0.00613880438775     0.81550421676950
    6     0.00465830294594     0.13755111366376     0.00613863221295     0.00969050917464     0.00327901268246
    7     1.52137022836743     0.00063367800621     0.05601855244321     0.00030259533857     0.00224754860527
    8     0.00063366459401     1.52138268025738     0.00030264871341     0.05601870067327     0.00047225224370
    9     1.52137698786985     0.00063361591109     0.00224721007619     0.00047229553193     0.05601969946185
   10     0.00063363223826     1.52136205340797     0.00047233716628     0.00224738115679     0.00030250640655
   11     0.00000000000000     0.00056461498323     0.01065456312035     0.00031541457291     0.01065470153668
   12     0.00056461498323     0.00000000000000     0.00031538796466     0.01065460867705     0.00031538867994
   13     0.01065456312035     0.00031538796466     0.00000000000000     0.00003529232274     0.00033469236592
   14     0.00031541457291     0.01065460867705     0.00003529232274     0.00000000000000     0.00026111773566
   15     0.01065470153668     0.00031538867994     0.00033469236592     0.00026111773566     0.00000000000000
   16     0.00031537733986     0.01065503136036     0.00026110640045     0.00033469455591     0.00003526978703
   17     0.05895186468675     0.00008712287904     0.00517477374288     0.00002727790363     0.00026957556255
   18     0.00008711903354     0.05895262545268     0.00002727453434     0.00517483399843     0.00002777569969
   19     0.05895225539531     0.00008709915700     0.00026960137257     0.00002777005558     0.00517483183695
   20     0.00008710834693     0.05895179715136     0.00002776866437     0.00026959262450     0.00002728234899
   21     0.83617273603436     0.00000939080053     0.00024008150572     0.00000931190601     0.00024009003338
   22     0.00000939074244     0.83617313466427     0.00000931148081     0.00024008868104     0.00000931404858

                16                  17                  18                  19                  20

    1     0.01775287334114     0.01057773321415     0.00114843266880     0.01057754321124     0.00114841506425
    2     0.05578343247979     0.00114829925342     0.01057750173426     0.00114837464900     0.01057777009193
    3     0.00613886654498     0.06007710777133     0.00030448765631     0.00243665779386     0.00024676843227
    4     0.00969037190258     0.00030447712191     0.06007724789431     0.00024672479955     0.00243680852088
    5     0.00327869741618     0.00243686908702     0.00024672355812     0.06007741076327     0.00030443356220
    6     0.81550469987499     0.00024676658029     0.00243682173573     0.00030443393486     0.06007781352486
    7     0.00047221728985     0.83457089616504     0.00004906107860     0.01130402362369     0.00003971217059
    8     0.00224726081514     0.00004906217222     0.83457034972798     0.00003971818365     0.01130377790376
    9     0.00030251923725     0.01130395017205     0.00003971551442     0.83457071116863     0.00004906129450
   10     0.05601943753142     0.00003971420855     0.01130398959231     0.00004906275435     0.83457051667564
   11     0.00031537733986     0.05895186468675     0.00008711903354     0.05895225539531     0.00008710834693
   12     0.01065503136036     0.00008712287904     0.05895262545268     0.00008709915700     0.05895179715136
   13     0.00026110640045     0.00517477374288     0.00002727453434     0.00026960137257     0.00002776866437
   14     0.00033469455591     0.00002727790363     0.00517483399843     0.00002777005558     0.00026959262450
   15     0.00003526978703     0.00026957556255     0.00002777569969     0.00517483183695     0.00002728234899
   16     0.00000000000000     0.00002777619745     0.00026959337325     0.00002728099429     0.00517479968237
   17     0.00002777619745     0.00000000000000     0.00001109065333     0.00025466589029     0.00000923547531
   18     0.00026959337325     0.00001109065333     0.00000000000000     0.00000923426690     0.00025465950610
   19     0.00002728099429     0.00025466589029     0.00000923426690     0.00000000000000     0.00001109144016
   20     0.00517479968237     0.00000923547531     0.00025465950610     0.00001109144016     0.00000000000000
   21     0.00000931341956     0.00522032035011     0.00000092758797     0.00522023534337     0.00000092770380
   22     0.00024008713265     0.00000092778649     0.00522025645085     0.00000092772631     0.00522030293842

                21                  22

    1     0.00288545688266     0.00027620309186
    2     0.00027623378596     0.00288540469183
    3     0.01132566615520     0.00005344560804
    4     0.00005344209142     0.01132581612614
    5     0.01132573043580     0.00005344954597
    6     0.00005344651066     0.01132548864344
    7     0.05897693008544     0.00001859114996
    8     0.00001859442194     0.05897703937366
    9     0.05897659686587     0.00001859055994
   10     0.00001859167410     0.05897618621538
   11     0.83617273603436     0.00000939074244
   12     0.00000939080053     0.83617313466427
   13     0.00024008150572     0.00000931148081
   14     0.00000931190601     0.00024008868104
   15     0.00024009003338     0.00000931404858
   16     0.00000931341956     0.00024008713265
   17     0.00522032035011     0.00000092778649
   18     0.00000092758797     0.00522025645085
   19     0.00522023534337     0.00000092772631
   20     0.00000092770380     0.00522030293842
   21     0.00000000000000     0.00000033695662
   22     0.00000033695662     0.00000000000000



  Atomic Valences: 

 #  #
 Irrep: 1
      1:  4.7365022
      2:  4.7365018
      3:  4.4815625
      4:  4.4815628
      5:  4.4815606
      6:  4.4815607
      7:  4.4517304
      8:  4.4517314
      9:  4.4517316
     10:  4.4517316
     11:  4.4538670
     12:  4.4538658
     13:  0.9845404
     14:  0.9845406
     15:  0.9845410
     16:  0.9845407
     17:  0.9907895
     18:  0.9907897
     19:  0.9907897
     20:  0.9907896
     21:  0.9910344
     22:  0.9910343


    Psi4 stopped on: Monday, 31 May 2021 05:55PM
    Psi4 wall time for execution: 0:00:57.33

*** Psi4 exiting successfully. Buy a developer a beer!
