
    -----------------------------------------------------------------------
          Psi4: An Open-Source Ab Initio Electronic Structure Package
                               Psi4 1.3.2 release

                         Git: Rev {HEAD} ecbda83 


    R. M. Parrish, L. A. Burns, D. G. A. Smith, A. C. Simmonett,
    A. E. DePrince III, E. G. Hohenstein, U. Bozkaya, A. Yu. Sokolov,
    R. Di Remigio, R. M. Richard, J. F. Gonthier, A. M. James,
    H. R. McAlexander, A. Kumar, M. Saitow, X. Wang, B. P. Pritchard,
    P. Verma, H. F. Schaefer III, K. Patkowski, R. A. King, E. F. Valeev,
    F. A. Evangelista, J. M. Turney, T. D. Crawford, and C. D. Sherrill,
    J. Chem. Theory Comput. 13(7) pp 3185--3197 (2017).
    (doi: 10.1021/acs.jctc.7b00174)


                         Additional Contributions by
    P. Kraus, H. Kruse, M. H. Lechner, M. C. Schieber, R. A. Shaw,
    A. Alenaizan, R. Galvelis, Z. L. Glick, S. Lehtola, and J. P. Misiewicz

    -----------------------------------------------------------------------


    Psi4 started on: Monday, 31 May 2021 05:13PM

    Process ID: 29621
    Host:       daniele-Precision-5750
    PSIDATADIR: /home/daniele/anaconda3/envs/poltype/share/psi4
    Memory:     500.0 MiB
    Threads:    1
    
  ==> Input File <==

--------------------------------------------------------------------------
molecule { 
0 1
 C    0.744610    0.049935   -0.027884
 C   -0.744719   -0.049723    0.027389
 C    1.404493    1.309809    0.143678
 C   -1.487524    0.599605    1.066019
 C    1.551925   -1.111660   -0.253883
 C   -1.469092   -0.797332   -0.956743
 C    2.809355    1.394169    0.090570
 C   -2.891778    0.500691    1.109676
 C    2.955573   -1.007863   -0.305154
 C   -2.873386   -0.886293   -0.896231
 C    3.582831    0.240082   -0.133353
 C   -3.582946   -0.239648    0.132699
 H    0.824211    2.215616    0.311232
 H   -0.971462    1.171640    1.835276
 H    1.086718   -2.087538   -0.382581
 H   -0.939648   -1.299374   -1.764793
 H    3.299471    2.357293    0.221969
 H   -3.445373    0.998279    1.904056
 H    3.558585   -1.897760   -0.477157
 H   -3.412910   -1.457025   -1.650066
 H    4.668274    0.312820   -0.173772
 H   -4.668409   -0.312278    0.172948
}
set optking { 
  frozen_dihedral = ("
    3 1 2 4
    3 1 2 6
    5 1 2 4
    5 1 2 6
  ")
}
set {
  geom_maxiter 400
  g_convergence GAU_LOOSE
  dynamic_level 1
}
memory 700MB
set_num_threads(3)
psi4_io.set_default_path("/home/daniele/PSI4_sctatch/Psi4-biphenyl")
for _ in range(1):
  try:
    set opt_coordinates both
    optimize('wb97x-d/6-311G')
    break
  except OptimizationConvergenceError:
    break
  else:
    try:
      set opt_coordinates cartesian
      optimize('wb97x-d/6-311G')
      break
    except OptimizationConvergenceError:
      pass
clean()
--------------------------------------------------------------------------

  Memory set to 667.572 MiB by Python driver.
  Threads set to 3 by Python driver.
gradient() will perform analytic gradient computation.

*** tstart() called on daniele-Precision-5750
*** at Mon May 31 17:13:12 2021

   => Loading Basis Set <=

    Name: 6-311G
    Role: ORBITAL
    Keyword: BASIS
    atoms 1-12  entry C          line    92 file /home/daniele/anaconda3/envs/poltype/share/psi4/basis/6-311g.gbs 
    atoms 13-22 entry H          line    21 file /home/daniele/anaconda3/envs/poltype/share/psi4/basis/6-311g.gbs 


         ---------------------------------------------------------
                                   SCF
               by Justin Turney, Rob Parrish, Andy Simmonett
                          and Daniel G. A. Smith
                              RKS Reference
                        3 Threads,    667 MiB Core
         ---------------------------------------------------------

  ==> Geometry <==

    Molecular point group: c1
    Full point group: C1

    Geometry (in Angstrom), charge = 0, multiplicity = 1:

       Center              X                  Y                   Z               Mass       
    ------------   -----------------  -----------------  -----------------  -----------------
         C            0.744664798448     0.049786049118    -0.027614561591    12.000000000000
         C           -0.744664201552    -0.049871950882     0.027658438409    12.000000000000
         C            1.404547798448     1.309660049118     0.143947438409    12.000000000000
         C           -1.487469201552     0.599456049118     1.066288438409    12.000000000000
         C            1.551979798448    -1.111808950882    -0.253613561591    12.000000000000
         C           -1.469037201552    -0.797480950882    -0.956473561591    12.000000000000
         C            2.809409798448     1.394020049118     0.090839438409    12.000000000000
         C           -2.891723201552     0.500542049118     1.109945438409    12.000000000000
         C            2.955627798448    -1.008011950882    -0.304884561591    12.000000000000
         C           -2.873331201552    -0.886441950882    -0.895961561591    12.000000000000
         C            3.582885798448     0.239933049118    -0.133083561591    12.000000000000
         C           -3.582891201552    -0.239796950882     0.132968438409    12.000000000000
         H            0.824265798448     2.215467049118     0.311501438409     1.007825032230
         H           -0.971407201552     1.171491049118     1.835545438409     1.007825032230
         H            1.086772798448    -2.087686950882    -0.382311561591     1.007825032230
         H           -0.939593201552    -1.299522950882    -1.764523561591     1.007825032230
         H            3.299525798448     2.357144049118     0.222238438409     1.007825032230
         H           -3.445318201552     0.998130049118     1.904325438409     1.007825032230
         H            3.558639798448    -1.897908950882    -0.476887561591     1.007825032230
         H           -3.412855201552    -1.457173950882    -1.649796561591     1.007825032230
         H            4.668328798448     0.312671049118    -0.173502561591     1.007825032230
         H           -4.668354201552    -0.312426950882     0.173217438409     1.007825032230

  Running in c1 symmetry.

  Rotational constants: A =      0.09267  B =      0.01768  C =      0.01562 [cm^-1]
  Rotational constants: A =   2778.08018  B =    530.06205  C =    468.14784 [MHz]
  Nuclear repulsion =  591.880977623937724

  Charge       = 0
  Multiplicity = 1
  Electrons    = 82
  Nalpha       = 41
  Nbeta        = 41

  ==> Algorithm <==

  SCF Algorithm Type is DF.
  DIIS enabled.
  MOM disabled.
  Fractional occupation disabled.
  Guess Type is SAD.
  Energy threshold   = 1.00e-08
  Density threshold  = 1.00e-08
  Integral threshold = 0.00e+00

  ==> Primary Basis <==

  Basis Set: 6-311G
    Blend: 6-311G
    Number of shells: 114
    Number of basis function: 186
    Number of Cartesian functions: 186
    Spherical Harmonics?: true
    Max angular momentum: 1

  ==> DFT Potential <==

   => Composite Functional: WB97X-D <= 

    wB97X-D Hyb-GGA Exchange-Correlation Functional

    J.-D. Chai and M. Head-Gordon, Phys. Chem. Chem. Phys. 10, 6615 (2008)

    Deriv               =              1
    GGA                 =           TRUE
    Meta                =          FALSE

    Exchange Hybrid     =           TRUE
    MP2 Hybrid          =          FALSE

   => Exchange-Correlation Functionals <=

    1.0000   wB97D range-separated functional

   => Exact (HF) Exchange <=

    0.7780            HF,LR [omega = 0.2000]
    0.2220               HF 

   => Molecular Quadrature <=

    Radial Scheme          =       TREUTLER
    Pruning Scheme         =           FLAT
    Nuclear Scheme         =       TREUTLER

    BS radius alpha        =              1
    Pruning alpha          =              1
    Radial Points          =             75
    Spherical Points       =            302
    Total Points           =         491424
    Total Blocks           =           3616
    Max Points             =            256
    Max Functions          =            155

   => WB97X-D: Empirical Dispersion <=

    Chai and Head-Gordon Dispersion Correction
    Chai, J.-D.; Head-Gordon, M. (2010), J. Chem. Phys., 132: 6615-6620

        s6 =       1.000000

   => Loading Basis Set <=

    Name: (6-311G AUX)
    Role: JKFIT
    Keyword: DF_BASIS_SCF
    atoms 1-12  entry C          line   125 file /home/daniele/anaconda3/envs/poltype/share/psi4/basis/cc-pvtz-jkfit.gbs 
    atoms 13-22 entry H          line    51 file /home/daniele/anaconda3/envs/poltype/share/psi4/basis/cc-pvtz-jkfit.gbs 

  ==> Pre-Iterations <==

   -------------------------------------------------------
    Irrep   Nso     Nmo     Nalpha   Nbeta   Ndocc  Nsocc
   -------------------------------------------------------
     A        186     186       0       0       0       0
   -------------------------------------------------------
    Total     186     186      41      41      41       0
   -------------------------------------------------------

  ==> Integral Setup <==

  ==> DiskDFJK: Density-Fitted J/K Matrices <==

    J tasked:                  Yes
    K tasked:                  Yes
    wK tasked:                 Yes
    Omega:               2.000E-01
    OpenMP threads:              3
    Integrals threads:           3
    Memory [MiB]:              172
    Algorithm:                Disk
    Integral Cache:           NONE
    Schwarz Cutoff:          1E-12
    Fitting Condition:       1E-10

   => Auxiliary Basis Set <=

  Basis Set: (6-311G AUX)
    Blend: CC-PVTZ-JKFIT
    Number of shells: 400
    Number of basis function: 1248
    Number of Cartesian functions: 1502
    Spherical Harmonics?: true
    Max angular momentum: 4

  Cached 25.0% of DFT collocation blocks in 0.383 [GiB].

  Minimum eigenvalue in the overlap matrix is 2.7505581386E-04.
  Using Symmetric Orthogonalization.

  SCF Guess: Superposition of Atomic Densities via on-the-fly atomic UHF.

  ==> Iterations <==

                           Total Energy        Delta E     RMS |[F,P]|

   @DF-RKS iter SAD:  -462.20349442544324   -4.62203e+02   0.00000e+00 
   @DF-RKS iter   1:  -462.81918811703429   -6.15694e-01   3.93581e-03 DIIS
   @DF-RKS iter   2:  -463.01719492153336   -1.98007e-01   2.42129e-03 DIIS
   @DF-RKS iter   3:  -463.12319110098758   -1.05996e-01   2.40077e-04 DIIS
   @DF-RKS iter   4:  -463.12368909849056   -4.97998e-04   2.03618e-04 DIIS
   @DF-RKS iter   5:  -463.12449376155672   -8.04663e-04   1.67073e-05 DIIS
   @DF-RKS iter   6:  -463.12450113160179   -7.37005e-06   3.85704e-06 DIIS
   @DF-RKS iter   7:  -463.12450140906839   -2.77467e-07   1.79148e-06 DIIS
   @DF-RKS iter   8:  -463.12450147928013   -7.02117e-08   2.04767e-07 DIIS
   @DF-RKS iter   9:  -463.12450148278850   -3.50838e-09   9.33977e-08 DIIS
   @DF-RKS iter  10:  -463.12450148304328   -2.54772e-10   3.36802e-08 DIIS
   @DF-RKS iter  11:  -463.12450148308801   -4.47358e-11   2.75734e-09 DIIS
  Energy and wave function converged.


  ==> Post-Iterations <==

    Orbital Energies [Eh]
    ---------------------

    Doubly Occupied:                                                      

       1A    -10.316048     2A    -10.315777     3A    -10.300369  
       4A    -10.300367     5A    -10.300355     6A    -10.300354  
       7A    -10.298801     8A    -10.298799     9A    -10.298714  
      10A    -10.298714    11A    -10.297164    12A    -10.297164  
      13A     -0.970587    14A     -0.950008    15A     -0.880033  
      16A     -0.853507    17A     -0.847489    18A     -0.822033  
      19A     -0.725061    20A     -0.714528    21A     -0.691330  
      22A     -0.675467    23A     -0.626103    24A     -0.594452  
      25A     -0.564933    26A     -0.554997    27A     -0.536311  
      28A     -0.529769    29A     -0.516739    30A     -0.511022  
      31A     -0.510404    32A     -0.464845    33A     -0.453929  
      34A     -0.448696    35A     -0.437557    36A     -0.423365  
      37A     -0.422458    38A     -0.352773    39A     -0.333277  
      40A     -0.331832    41A     -0.302275  

    Virtual:                                                              

      42A      0.031476    43A      0.056808    44A      0.058823  
      45A      0.086483    46A      0.125041    47A      0.131192  
      48A      0.148096    49A      0.163341    50A      0.165068  
      51A      0.184250    52A      0.190718    53A      0.204513  
      54A      0.208438    55A      0.223052    56A      0.229949  
      57A      0.232838    58A      0.299243    59A      0.315780  
      60A      0.341352    61A      0.348122    62A      0.356742  
      63A      0.361393    64A      0.364753    65A      0.376854  
      66A      0.387466    67A      0.406672    68A      0.434227  
      69A      0.452044    70A      0.458158    71A      0.473374  
      72A      0.478457    73A      0.482391    74A      0.486811  
      75A      0.491189    76A      0.504979    77A      0.509067  
      78A      0.511061    79A      0.518420    80A      0.523097  
      81A      0.526344    82A      0.550019    83A      0.554581  
      84A      0.558359    85A      0.569324    86A      0.579840  
      87A      0.602975    88A      0.610605    89A      0.630976  
      90A      0.640352    91A      0.656952    92A      0.664337  
      93A      0.677128    94A      0.678036    95A      0.688763  
      96A      0.695761    97A      0.695821    98A      0.702925  
      99A      0.715480   100A      0.727333   101A      0.733244  
     102A      0.740141   103A      0.744832   104A      0.755866  
     105A      0.793983   106A      0.831691   107A      0.850019  
     108A      0.851772   109A      0.855207   110A      0.863714  
     111A      0.874978   112A      0.878343   113A      0.911370  
     114A      0.916181   115A      0.925617   116A      0.954405  
     117A      0.956379   118A      0.978733   119A      0.991496  
     120A      1.004805   121A      1.023081   122A      1.101929  
     123A      1.106558   124A      1.144737   125A      1.145675  
     126A      1.167811   127A      1.347004   128A      1.375174  
     129A      2.284294   130A      2.313177   131A      2.344357  
     132A      2.348062   133A      2.408120   134A      2.409721  
     135A      2.431419   136A      2.452424   137A      2.591228  
     138A      2.621566   139A      2.629591   140A      2.632240  
     141A      2.667026   142A      2.668966   143A      2.670887  
     144A      2.713181   145A      2.783457   146A      2.783489  
     147A      2.819529   148A      2.824274   149A      2.835253  
     150A      2.846022   151A      2.851228   152A      2.879995  
     153A      2.936673   154A      2.941380   155A      2.944055  
     156A      2.988176   157A      3.004345   158A      3.010864  
     159A      3.091144   160A      3.143053   161A      3.193722  
     162A      3.215027   163A      3.228483   164A      3.232221  
     165A      3.233209   166A      3.281708   167A      3.292685  
     168A      3.328265   169A      3.345949   170A      3.350556  
     171A      3.365074   172A      3.385405   173A      3.469705  
     174A      3.600551   175A     23.226284   176A     23.312848  
     177A     23.466348   178A     23.470476   179A     23.484679  
     180A     23.522979   181A     23.697866   182A     23.734280  
     183A     23.735827   184A     23.754815   185A     23.971728  
     186A     23.978441  

    Final Occupation by Irrep:
              A 
    DOCC [    41 ]

  @DF-RKS Final Energy:  -463.12450148308801

   => Energetics <=

    Nuclear Repulsion Energy =            591.8809776239377243
    One-Electron Energy =               -1796.6997554465988287
    Two-Electron Energy =                 788.8099571290130143
    DFT Exchange-Correlation Energy =     -47.1037028051851365
    Empirical Dispersion Energy =          -0.0119779842547912
    VV10 Nonlocal Energy =                  0.0000000000000000
    Total Energy =                       -463.1245014830880109

Computation Completed


Properties will be evaluated at   0.000000,   0.000000,   0.000000 [a0]

Properties computed using the SCF density matrix

  Nuclear Dipole Moment: [e a0]
     X:     0.0000      Y:     0.0002      Z:    -0.0002

  Electronic Dipole Moment: [e a0]
     X:    -0.0000      Y:    -0.0001      Z:     0.0001

  Dipole Moment: [e a0]
     X:    -0.0000      Y:     0.0000      Z:    -0.0000     Total:     0.0001

  Dipole Moment: [D]
     X:    -0.0000      Y:     0.0001      Z:    -0.0001     Total:     0.0002


*** tstop() called on daniele-Precision-5750 at Mon May 31 17:13:40 2021
Module time:
	user time   =      78.36 seconds =       1.31 minutes
	system time =       3.43 seconds =       0.06 minutes
	total time  =         28 seconds =       0.47 minutes
Total time:
	user time   =      78.36 seconds =       1.31 minutes
	system time =       3.43 seconds =       0.06 minutes
	total time  =         28 seconds =       0.47 minutes

*** tstart() called on daniele-Precision-5750
*** at Mon May 31 17:13:40 2021


         ------------------------------------------------------------
                                   SCF GRAD                          
                          Rob Parrish, Justin Turney,                
                       Andy Simmonett, and Alex Sokolov              
         ------------------------------------------------------------

  ==> Geometry <==

    Molecular point group: c1
    Full point group: C1

    Geometry (in Angstrom), charge = 0, multiplicity = 1:

       Center              X                  Y                   Z               Mass       
    ------------   -----------------  -----------------  -----------------  -----------------
         C            0.744664798448     0.049786049118    -0.027614561591    12.000000000000
         C           -0.744664201552    -0.049871950882     0.027658438409    12.000000000000
         C            1.404547798448     1.309660049118     0.143947438409    12.000000000000
         C           -1.487469201552     0.599456049118     1.066288438409    12.000000000000
         C            1.551979798448    -1.111808950882    -0.253613561591    12.000000000000
         C           -1.469037201552    -0.797480950882    -0.956473561591    12.000000000000
         C            2.809409798448     1.394020049118     0.090839438409    12.000000000000
         C           -2.891723201552     0.500542049118     1.109945438409    12.000000000000
         C            2.955627798448    -1.008011950882    -0.304884561591    12.000000000000
         C           -2.873331201552    -0.886441950882    -0.895961561591    12.000000000000
         C            3.582885798448     0.239933049118    -0.133083561591    12.000000000000
         C           -3.582891201552    -0.239796950882     0.132968438409    12.000000000000
         H            0.824265798448     2.215467049118     0.311501438409     1.007825032230
         H           -0.971407201552     1.171491049118     1.835545438409     1.007825032230
         H            1.086772798448    -2.087686950882    -0.382311561591     1.007825032230
         H           -0.939593201552    -1.299522950882    -1.764523561591     1.007825032230
         H            3.299525798448     2.357144049118     0.222238438409     1.007825032230
         H           -3.445318201552     0.998130049118     1.904325438409     1.007825032230
         H            3.558639798448    -1.897908950882    -0.476887561591     1.007825032230
         H           -3.412855201552    -1.457173950882    -1.649796561591     1.007825032230
         H            4.668328798448     0.312671049118    -0.173502561591     1.007825032230
         H           -4.668354201552    -0.312426950882     0.173217438409     1.007825032230

  Nuclear repulsion =  591.880977623937724

  ==> Basis Set <==

  Basis Set: 6-311G
    Blend: 6-311G
    Number of shells: 114
    Number of basis function: 186
    Number of Cartesian functions: 186
    Spherical Harmonics?: true
    Max angular momentum: 1

  ==> DFJKGrad: Density-Fitted SCF Gradients <==

    Gradient:                    1
    J tasked:                  Yes
    K tasked:                  Yes
    wK tasked:                 Yes
    Omega:               2.000E-01
    OpenMP threads:              3
    Integrals threads:           3
    Memory [MiB]:              500
    Schwarz Cutoff:          0E+00
    Fitting Condition:       1E-10

   => Auxiliary Basis Set <=

  Basis Set: (6-311G AUX)
    Blend: CC-PVTZ-JKFIT
    Number of shells: 400
    Number of basis function: 1248
    Number of Cartesian functions: 1502
    Spherical Harmonics?: true
    Max angular momentum: 4

  ==> DFT Potential <==

   => Composite Functional: WB97X-D <= 

    wB97X-D Hyb-GGA Exchange-Correlation Functional

    J.-D. Chai and M. Head-Gordon, Phys. Chem. Chem. Phys. 10, 6615 (2008)

    Deriv               =              1
    GGA                 =           TRUE
    Meta                =          FALSE

    Exchange Hybrid     =           TRUE
    MP2 Hybrid          =          FALSE

   => Exchange-Correlation Functionals <=

    1.0000   wB97D range-separated functional

   => Exact (HF) Exchange <=

    0.7780            HF,LR [omega = 0.2000]
    0.2220               HF 

   => Molecular Quadrature <=

    Radial Scheme          =       TREUTLER
    Pruning Scheme         =           FLAT
    Nuclear Scheme         =       TREUTLER

    BS radius alpha        =              1
    Pruning alpha          =              1
    Radial Points          =             75
    Spherical Points       =            302
    Total Points           =         491424
    Total Blocks           =           3616
    Max Points             =            256
    Max Functions          =            155


  -Total Gradient:
     Atom            X                  Y                   Z
    ------   -----------------  -----------------  -----------------
       1       -0.018501584767    -0.001250860029     0.000681209129
       2        0.018495667518     0.001259894812    -0.000693050290
       3       -0.002716202320     0.018115823531     0.001444178625
       4        0.001541015784     0.009151745628     0.015853103637
       5       -0.000383846155    -0.018311572077    -0.001320653947
       6        0.001571835896    -0.008966609663    -0.015961443186
       7        0.005951774475     0.009179160691     0.000700662841
       8       -0.006540178535     0.004164209398     0.007752391982
       9        0.007053956811    -0.008306854667    -0.001182267130
      10       -0.006487125191    -0.005032565991    -0.007273315263
      11        0.007228828607     0.000488259511    -0.000267626600
      12       -0.007217107061    -0.000478003737     0.000273301757
      13       -0.000321318317     0.005037199748     0.001475154683
      14       -0.000050196202     0.003495261232     0.003934956341
      15        0.000243918228    -0.005051931921    -0.001473495512
      16        0.000128551374    -0.003486863778    -0.003938656322
      17        0.002519228946     0.003978947821     0.000713772798
      18       -0.002790937456     0.002181697195     0.003191147927
      19        0.002976305109    -0.003619532098    -0.000918148349
      20       -0.002698470375    -0.002547464115    -0.002986760665
      21        0.004742527313     0.000319018088    -0.000179501223
      22       -0.004746551514    -0.000319091205     0.000175090311


*** tstop() called on daniele-Precision-5750 at Mon May 31 17:13:55 2021
Module time:
	user time   =      45.13 seconds =       0.75 minutes
	system time =       0.62 seconds =       0.01 minutes
	total time  =         15 seconds =       0.25 minutes
Total time:
	user time   =     123.50 seconds =       2.06 minutes
	system time =       4.05 seconds =       0.07 minutes
	total time  =         43 seconds =       0.72 minutes

			-----------------------------------------
			 OPTKING 2.0: for geometry optimizations 
			  - R.A. King,  Bethel University        
			-----------------------------------------
	At level 1: Red. Int., RFO, no backsteps, dynamic trust

	Internal coordinates to be generated automatically.
	Detected frag 1 with atoms:  1 2 3 4 5 6 7 8 9 10 11 12 13 14 15 16 17 18 19 20
	 21 22
	---Fragment 1 Bond Connectivity---
	 1 : 2 3 5
	 2 : 1 4 6
	 3 : 1 7 13
	 4 : 2 8 14
	 5 : 1 9 15
	 6 : 2 10 16
	 7 : 3 11 17
	 8 : 4 12 18
	 9 : 5 11 19
	 10 : 6 12 20
	 11 : 7 9 21
	 12 : 8 10 22
	 13 : 3
	 14 : 4
	 15 : 5
	 16 : 6
	 17 : 7
	 18 : 8
	 19 : 9
	 20 : 10
	 21 : 11
	 22 : 12

	Assuming in current code that numbering for constraints corresponds to unified fragment.
	Frozen dihedral atom list: 
	     3     1     2     4
	     3     1     2     6
	     5     1     2     4
	     5     1     2     6
	---Fragment 1 Geometry and Gradient---
	 C           1.4072125243        0.0940819977       -0.0521839585
	 C          -1.4072113964       -0.0942443285        0.0522668737
	 C           2.6542106692        2.4748988103        0.2720212351
	 C          -2.8109094110        1.1328077571        2.0149931193
	 C           2.9328167713       -2.1010144210       -0.4792601731
	 C          -2.7760779790       -1.5070205874       -1.8074730776
	 C           5.3090150932        2.6343161062        0.1716616600
	 C          -5.4645648816        0.9458873871        2.0974928928
	 C           5.5853270679       -1.9048665184       -0.5761483213
	 C          -5.4298090387       -1.6751325133       -1.6931219703
	 C           6.7706728979        0.4534077513       -0.2514914832
	 C          -6.7706831082       -0.4531505629        0.2512739319
	 H           1.5576366136        4.1866259628        0.5886524063
	 H          -1.8356935672        2.2137972413        3.4686781694
	 H           2.0537029497       -3.9451565729       -0.7224641460
	 H          -1.7755738203       -2.4557424709       -3.3344662733
	 H           6.2352001029        4.4543566911        0.4199697831
	 H          -6.5107078160        1.8861924304        3.5986535323
	 H           6.7248545982       -3.5865281282       -0.9011868840
	 H          -6.4493616368       -2.7536596843       -3.1176636641
	 H           8.8218628927        0.5908626502       -0.3278723235
	 H          -8.8219108976       -0.5904013714        0.3273335187
	            -0.0185015848       -0.0012508600        0.0006812091
	             0.0184956675        0.0012598948       -0.0006930503
	            -0.0027162023        0.0181158235        0.0014441786
	             0.0015410158        0.0091517456        0.0158531036
	            -0.0003838462       -0.0183115721       -0.0013206539
	             0.0015718359       -0.0089666097       -0.0159614432
	             0.0059517745        0.0091791607        0.0007006628
	            -0.0065401785        0.0041642094        0.0077523920
	             0.0070539568       -0.0083068547       -0.0011822671
	            -0.0064871252       -0.0050325660       -0.0072733153
	             0.0072288286        0.0004882595       -0.0002676266
	            -0.0072171071       -0.0004780037        0.0002733018
	            -0.0003213183        0.0050371997        0.0014751547
	            -0.0000501962        0.0034952612        0.0039349563
	             0.0002439182       -0.0050519319       -0.0014734955
	             0.0001285514       -0.0034868638       -0.0039386563
	             0.0025192289        0.0039789478        0.0007137728
	            -0.0027909375        0.0021816972        0.0031911479
	             0.0029763051       -0.0036195321       -0.0009181483
	            -0.0026984704       -0.0025474641       -0.0029867607
	             0.0047425273        0.0003190181       -0.0001795012
	            -0.0047465515       -0.0003190912        0.0001750903

	Previous optimization step data not found.  Starting new optimization.

	---Fragment 1 Intrafragment Coordinates---
	 - Coordinate -           - BOHR/RAD -       - ANG/DEG -
	 R(1,2)           =         2.822651	       1.493683
	 R(1,3)           =         2.707102	       1.432537
	 R(1,5)           =         2.707085	       1.432528
	 R(2,4)           =         2.707087	       1.432529
	 R(2,6)           =         2.707095	       1.432533
	 R(3,7)           =         2.661479	       1.408394
	 R(3,13)          =         2.057362	       1.088709
	 R(4,8)           =         2.661509	       1.408410
	 R(4,14)          =         2.057373	       1.088715
	 R(5,9)           =         2.661517	       1.408414
	 R(5,15)          =         2.057389	       1.088723
	 R(6,10)          =         2.661508	       1.408410
	 R(6,16)          =         2.057375	       1.088716
	 R(7,11)          =         2.659298	       1.407240
	 R(7,17)          =         2.057188	       1.088617
	 R(8,12)          =         2.659281	       1.407231
	 R(8,18)          =         2.057200	       1.088623
	 R(9,11)          =         2.659305	       1.407244
	 R(9,19)          =         2.057221	       1.088635
	 R(10,12)         =         2.659297	       1.407239
	 R(10,20)         =         2.057189	       1.088618
	 R(11,21)         =         2.057209	       1.088628
	 R(12,22)         =         2.057221	       1.088634
	 B(1,2,4)         =         2.110175	     120.904123
	 B(1,2,6)         =         2.110152	     120.902783
	 B(1,3,7)         =         2.103248	     120.507209
	 B(1,3,13)        =         2.099751	     120.306850
	 B(1,5,9)         =         2.103235	     120.506515
	 B(1,5,15)        =         2.099793	     120.309249
	 B(2,1,3)         =         2.110105	     120.900127
	 B(2,1,5)         =         2.110235	     120.907531
	 B(2,4,8)         =         2.103236	     120.506574
	 B(2,4,14)        =         2.099786	     120.308903
	 B(2,6,10)        =         2.103227	     120.506028
	 B(2,6,16)        =         2.099759	     120.307318
	 B(3,1,5)         =         2.062846	     118.192342
	 B(3,7,11)        =         2.100340	     120.340614
	 B(3,7,17)        =         2.091547	     119.836812
	 B(4,2,6)         =         2.062859	     118.193093
	 B(4,8,12)        =         2.100333	     120.340209
	 B(4,8,18)        =         2.091562	     119.837702
	 B(5,9,11)        =         2.100338	     120.340500
	 B(5,9,19)        =         2.091568	     119.838001
	 B(6,10,12)       =         2.100338	     120.340493
	 B(6,10,20)       =         2.091534	     119.836051
	 B(7,3,13)        =         2.080171	     119.185017
	 B(7,11,9)        =         2.096363	     120.112774
	 B(7,11,21)       =         2.093407	     119.943382
	 B(8,4,14)        =         2.080147	     119.183640
	 B(8,12,10)       =         2.096377	     120.113554
	 B(8,12,22)       =         2.093420	     119.944119
	 B(9,5,15)        =         2.080142	     119.183333
	 B(9,11,21)       =         2.093415	     119.943844
	 B(10,6,16)       =         2.080183	     119.185716
	 B(10,12,22)      =         2.093389	     119.942327
	 B(11,7,17)       =         2.091297	     119.822515
	 B(11,9,19)       =         2.091279	     119.821442
	 B(12,8,18)       =         2.091289	     119.822031
	 B(12,10,20)      =         2.091313	     119.823398
	 D(1,2,4,8)       =         3.140985	     179.965169
	 D(1,2,4,14)      =        -0.006624	      -0.379525
	 D(1,2,6,10)      =         3.141053	     179.969086
	 D(1,2,6,16)      =        -0.006741	      -0.386235
	 D(1,3,7,11)      =         0.001097	       0.062843
	 D(1,3,7,17)      =         3.141139	     179.974026
	 D(1,5,9,11)      =         0.001119	       0.064102
	 D(1,5,9,19)      =         3.141190	     179.976937
	 D(2,1,3,7)       =         3.141117	     179.972725
	 D(2,1,3,13)      =        -0.006629	      -0.379801
	 D(2,1,5,9)       =         3.140967	     179.964150
	 D(2,1,5,15)      =        -0.006707	      -0.384290
	 D(2,4,8,12)      =         0.001215	       0.069626
	 D(2,4,8,18)      =         3.141266	     179.981294
	 D(2,6,10,12)     =         0.001092	       0.062590
	 D(2,6,10,20)     =         3.141158	     179.975098
	*D(3,1,2,4)       =        -0.804855	     -46.114797
	*D(3,1,2,6)       =         2.336830	     133.890471
	 D(3,1,5,9)       =        -0.000624	      -0.035770
	 D(3,1,5,15)      =         3.134887	     179.615790
	 D(3,7,11,9)      =        -0.000608	      -0.034829
	 D(3,7,11,21)     =         3.140953	     179.963363
	*D(4,2,1,5)       =         2.336739	     133.885285
	 D(4,2,6,10)      =        -0.000450	      -0.025786
	 D(4,2,6,16)      =         3.134941	     179.618893
	 D(4,8,12,10)     =        -0.000573	      -0.032836
	 D(4,8,12,22)     =         3.141005	     179.966346
	*D(5,1,2,6)       =        -0.804762	     -46.109448
	 D(5,1,3,7)       =        -0.000477	      -0.027354
	 D(5,1,3,13)      =         3.134962	     179.620120
	 D(5,9,11,7)      =        -0.000501	      -0.028692
	 D(5,9,11,21)     =         3.141123	     179.973116
	 D(6,2,4,8)       =        -0.000697	      -0.039959
	 D(6,2,4,14)      =         3.134879	     179.615347
	 D(6,10,12,8)     =        -0.000582	      -0.033323
	 D(6,10,12,22)    =         3.141025	     179.967495
	 D(7,11,9,19)     =        -3.140572	    -179.941541
	 D(8,12,10,20)    =        -3.140647	    -179.945842
	 D(9,11,7,17)     =        -3.140651	    -179.946024
	 D(10,12,8,18)    =        -3.140624	    -179.944518
	 D(11,7,3,13)     =        -3.134412	    -179.588553
	 D(11,9,5,15)     =        -3.134460	    -179.591349
	 D(12,8,4,14)     =        -3.134429	    -179.589527
	 D(12,10,6,16)    =        -3.134368	    -179.586042
	 D(13,3,7,17)     =         0.005631	       0.322629
	 D(14,4,8,18)     =         0.005622	       0.322141
	 D(15,5,9,19)     =         0.005611	       0.321486
	 D(16,6,10,20)    =         0.005698	       0.326466
	 D(17,7,11,21)    =         0.000911	       0.052168
	 D(18,8,12,22)    =         0.000954	       0.054664
	 D(19,9,11,21)    =         0.001052	       0.060267
	 D(20,10,12,22)   =         0.000960	       0.054976

	Current energy   :      -463.1245014831

	Generating empirical Hessian (Schlegel '84) for each fragment.
	Taking RFO optimization step.
	Going to follow RFO solution 1.
	Using RFO vector 1.
	Norm of target step-size    0.18001
	Projected energy change by RFO approximation:        -0.0110606195

	Back-transformation to cartesian coordinates...
	Could not converge backtransformation.
	Using first guess instead.

	Back-transformation to cartesian coordinates to adjust frozen coordinates...
	Successfully converged to displaced geometry.

	--- Internal Coordinate Step in ANG or DEG, aJ/ANG or AJ/DEG ---
	 ---------------------------------------------------------------------------
	   Coordinate                Previous        Force       Change         New 
	   ----------                --------       ------       ------       ------
	    1 R(1,2)          =      1.493683    -0.072654    -0.013616     1.480067
	    2 R(1,3)          =      1.432537    -0.222414    -0.034666     1.397870
	    3 R(1,5)          =      1.432528    -0.222431    -0.034668     1.397860
	    4 R(2,4)          =      1.432529    -0.222416    -0.034666     1.397863
	    5 R(2,6)          =      1.432533    -0.222413    -0.034666     1.397867
	    6 R(3,7)          =      1.408394    -0.125853    -0.017735     1.390659
	    7 R(3,13)         =      1.088709    -0.037810    -0.006434     1.082276
	    8 R(4,8)          =      1.408410    -0.125928    -0.017747     1.390663
	    9 R(4,14)         =      1.088715    -0.037841    -0.006439     1.082276
	   10 R(5,9)          =      1.408414    -0.125952    -0.017751     1.390664
	   11 R(5,15)         =      1.088723    -0.037884    -0.006446     1.082278
	   12 R(6,10)         =      1.408410    -0.125936    -0.017748     1.390662
	   13 R(6,16)         =      1.088716    -0.037846    -0.006440     1.082276
	   14 R(7,11)         =      1.407240    -0.116562    -0.015877     1.391363
	   15 R(7,17)         =      1.088617    -0.039057    -0.006878     1.081739
	   16 R(8,12)         =      1.407231    -0.116525    -0.015871     1.391360
	   17 R(8,18)         =      1.088623    -0.039094    -0.006884     1.081739
	   18 R(9,11)         =      1.407244    -0.116607    -0.015883     1.391361
	   19 R(9,19)         =      1.088635    -0.039154    -0.006895     1.081740
	   20 R(10,12)        =      1.407239    -0.116570    -0.015878     1.391362
	   21 R(10,20)        =      1.088618    -0.039061    -0.006879     1.081739
	   22 R(11,21)        =      1.088628    -0.039189    -0.006954     1.081674
	   23 R(12,22)        =      1.088634    -0.039220    -0.006960     1.081674
	   24 B(1,2,4)        =    120.904123    -0.000098    -0.192552   120.711572
	   25 B(1,2,6)        =    120.902783    -0.000098    -0.191879   120.710904
	   26 B(1,3,7)        =    120.507209     0.000096     0.210184   120.717393
	   27 B(1,3,13)       =    120.306850    -0.000242    -0.959463   119.347387
	   28 B(1,5,9)        =    120.506515     0.000096     0.210624   120.717139
	   29 B(1,5,15)       =    120.309249    -0.000242    -0.960841   119.348408
	   30 B(2,1,3)        =    120.900127    -0.000097    -0.189811   120.710317
	   31 B(2,1,5)        =    120.907531    -0.000099    -0.195174   120.712357
	   32 B(2,4,8)        =    120.506574     0.000096     0.210512   120.717085
	   33 B(2,4,14)       =    120.308903    -0.000242    -0.960633   119.348270
	   34 B(2,6,10)       =    120.506028     0.000096     0.211199   120.717227
	   35 B(2,6,16)       =    120.307318    -0.000242    -0.959777   119.347540
	   36 B(3,1,5)        =    118.192342     0.000197     0.384985   118.577327
	   37 B(3,7,11)       =    120.340614    -0.000067    -0.101215   120.239400
	   38 B(3,7,17)       =    119.836812     0.000001    -0.093287   119.743525
	   39 B(4,2,6)        =    118.193093     0.000196     0.384431   118.577524
	   40 B(4,8,12)       =    120.340209    -0.000067    -0.100635   120.239573
	   41 B(4,8,18)       =    119.837702     0.000000    -0.094252   119.743450
	   42 B(5,9,11)       =    120.340500    -0.000067    -0.100735   120.239765
	   43 B(5,9,19)       =    119.838001     0.000000    -0.094534   119.743467
	   44 B(6,10,12)      =    120.340493    -0.000067    -0.101113   120.239380
	   45 B(6,10,20)      =    119.836051     0.000001    -0.092779   119.743272
	   46 B(7,3,13)       =    119.185017     0.000146     0.742544   119.927561
	   47 B(7,11,9)       =    120.112774    -0.000254    -0.604003   119.508771
	   48 B(7,11,21)      =    119.943382     0.000127     0.302243   120.245624
	   49 B(8,4,14)       =    119.183640     0.000146     0.743349   119.926989
	   50 B(8,12,10)      =    120.113554    -0.000254    -0.604550   119.509004
	   51 B(8,12,22)      =    119.944119     0.000127     0.301723   120.245841
	   52 B(9,5,15)       =    119.183333     0.000146     0.743460   119.926794
	   53 B(9,11,21)      =    119.943844     0.000127     0.301760   120.245604
	   54 B(10,6,16)      =    119.185716     0.000146     0.741842   119.927558
	   55 B(10,12,22)     =    119.942327     0.000127     0.302827   120.245154
	   56 B(11,7,17)      =    119.822515     0.000067     0.192863   120.015377
	   57 B(11,9,19)      =    119.821442     0.000067     0.193622   120.015063
	   58 B(12,8,18)      =    119.822031     0.000067     0.193245   120.015275
	   59 B(12,10,20)     =    119.823398     0.000066     0.192256   120.015655
	   60 D(1,2,4,8)      =    179.965169    -0.000000    -0.030646   179.934524
	   61 D(1,2,4,14)     =     -0.379525    -0.000006    -0.693223    -1.072748
	   62 D(1,2,6,10)     =    179.969086    -0.000000    -0.038983   179.930103
	   63 D(1,2,6,16)     =     -0.386235    -0.000006    -0.692177    -1.078412
	   64 D(1,3,7,11)     =      0.062843     0.000001     0.072392     0.135235
	   65 D(1,3,7,17)     =    179.974026    -0.000003    -0.312711   179.661315
	   66 D(1,5,9,11)     =      0.064102     0.000001     0.071617     0.135720
	   67 D(1,5,9,19)     =    179.976937    -0.000003    -0.316043   179.660893
	   68 D(2,1,3,7)      =    179.972725    -0.000000    -0.039173   179.933553
	   69 D(2,1,3,13)     =     -0.379801    -0.000006    -0.694135    -1.073936
	   70 D(2,1,5,9)      =    179.964150    -0.000000    -0.032737   179.931413
	   71 D(2,1,5,15)     =     -0.384290    -0.000006    -0.691810    -1.076100
	   72 D(2,4,8,12)     =      0.069626     0.000001     0.067433     0.137059
	   73 D(2,4,8,18)     =    179.981294    -0.000003    -0.318675   179.662619
	   74 D(2,6,10,12)    =      0.062590     0.000001     0.071986     0.134575
	   75 D(2,6,10,20)    =    179.975098    -0.000003    -0.313805   179.661294
	   76 *D(3,1,2,4)     =    -46.114797    -0.000000    -0.000000   -46.114797
	   77 *D(3,1,2,6)     =    133.890471     0.000000     0.000000   133.890471
	   78 D(3,1,5,9)      =     -0.035770    -0.000000    -0.032737    -0.068507
	   79 D(3,1,5,15)     =    179.615790    -0.000006    -0.691810   178.923980
	   80 D(3,7,11,9)     =     -0.034829    -0.000000    -0.032873    -0.067702
	   81 D(3,7,11,21)    =    179.963363    -0.000000    -0.032143   179.931220
	   82 *D(4,2,1,5)     =    133.885285     0.000000    -0.000000   133.885285
	   83 D(4,2,6,10)     =     -0.025786    -0.000000    -0.038954    -0.064740
	   84 D(4,2,6,16)     =    179.618893    -0.000006    -0.692148   178.926745
	   85 D(4,8,12,10)    =     -0.032836    -0.000000    -0.033989    -0.066825
	   86 D(4,8,12,22)    =    179.966346    -0.000000    -0.033707   179.932639
	   87 *D(5,1,2,6)     =    -46.109448    -0.000000     0.000000   -46.109448
	   88 D(5,1,3,7)      =     -0.027354    -0.000000    -0.039173    -0.066527
	   89 D(5,1,3,13)     =    179.620120    -0.000006    -0.694135   178.925985
	   90 D(5,9,11,7)     =     -0.028692    -0.000000    -0.037963    -0.066655
	   91 D(5,9,11,21)    =    179.973116    -0.000000    -0.038693   179.934423
	   92 D(6,2,4,8)      =     -0.039959    -0.000000    -0.030675    -0.070633
	   93 D(6,2,4,14)     =    179.615347    -0.000006    -0.693252   178.922095
	   94 D(6,10,12,8)    =     -0.033323    -0.000000    -0.034547    -0.067870
	   95 D(6,10,12,22)   =    179.967495    -0.000000    -0.034829   179.932666
	   96 D(7,11,9,19)    =   -179.941541     0.000003     0.351007  -179.590534
	   97 D(8,12,10,20)   =   -179.945842     0.000003     0.352549  -179.593294
	   98 D(9,11,7,17)    =   -179.946024     0.000003     0.353536  -179.592488
	   99 D(10,12,8,18)   =   -179.944518     0.000003     0.353428  -179.591090
	  100 D(11,7,3,13)    =   -179.588553     0.000006     0.737098  -178.851455
	  101 D(11,9,5,15)    =   -179.591349     0.000006     0.740385  -178.850964
	  102 D(12,8,4,14)    =   -179.589527     0.000006     0.739663  -178.849864
	  103 D(12,10,6,16)   =   -179.586042     0.000006     0.734959  -178.851083
	  104 D(13,3,7,17)    =      0.322629     0.000003     0.351996     0.674625
	  105 D(14,4,8,18)    =      0.322141     0.000003     0.353555     0.675696
	  106 D(15,5,9,19)    =      0.321486     0.000003     0.352725     0.674210
	  107 D(16,6,10,20)   =      0.326466     0.000003     0.349169     0.675635
	  108 D(17,7,11,21)   =      0.052168     0.000003     0.354266     0.406434
	  109 D(18,8,12,22)   =      0.054664     0.000003     0.353710     0.408374
	  110 D(19,9,11,21)   =      0.060267     0.000003     0.350277     0.410544
	  111 D(20,10,12,22)  =      0.054976     0.000003     0.352267     0.407243
	 ---------------------------------------------------------------------------
	Successfully symmetrized geometry.

  ==> Convergence Check <==

  Measures of convergence in internal coordinates in au.
  Criteria marked as inactive (o), active & met (*), and active & unmet ( ).
  --------------------------------------------------------------------------------------------- ~
   Step     Total Energy     Delta E     MAX Force     RMS Force      MAX Disp      RMS Disp    ~
  --------------------------------------------------------------------------------------------- ~
    Convergence Criteria             o    2.50e-03 *    1.70e-03 *    1.00e-02 *    6.70e-03 *  ~
  --------------------------------------------------------------------------------------------- ~
      1    -463.12450148   -4.63e+02 o    2.70e-02      6.76e-03      6.55e-02      1.71e-02    ~
  ---------------------------------------------------------------------------------------------

	Writing optimization data to binary file.
	Structure for next step:
	Cartesian Geometry (in Angstrom)
	    C     0.7378726655   0.0494141245  -0.0274075491
	    C    -0.7378785406  -0.0493564329   0.0273628164
	    C     1.3776612252   1.2808807714   0.1405268825
	    C    -1.4587118525   0.5858894458   1.0426863660
	    C     1.5217346936  -1.0867345004  -0.2481748753
	    C    -1.4406851455  -0.7799831300  -0.9350713249
	    C     2.7643202738   1.3736338811   0.0904602242
	    C    -2.8454246320   0.4942819808   1.0934840132
	    C     2.9082822040  -0.9938173705  -0.3010669989
	    C    -2.8271795074  -0.8740709025  -0.8829089261
	    C     3.5350962310   0.2366912668  -0.1312530211
	    C    -3.5350943209  -0.2366803970   0.1312296343
	    H     0.7821560098   2.1713404577   0.2947196928
	    H    -0.9259534655   1.1402906246   1.8043489639
	    H     1.0403398192  -2.0493057266  -0.3623712174
	    H    -0.8965385868  -1.2622948593  -1.7366951065
	    H     3.2427673017   2.3355251194   0.2170011348
	    H    -3.3870594981   0.9876217182   1.8893530482
	    H     3.4998627387  -1.8840736709  -0.4673110038
	    H    -3.3555640167  -1.4390832508  -1.6390371528
	    H     4.6136131019   0.3089002217  -0.1713206971
	    H    -4.6136121325  -0.3089012904   0.1712677416
			--------------------------
			 OPTKING Finished Execution 
			--------------------------

    Structure for next step:
    Molecular point group: c1
    Full point group: C1

    Geometry (in Angstrom), charge = 0, multiplicity = 1:

    C            0.737873116932     0.049402414150    -0.027396917895
    C           -0.737878094968    -0.049368143606     0.027373447844
    C            1.377661679129     1.280869065883     0.140537514343
    C           -1.458711409653     0.585877737528     1.042697001411
    C            1.521735148069    -1.086746215258    -0.248164245022
    C           -1.440684702632    -0.779994843564    -0.935060697259
    C            2.764320733229     1.373622175994     0.090470855898
    C           -2.845424194692     0.494270272203     1.093494648742
    C            2.908282663964    -0.993829084988    -0.301056368799
    C           -2.827179069964    -0.874082616445    -0.882898298318
    C            3.535096693472     0.236679557142    -0.131242390346
    C           -3.535093886242    -0.236692108468     0.131240266093
    H            0.782156461445     2.171328755664     0.294730325280
    H           -0.925953020637     1.140278918556     1.804359602335
    H            1.040340271844    -2.049317445200    -0.362360587537
    H           -0.896538141829    -1.262306574755    -1.736684482007
    H            3.242767762954     2.335513418003     0.217011766989
    H           -3.387059062869     0.987610011568     1.889363686876
    H            3.499863200957    -1.884085388838    -0.467300374378
    H           -3.355563581404    -1.439094967012    -1.639026527902
    H            4.613613568597     0.308888512329    -0.171310066453
    H           -4.613611702087    -0.308913002180     0.171278373564

gradient() will perform analytic gradient computation.

*** tstart() called on daniele-Precision-5750
*** at Mon May 31 17:13:55 2021

   => Loading Basis Set <=

    Name: 6-311G
    Role: ORBITAL
    Keyword: BASIS
    atoms 1-12  entry C          line    92 file /home/daniele/anaconda3/envs/poltype/share/psi4/basis/6-311g.gbs 
    atoms 13-22 entry H          line    21 file /home/daniele/anaconda3/envs/poltype/share/psi4/basis/6-311g.gbs 


         ---------------------------------------------------------
                                   SCF
               by Justin Turney, Rob Parrish, Andy Simmonett
                          and Daniel G. A. Smith
                              RKS Reference
                        3 Threads,    667 MiB Core
         ---------------------------------------------------------

  ==> Geometry <==

    Molecular point group: c1
    Full point group: C1

    Geometry (in Angstrom), charge = 0, multiplicity = 1:

       Center              X                  Y                   Z               Mass       
    ------------   -----------------  -----------------  -----------------  -----------------
         C            0.737873116932     0.049402414150    -0.027396917895    12.000000000000
         C           -0.737878094968    -0.049368143606     0.027373447844    12.000000000000
         C            1.377661679129     1.280869065883     0.140537514343    12.000000000000
         C           -1.458711409653     0.585877737528     1.042697001411    12.000000000000
         C            1.521735148069    -1.086746215258    -0.248164245022    12.000000000000
         C           -1.440684702632    -0.779994843564    -0.935060697259    12.000000000000
         C            2.764320733229     1.373622175994     0.090470855898    12.000000000000
         C           -2.845424194692     0.494270272203     1.093494648742    12.000000000000
         C            2.908282663964    -0.993829084988    -0.301056368799    12.000000000000
         C           -2.827179069964    -0.874082616445    -0.882898298318    12.000000000000
         C            3.535096693472     0.236679557142    -0.131242390346    12.000000000000
         C           -3.535093886242    -0.236692108468     0.131240266093    12.000000000000
         H            0.782156461445     2.171328755664     0.294730325280     1.007825032230
         H           -0.925953020637     1.140278918556     1.804359602335     1.007825032230
         H            1.040340271844    -2.049317445200    -0.362360587537     1.007825032230
         H           -0.896538141829    -1.262306574755    -1.736684482007     1.007825032230
         H            3.242767762954     2.335513418003     0.217011766989     1.007825032230
         H           -3.387059062869     0.987610011568     1.889363686876     1.007825032230
         H            3.499863200957    -1.884085388838    -0.467300374378     1.007825032230
         H           -3.355563581404    -1.439094967012    -1.639026527902     1.007825032230
         H            4.613613568597     0.308888512329    -0.171310066453     1.007825032230
         H           -4.613611702087    -0.308913002180     0.171278373564     1.007825032230

  Running in c1 symmetry.

  Rotational constants: A =      0.09599  B =      0.01824  C =      0.01612 [cm^-1]
  Rotational constants: A =   2877.78143  B =    546.75554  C =    483.19487 [MHz]
  Nuclear repulsion =  601.099824388409729

  Charge       = 0
  Multiplicity = 1
  Electrons    = 82
  Nalpha       = 41
  Nbeta        = 41

  ==> Algorithm <==

  SCF Algorithm Type is DF.
  DIIS enabled.
  MOM disabled.
  Fractional occupation disabled.
  Guess Type is READ.
  Energy threshold   = 1.00e-08
  Density threshold  = 1.00e-08
  Integral threshold = 0.00e+00

  ==> Primary Basis <==

  Basis Set: 6-311G
    Blend: 6-311G
    Number of shells: 114
    Number of basis function: 186
    Number of Cartesian functions: 186
    Spherical Harmonics?: true
    Max angular momentum: 1

  ==> DFT Potential <==

   => Composite Functional: WB97X-D <= 

    wB97X-D Hyb-GGA Exchange-Correlation Functional

    J.-D. Chai and M. Head-Gordon, Phys. Chem. Chem. Phys. 10, 6615 (2008)

    Deriv               =              1
    GGA                 =           TRUE
    Meta                =          FALSE

    Exchange Hybrid     =           TRUE
    MP2 Hybrid          =          FALSE

   => Exchange-Correlation Functionals <=

    1.0000   wB97D range-separated functional

   => Exact (HF) Exchange <=

    0.7780            HF,LR [omega = 0.2000]
    0.2220               HF 

   => Molecular Quadrature <=

    Radial Scheme          =       TREUTLER
    Pruning Scheme         =           FLAT
    Nuclear Scheme         =       TREUTLER

    BS radius alpha        =              1
    Pruning alpha          =              1
    Radial Points          =             75
    Spherical Points       =            302
    Total Points           =         491412
    Total Blocks           =           3617
    Max Points             =            256
    Max Functions          =            156

   => WB97X-D: Empirical Dispersion <=

    Chai and Head-Gordon Dispersion Correction
    Chai, J.-D.; Head-Gordon, M. (2010), J. Chem. Phys., 132: 6615-6620

        s6 =       1.000000

   => Loading Basis Set <=

    Name: (6-311G AUX)
    Role: JKFIT
    Keyword: DF_BASIS_SCF
    atoms 1-12  entry C          line   125 file /home/daniele/anaconda3/envs/poltype/share/psi4/basis/cc-pvtz-jkfit.gbs 
    atoms 13-22 entry H          line    51 file /home/daniele/anaconda3/envs/poltype/share/psi4/basis/cc-pvtz-jkfit.gbs 

   => Loading Basis Set <=

    Name: 6-311G
    Role: ORBITAL
    Keyword: BASIS
    atoms 1-12  entry C          line    92 file /home/daniele/anaconda3/envs/poltype/share/psi4/basis/6-311g.gbs 
    atoms 13-22 entry H          line    21 file /home/daniele/anaconda3/envs/poltype/share/psi4/basis/6-311g.gbs 

  Reading orbitals from file 180, no projection.

  ==> Pre-Iterations <==

   -------------------------------------------------------
    Irrep   Nso     Nmo     Nalpha   Nbeta   Ndocc  Nsocc
   -------------------------------------------------------
     A        186     186       0       0       0       0
   -------------------------------------------------------
    Total     186     186      41      41      41       0
   -------------------------------------------------------

  ==> Integral Setup <==

  ==> DiskDFJK: Density-Fitted J/K Matrices <==

    J tasked:                  Yes
    K tasked:                  Yes
    wK tasked:                 Yes
    Omega:               2.000E-01
    OpenMP threads:              3
    Integrals threads:           3
    Memory [MiB]:              173
    Algorithm:                Disk
    Integral Cache:           NONE
    Schwarz Cutoff:          1E-12
    Fitting Condition:       1E-10

   => Auxiliary Basis Set <=

  Basis Set: (6-311G AUX)
    Blend: CC-PVTZ-JKFIT
    Number of shells: 400
    Number of basis function: 1248
    Number of Cartesian functions: 1502
    Spherical Harmonics?: true
    Max angular momentum: 4

  Cached 25.0% of DFT collocation blocks in 0.386 [GiB].

  Minimum eigenvalue in the overlap matrix is 2.3426504902E-04.
  Using Symmetric Orthogonalization.

  SCF Guess: Orbitals guess was supplied from a previous computation.

  ==> Iterations <==

                           Total Energy        Delta E     RMS |[F,P]|

   @DF-RKS iter   0:  -463.29241689936117   -4.63292e+02   8.26796e-04 
   @DF-RKS iter   1:  -463.12936798737667    1.63049e-01   1.76259e-04 DIIS
   @DF-RKS iter   2:  -463.12952664621434   -1.58659e-04   1.72297e-04 DIIS
   @DF-RKS iter   3:  -463.13009316553234   -5.66519e-04   3.08708e-05 DIIS
   @DF-RKS iter   4:  -463.13010943132167   -1.62658e-05   7.11731e-06 DIIS
   @DF-RKS iter   5:  -463.13011046758277   -1.03626e-06   8.24428e-07 DIIS
   @DF-RKS iter   6:  -463.13011049645701   -2.88742e-08   2.89892e-07 DIIS
   @DF-RKS iter   7:  -463.13011049844852   -1.99151e-09   1.18833e-07 DIIS
   @DF-RKS iter   8:  -463.13011049888587   -4.37353e-10   1.58766e-08 DIIS
   @DF-RKS iter   9:  -463.13011049890258   -1.67120e-11   7.62652e-09 DIIS
  Energy and wave function converged.


  ==> Post-Iterations <==

    Orbital Energies [Eh]
    ---------------------

    Doubly Occupied:                                                      

       1A    -10.304761     2A    -10.304465     3A    -10.293106  
       4A    -10.293102     5A    -10.292996     6A    -10.292995  
       7A    -10.291986     8A    -10.291985     9A    -10.291945  
      10A    -10.291945    11A    -10.291683    12A    -10.291683  
      13A     -0.982766    14A     -0.960401    15A     -0.887124  
      16A     -0.858273    17A     -0.851270    18A     -0.828800  
      19A     -0.726626    20A     -0.720276    21A     -0.694267  
      22A     -0.678739    23A     -0.633279    24A     -0.598152  
      25A     -0.561651    26A     -0.561165    27A     -0.536318  
      28A     -0.534893    29A     -0.518129    30A     -0.514580  
      31A     -0.512211    32A     -0.471391    33A     -0.455343  
      34A     -0.454887    35A     -0.437151    36A     -0.422735  
      37A     -0.421536    38A     -0.356526    39A     -0.335244  
      40A     -0.333575    41A     -0.306227  

    Virtual:                                                              

      42A      0.038476    43A      0.061190    44A      0.063264  
      45A      0.093059    46A      0.126264    47A      0.132791  
      48A      0.149501    49A      0.165366    50A      0.166696  
      51A      0.186634    52A      0.194586    53A      0.207307  
      54A      0.213580    55A      0.225418    56A      0.237791  
      57A      0.245205    58A      0.311264    59A      0.329111  
      60A      0.347797    61A      0.360689    62A      0.363725  
      63A      0.370048    64A      0.370269    65A      0.386620  
      66A      0.391868    67A      0.411830    68A      0.440664  
      69A      0.453262    70A      0.470559    71A      0.476684  
      72A      0.484408    73A      0.485079    74A      0.493731  
      75A      0.496471    76A      0.512621    77A      0.516149  
      78A      0.516712    79A      0.521097    80A      0.526576  
      81A      0.533522    82A      0.550642    83A      0.556623  
      84A      0.560988    85A      0.578901    86A      0.582123  
      87A      0.614685    88A      0.614844    89A      0.640878  
      90A      0.653715    91A      0.668282    92A      0.673963  
      93A      0.685470    94A      0.685695    95A      0.695080  
      96A      0.699462    97A      0.701052    98A      0.709486  
      99A      0.723032   100A      0.724406   101A      0.739664  
     102A      0.747008   103A      0.751796   104A      0.756781  
     105A      0.794114   106A      0.843874   107A      0.857020  
     108A      0.863334   109A      0.870227   110A      0.873566  
     111A      0.892081   112A      0.895519   113A      0.914245  
     114A      0.922875   115A      0.940776   116A      0.967335  
     117A      0.976417   118A      0.997991   119A      1.008455  
     120A      1.016751   121A      1.033995   122A      1.109004  
     123A      1.113323   124A      1.147324   125A      1.156555  
     126A      1.177273   127A      1.349049   128A      1.385185  
     129A      2.287342   130A      2.323627   131A      2.356950  
     132A      2.363147   133A      2.417634   134A      2.418897  
     135A      2.441123   136A      2.467311   137A      2.600598  
     138A      2.637696   139A      2.639131   140A      2.639746  
     141A      2.672252   142A      2.676407   143A      2.679014  
     144A      2.719508   145A      2.762662   146A      2.762731  
     147A      2.795858   148A      2.812014   149A      2.833908  
     150A      2.849358   151A      2.852836   152A      2.880948  
     153A      2.930492   154A      2.934367   155A      2.935787  
     156A      2.989524   157A      3.008585   158A      3.014478  
     159A      3.089712   160A      3.174617   161A      3.211283  
     162A      3.215982   163A      3.242783   164A      3.267978  
     165A      3.278505   166A      3.308900   167A      3.314952  
     168A      3.360796   169A      3.374028   170A      3.386541  
     171A      3.402895   172A      3.421104   173A      3.484771  
     174A      3.625346   175A     23.227224   176A     23.308590  
     177A     23.473200   178A     23.476202   179A     23.496169  
     180A     23.528795   181A     23.724740   182A     23.757179  
     183A     23.766867   184A     23.777775   185A     24.018213  
     186A     24.026375  

    Final Occupation by Irrep:
              A 
    DOCC [    41 ]

  @DF-RKS Final Energy:  -463.13011049890258

   => Energetics <=

    Nuclear Repulsion Energy =            601.0998243884097292
    One-Electron Energy =               -1815.0189808798895683
    Two-Electron Energy =                 798.0488991186392695
    DFT Exchange-Correlation Energy =     -47.2477042314735201
    Empirical Dispersion Energy =          -0.0121488945883570
    VV10 Nonlocal Energy =                  0.0000000000000000
    Total Energy =                       -463.1301104989025248

Computation Completed


Properties will be evaluated at   0.000000,   0.000000,   0.000000 [a0]

Properties computed using the SCF density matrix

  Nuclear Dipole Moment: [e a0]
     X:     0.0000      Y:    -0.0001      Z:     0.0001

  Electronic Dipole Moment: [e a0]
     X:    -0.0000      Y:     0.0001      Z:    -0.0000

  Dipole Moment: [e a0]
     X:     0.0000      Y:    -0.0000      Z:     0.0000     Total:     0.0000

  Dipole Moment: [D]
     X:     0.0000      Y:    -0.0000      Z:     0.0000     Total:     0.0001


*** tstop() called on daniele-Precision-5750 at Mon May 31 17:14:19 2021
Module time:
	user time   =      67.79 seconds =       1.13 minutes
	system time =       2.84 seconds =       0.05 minutes
	total time  =         24 seconds =       0.40 minutes
Total time:
	user time   =     191.66 seconds =       3.19 minutes
	system time =       6.96 seconds =       0.12 minutes
	total time  =         67 seconds =       1.12 minutes

*** tstart() called on daniele-Precision-5750
*** at Mon May 31 17:14:19 2021


         ------------------------------------------------------------
                                   SCF GRAD                          
                          Rob Parrish, Justin Turney,                
                       Andy Simmonett, and Alex Sokolov              
         ------------------------------------------------------------

  ==> Geometry <==

    Molecular point group: c1
    Full point group: C1

    Geometry (in Angstrom), charge = 0, multiplicity = 1:

       Center              X                  Y                   Z               Mass       
    ------------   -----------------  -----------------  -----------------  -----------------
         C            0.737873116932     0.049402414150    -0.027396917895    12.000000000000
         C           -0.737878094968    -0.049368143606     0.027373447844    12.000000000000
         C            1.377661679129     1.280869065883     0.140537514343    12.000000000000
         C           -1.458711409653     0.585877737528     1.042697001411    12.000000000000
         C            1.521735148069    -1.086746215258    -0.248164245022    12.000000000000
         C           -1.440684702632    -0.779994843564    -0.935060697259    12.000000000000
         C            2.764320733229     1.373622175994     0.090470855898    12.000000000000
         C           -2.845424194692     0.494270272203     1.093494648742    12.000000000000
         C            2.908282663964    -0.993829084988    -0.301056368799    12.000000000000
         C           -2.827179069964    -0.874082616445    -0.882898298318    12.000000000000
         C            3.535096693472     0.236679557142    -0.131242390346    12.000000000000
         C           -3.535093886242    -0.236692108468     0.131240266093    12.000000000000
         H            0.782156461445     2.171328755664     0.294730325280     1.007825032230
         H           -0.925953020637     1.140278918556     1.804359602335     1.007825032230
         H            1.040340271844    -2.049317445200    -0.362360587537     1.007825032230
         H           -0.896538141829    -1.262306574755    -1.736684482007     1.007825032230
         H            3.242767762954     2.335513418003     0.217011766989     1.007825032230
         H           -3.387059062869     0.987610011568     1.889363686876     1.007825032230
         H            3.499863200957    -1.884085388838    -0.467300374378     1.007825032230
         H           -3.355563581404    -1.439094967012    -1.639026527902     1.007825032230
         H            4.613613568597     0.308888512329    -0.171310066453     1.007825032230
         H           -4.613611702087    -0.308913002180     0.171278373564     1.007825032230

  Nuclear repulsion =  601.099824388409729

  ==> Basis Set <==

  Basis Set: 6-311G
    Blend: 6-311G
    Number of shells: 114
    Number of basis function: 186
    Number of Cartesian functions: 186
    Spherical Harmonics?: true
    Max angular momentum: 1

  ==> DFJKGrad: Density-Fitted SCF Gradients <==

    Gradient:                    1
    J tasked:                  Yes
    K tasked:                  Yes
    wK tasked:                 Yes
    Omega:               2.000E-01
    OpenMP threads:              3
    Integrals threads:           3
    Memory [MiB]:              500
    Schwarz Cutoff:          0E+00
    Fitting Condition:       1E-10

   => Auxiliary Basis Set <=

  Basis Set: (6-311G AUX)
    Blend: CC-PVTZ-JKFIT
    Number of shells: 400
    Number of basis function: 1248
    Number of Cartesian functions: 1502
    Spherical Harmonics?: true
    Max angular momentum: 4

  ==> DFT Potential <==

   => Composite Functional: WB97X-D <= 

    wB97X-D Hyb-GGA Exchange-Correlation Functional

    J.-D. Chai and M. Head-Gordon, Phys. Chem. Chem. Phys. 10, 6615 (2008)

    Deriv               =              1
    GGA                 =           TRUE
    Meta                =          FALSE

    Exchange Hybrid     =           TRUE
    MP2 Hybrid          =          FALSE

   => Exchange-Correlation Functionals <=

    1.0000   wB97D range-separated functional

   => Exact (HF) Exchange <=

    0.7780            HF,LR [omega = 0.2000]
    0.2220               HF 

   => Molecular Quadrature <=

    Radial Scheme          =       TREUTLER
    Pruning Scheme         =           FLAT
    Nuclear Scheme         =       TREUTLER

    BS radius alpha        =              1
    Pruning alpha          =              1
    Radial Points          =             75
    Spherical Points       =            302
    Total Points           =         491412
    Total Blocks           =           3617
    Max Points             =            256
    Max Functions          =            156


  -Total Gradient:
     Atom            X                  Y                   Z
    ------   -----------------  -----------------  -----------------
       1       -0.000740105278    -0.000059530199     0.000026922332
       2        0.000738767949     0.000061152487    -0.000030553785
       3        0.000010890230    -0.001996919828    -0.000954552040
       4        0.000154807125    -0.001715871312    -0.001397768737
       5       -0.000188699729     0.001991960727     0.000962414177
       6        0.000025955700     0.001720242743     0.001392607059
       7       -0.000693063791    -0.002184949696    -0.000301755310
       8        0.000836683063    -0.001158186952    -0.001818062050
       9       -0.000953529174     0.002075862676     0.000361433143
      10        0.000805536754     0.001268626253     0.001756405052
      11       -0.001669874376    -0.000112392923     0.000063451428
      12        0.001672162230     0.000112741390    -0.000061098267
      13       -0.000032971672    -0.000075953789     0.000139151652
      14        0.000031401365     0.000095182461    -0.000125266880
      15       -0.000052275970     0.000068118169    -0.000135595037
      16        0.000053788434    -0.000089157381     0.000123043133
      17        0.000017768856    -0.000092173293    -0.000028706758
      18       -0.000011194626    -0.000066106589    -0.000071464128
      19        0.000008183835     0.000093464119     0.000028810566
      20       -0.000013829177     0.000064196298     0.000072377893
      21        0.000133544724     0.000009153044    -0.000006247778
      22       -0.000133929030    -0.000009363744     0.000004316773


*** tstop() called on daniele-Precision-5750 at Mon May 31 17:14:33 2021
Module time:
	user time   =      42.33 seconds =       0.71 minutes
	system time =       0.61 seconds =       0.01 minutes
	total time  =         14 seconds =       0.23 minutes
Total time:
	user time   =     233.99 seconds =       3.90 minutes
	system time =       7.57 seconds =       0.13 minutes
	total time  =         81 seconds =       1.35 minutes

			-----------------------------------------
			 OPTKING 2.0: for geometry optimizations 
			  - R.A. King,  Bethel University        
			-----------------------------------------
	At level 1: Red. Int., RFO, no backsteps, dynamic trust

	Previous internal coordinate definitions found.
	---Fragment 1 Geometry and Gradient---
	 C           1.3943781063        0.0933570327       -0.0517726715
	 C          -1.3943875135       -0.0932922707        0.0517283195
	 C           2.6034032671        2.4204917371        0.2655774125
	 C          -2.7565650603        1.1071484669        1.9704117645
	 C           2.8756626653       -2.0536527147       -0.4689624572
	 C          -2.7224995211       -1.4739766336       -1.7670086285
	 C           5.2238091087        2.5957697125        0.1709651400
	 C          -5.3770724387        0.9340354464        2.0664054058
	 C           5.4958577303       -1.8780647861       -0.5689140854
	 C          -5.3425941499       -1.6517767561       -1.6684359805
	 C           6.6803645777        0.4472595425       -0.2480121738
	 C          -6.6803592728       -0.4472832611        0.2480081595
	 H           1.4780614994        4.1032166765        0.5569595956
	 H          -1.7497976140        2.1548148627        3.4097454803
	 H           1.9659581911       -3.8726487156       -0.6847622691
	 H          -1.6942115491       -2.3854137127       -3.2818580373
	 H           6.1279429604        4.4134807224        0.4100928056
	 H          -6.4006139996        1.8663124406        3.5703799196
	 H           6.6137829264       -3.5604053819       -0.8830697259
	 H          -6.3410961654       -2.7194953562       -3.0973112501
	 H           8.7184660933        0.5837146916       -0.3237291081
	 H          -8.7184625662       -0.5837609707        0.3236692173
	            -0.0007401053       -0.0000595302        0.0000269223
	             0.0007387679        0.0000611525       -0.0000305538
	             0.0000108902       -0.0019969198       -0.0009545520
	             0.0001548071       -0.0017158713       -0.0013977687
	            -0.0001886997        0.0019919607        0.0009624142
	             0.0000259557        0.0017202427        0.0013926071
	            -0.0006930638       -0.0021849497       -0.0003017553
	             0.0008366831       -0.0011581870       -0.0018180621
	            -0.0009535292        0.0020758627        0.0003614331
	             0.0008055368        0.0012686263        0.0017564051
	            -0.0016698744       -0.0001123929        0.0000634514
	             0.0016721622        0.0001127414       -0.0000610983
	            -0.0000329717       -0.0000759538        0.0001391517
	             0.0000314014        0.0000951825       -0.0001252669
	            -0.0000522760        0.0000681182       -0.0001355950
	             0.0000537884       -0.0000891574        0.0001230431
	             0.0000177689       -0.0000921733       -0.0000287068
	            -0.0000111946       -0.0000661066       -0.0000714641
	             0.0000081838        0.0000934641        0.0000288106
	            -0.0000138292        0.0000641963        0.0000723779
	             0.0001335447        0.0000091530       -0.0000062478
	            -0.0001339290       -0.0000093637        0.0000043168

	---Fragment 1 Intrafragment Coordinates---
	 - Coordinate -           - BOHR/RAD -       - ANG/DEG -
	 R(1,2)           =         2.796920	       1.480067
	 R(1,3)           =         2.641592	       1.397870
	 R(1,5)           =         2.641572	       1.397860
	 R(2,4)           =         2.641578	       1.397863
	 R(2,6)           =         2.641586	       1.397867
	 R(3,7)           =         2.627965	       1.390659
	 R(3,13)          =         2.045204	       1.082276
	 R(4,8)           =         2.627973	       1.390663
	 R(4,14)          =         2.045206	       1.082276
	 R(5,9)           =         2.627973	       1.390664
	 R(5,15)          =         2.045209	       1.082278
	 R(6,10)          =         2.627970	       1.390662
	 R(6,16)          =         2.045205	       1.082276
	 R(7,11)          =         2.629295	       1.391363
	 R(7,17)          =         2.044190	       1.081739
	 R(8,12)          =         2.629290	       1.391360
	 R(8,18)          =         2.044191	       1.081739
	 R(9,11)          =         2.629290	       1.391361
	 R(9,19)          =         2.044192	       1.081740
	 R(10,12)         =         2.629292	       1.391362
	 R(10,20)         =         2.044190	       1.081739
	 R(11,21)         =         2.044067	       1.081674
	 R(12,22)         =         2.044068	       1.081674
	 B(1,2,4)         =         2.106814	     120.711572
	 B(1,2,6)         =         2.106803	     120.710904
	 B(1,3,7)         =         2.106916	     120.717393
	 B(1,3,13)        =         2.083005	     119.347387
	 B(1,5,9)         =         2.106912	     120.717139
	 B(1,5,15)        =         2.083023	     119.348408
	 B(2,1,3)         =         2.106792	     120.710317
	 B(2,1,5)         =         2.106828	     120.712357
	 B(2,4,8)         =         2.106911	     120.717085
	 B(2,4,14)        =         2.083020	     119.348270
	 B(2,6,10)        =         2.106913	     120.717227
	 B(2,6,16)        =         2.083008	     119.347540
	 B(3,1,5)         =         2.069565	     118.577327
	 B(3,7,11)        =         2.098573	     120.239400
	 B(3,7,17)        =         2.089919	     119.743525
	 B(4,2,6)         =         2.069568	     118.577524
	 B(4,8,12)        =         2.098576	     120.239573
	 B(4,8,18)        =         2.089917	     119.743450
	 B(5,9,11)        =         2.098580	     120.239765
	 B(5,9,19)        =         2.089918	     119.743467
	 B(6,10,12)       =         2.098573	     120.239380
	 B(6,10,20)       =         2.089914	     119.743272
	 B(7,3,13)        =         2.093131	     119.927561
	 B(7,11,9)        =         2.085822	     119.508771
	 B(7,11,21)       =         2.098682	     120.245624
	 B(8,4,14)        =         2.093121	     119.926989
	 B(8,12,10)       =         2.085826	     119.509004
	 B(8,12,22)       =         2.098686	     120.245841
	 B(9,5,15)        =         2.093117	     119.926794
	 B(9,11,21)       =         2.098682	     120.245604
	 B(10,6,16)       =         2.093131	     119.927558
	 B(10,12,22)      =         2.098674	     120.245154
	 B(11,7,17)       =         2.094663	     120.015377
	 B(11,9,19)       =         2.094658	     120.015063
	 B(12,8,18)       =         2.094662	     120.015275
	 B(12,10,20)      =         2.094668	     120.015655
	 D(1,2,4,8)       =         3.140450	     179.934524
	 D(1,2,4,14)      =        -0.018723	      -1.072748
	 D(1,2,6,10)      =         3.140373	     179.930103
	 D(1,2,6,16)      =        -0.018822	      -1.078412
	 D(1,3,7,11)      =         0.002360	       0.135235
	 D(1,3,7,17)      =         3.135681	     179.661315
	 D(1,5,9,11)      =         0.002369	       0.135720
	 D(1,5,9,19)      =         3.135674	     179.660893
	 D(2,1,3,7)       =         3.140433	     179.933553
	 D(2,1,3,13)      =        -0.018744	      -1.073936
	 D(2,1,5,9)       =         3.140396	     179.931413
	 D(2,1,5,15)      =        -0.018781	      -1.076100
	 D(2,4,8,12)      =         0.002392	       0.137059
	 D(2,4,8,18)      =         3.135704	     179.662619
	 D(2,6,10,12)     =         0.002349	       0.134575
	 D(2,6,10,20)     =         3.135681	     179.661294
	*D(3,1,2,4)       =        -0.804855	     -46.114797
	*D(3,1,2,6)       =         2.336830	     133.890471
	 D(3,1,5,9)       =        -0.001196	      -0.068507
	 D(3,1,5,15)      =         3.122813	     178.923980
	 D(3,7,11,9)      =        -0.001182	      -0.067702
	 D(3,7,11,21)     =         3.140392	     179.931220
	*D(4,2,1,5)       =         2.336739	     133.885285
	 D(4,2,6,10)      =        -0.001130	      -0.064740
	 D(4,2,6,16)      =         3.122861	     178.926745
	 D(4,8,12,10)     =        -0.001166	      -0.066825
	 D(4,8,12,22)     =         3.140417	     179.932639
	*D(5,1,2,6)       =        -0.804762	     -46.109448
	 D(5,1,3,7)       =        -0.001161	      -0.066527
	 D(5,1,3,13)      =         3.122848	     178.925985
	 D(5,9,11,7)      =        -0.001163	      -0.066655
	 D(5,9,11,21)     =         3.140448	     179.934423
	 D(6,2,4,8)       =        -0.001233	      -0.070633
	 D(6,2,4,14)      =         3.122780	     178.922095
	 D(6,10,12,8)     =        -0.001185	      -0.067870
	 D(6,10,12,22)    =         3.140417	     179.932666
	 D(7,11,9,19)     =        -3.134446	    -179.590534
	 D(8,12,10,20)    =        -3.134494	    -179.593294
	 D(9,11,7,17)     =        -3.134480	    -179.592488
	 D(10,12,8,18)    =        -3.134456	    -179.591090
	 D(11,7,3,13)     =        -3.121547	    -178.851455
	 D(11,9,5,15)     =        -3.121538	    -178.850964
	 D(12,8,4,14)     =        -3.121519	    -178.849864
	 D(12,10,6,16)    =        -3.121540	    -178.851083
	 D(13,3,7,17)     =         0.011774	       0.674625
	 D(14,4,8,18)     =         0.011793	       0.675696
	 D(15,5,9,19)     =         0.011767	       0.674210
	 D(16,6,10,20)    =         0.011792	       0.675635
	 D(17,7,11,21)    =         0.007094	       0.406434
	 D(18,8,12,22)    =         0.007127	       0.408374
	 D(19,9,11,21)    =         0.007165	       0.410544
	 D(20,10,12,22)   =         0.007108	       0.407243

	Current energy   :      -463.1301104989

	Energy change for the previous step:
		Projected    :        -0.0110606195
		Actual       :        -0.0056090158

	Performing BFGS update.
	Previous computed or guess Hessian on step 1.
	Steps to be used in Hessian update: 1
	Taking RFO optimization step.
	Going to follow RFO solution 1.
	Using RFO vector 1.
	Norm of target step-size    0.02773
	Projected energy change by RFO approximation:        -0.0001923448

	Back-transformation to cartesian coordinates...
	Could not converge backtransformation.
	Using first guess instead.

	Back-transformation to cartesian coordinates to adjust frozen coordinates...
	Successfully converged to displaced geometry.

	--- Internal Coordinate Step in ANG or DEG, aJ/ANG or AJ/DEG ---
	 ---------------------------------------------------------------------------
	   Coordinate                Previous        Force       Change         New 
	   ----------                --------       ------       ------       ------
	    1 R(1,2)          =      1.480067     0.034378     0.005924     1.485991
	    2 R(1,3)          =      1.397870     0.023943     0.003226     1.401096
	    3 R(1,5)          =      1.397860     0.023987     0.003232     1.401092
	    4 R(2,4)          =      1.397863     0.023975     0.003231     1.401093
	    5 R(2,6)          =      1.397867     0.023957     0.003228     1.401095
	    6 R(3,7)          =      1.390659     0.013049     0.001603     1.392263
	    7 R(3,13)         =      1.082276     0.000202    -0.000025     1.082251
	    8 R(4,8)          =      1.390663     0.013034     0.001602     1.392265
	    9 R(4,14)         =      1.082276     0.000197    -0.000026     1.082250
	   10 R(5,9)          =      1.390664     0.013036     0.001602     1.392265
[...]
	 R(9,19)          =         2.044300	       1.081797
	 R(10,12)         =         2.633494	       1.393585
	 R(10,20)         =         2.044300	       1.081797
	 R(11,21)         =         2.043641	       1.081448
	 R(12,22)         =         2.043641	       1.081448
	 B(1,2,4)         =         2.107395	     120.744831
	 B(1,2,6)         =         2.107392	     120.744673
	 B(1,3,7)         =         2.107573	     120.755045
	 B(1,3,13)        =         2.082841	     119.338014
	 B(1,5,9)         =         2.107572	     120.754971
	 B(1,5,15)        =         2.082849	     119.338437
	 B(2,1,3)         =         2.107387	     120.744406
	 B(2,1,5)         =         2.107400	     120.745140
	 B(2,4,8)         =         2.107572	     120.754966
	 B(2,4,14)        =         2.082847	     119.338354
	 B(2,6,10)        =         2.107572	     120.754996
	 B(2,6,16)        =         2.082843	     119.338094
	 B(3,1,5)         =         2.068398	     118.510455
	 B(3,7,11)        =         2.097728	     120.190965
	 B(3,7,17)        =         2.089974	     119.746696
	 B(4,2,6)         =         2.068398	     118.510496
	 B(4,8,12)        =         2.097729	     120.191034
	 B(4,8,18)        =         2.089973	     119.746612
	 B(5,9,11)        =         2.097730	     120.191088
	 B(5,9,19)        =         2.089972	     119.746590
	 B(6,10,12)       =         2.097728	     120.190987
	 B(6,10,20)       =         2.089973	     119.746609
	 B(7,3,13)        =         2.092546	     119.894036
	 B(7,11,9)        =         2.087368	     119.597357
	 B(7,11,21)       =         2.097909	     120.201336
	 B(8,4,14)        =         2.092541	     119.893763
	 B(8,12,10)       =         2.087368	     119.597402
	 B(8,12,22)       =         2.097910	     120.201387
	 B(9,5,15)        =         2.092539	     119.893673
	 B(9,11,21)       =         2.097909	     120.201307
	 B(10,6,16)       =         2.092545	     119.894001
	 B(10,12,22)      =         2.097907	     120.201212
	 B(11,7,17)       =         2.095447	     120.060295
	 B(11,9,19)       =         2.095447	     120.060276
	 B(12,8,18)       =         2.095448	     120.060306
	 B(12,10,20)      =         2.095449	     120.060362
	 D(1,2,4,8)       =         3.140758	     179.952191
	 D(1,2,4,14)      =        -0.023677	      -1.356584
	 D(1,2,6,10)      =         3.140631	     179.944873
	 D(1,2,6,16)      =        -0.023797	      -1.363475
	 D(1,3,7,11)      =         0.001806	       0.103496
	 D(1,3,7,17)      =         3.134328	     179.583769
	 D(1,5,9,11)      =         0.001798	       0.103021
	 D(1,5,9,19)      =         3.134315	     179.583039
	 D(2,1,3,7)       =         3.140684	     179.947949
	 D(2,1,3,13)      =        -0.023740	      -1.360229
	 D(2,1,5,9)       =         3.140703	     179.949031
	 D(2,1,5,15)      =        -0.023735	      -1.359892
	 D(2,4,8,12)      =         0.001812	       0.103799
	 D(2,4,8,18)      =         3.134324	     179.583548
	 D(2,6,10,12)     =         0.001790	       0.102549
	 D(2,6,10,20)     =         3.134317	     179.583140
	*D(3,1,2,4)       =        -0.804855	     -46.114797
	*D(3,1,2,6)       =         2.336830	     133.890471
	 D(3,1,5,9)       =        -0.000888	      -0.050889
	 D(3,1,5,15)      =         3.117859	     178.640187
	 D(3,7,11,9)      =        -0.000891	      -0.051043
	 D(3,7,11,21)     =         3.140701	     179.948927
	*D(4,2,1,5)       =         2.336739	     133.885285
	 D(4,2,6,10)      =        -0.000872	      -0.049975
	 D(4,2,6,16)      =         3.117885	     178.641677
	 D(4,8,12,10)     =        -0.000888	      -0.050885
	 D(4,8,12,22)     =         3.140701	     179.948893
	*D(5,1,2,6)       =        -0.804762	     -46.109448
	 D(5,1,3,7)       =        -0.000910	      -0.052131
	 D(5,1,3,13)      =         3.117851	     178.639692
	 D(5,9,11,7)      =        -0.000896	      -0.051361
	 D(5,9,11,21)     =         3.140697	     179.948669
	 D(6,2,4,8)       =        -0.000924	      -0.052961
	 D(6,2,4,14)      =         3.117826	     178.638264
	 D(6,10,12,8)     =        -0.000898	      -0.051435
	 D(6,10,12,22)    =         3.140699	     179.948787
	 D(7,11,9,19)     =        -3.133385	    -179.529738
	 D(8,12,10,20)    =        -3.133396	    -179.530387
	 D(9,11,7,17)     =        -3.133384	    -179.529677
	 D(10,12,8,18)    =        -3.133372	    -179.528993
	 D(11,7,3,13)     =        -3.116828	    -178.581088
	 D(11,9,5,15)     =        -3.116823	    -178.580824
	 D(12,8,4,14)     =        -3.116812	    -178.580193
	 D(12,10,6,16)    =        -3.116842	    -178.581865
	 D(13,3,7,17)     =         0.015694	       0.899184
	 D(14,4,8,18)     =         0.015700	       0.899556
	 D(15,5,9,19)     =         0.015694	       0.899194
	 D(16,6,10,20)    =         0.015686	       0.898725
	 D(17,7,11,21)    =         0.008208	       0.470293
	 D(18,8,12,22)    =         0.008217	       0.470785
	 D(19,9,11,21)    =         0.008208	       0.470291
	 D(20,10,12,22)   =         0.008200	       0.469835

	Current energy   :      -463.1301929817

	Energy change for the previous step:
		Projected    :        -0.0001923448
		Actual       :        -0.0000824828

	Performing BFGS update.
	Previous computed or guess Hessian on step 1.
	Steps to be used in Hessian update: 2 1
	Taking RFO optimization step.
	Going to follow RFO solution 1.
	Using RFO vector 1.
	Norm of target step-size    0.01404
	Projected energy change by RFO approximation:         0.0000064804

	Back-transformation to cartesian coordinates...
	Successfully converged to displaced geometry.

	Back-transformation to cartesian coordinates to adjust frozen coordinates...
	Successfully converged to displaced geometry.

	--- Internal Coordinate Step in ANG or DEG, aJ/ANG or AJ/DEG ---
	 ---------------------------------------------------------------------------
	   Coordinate                Previous        Force       Change         New 
	   ----------                --------       ------       ------       ------
	    1 R(1,2)          =      1.485991    -0.001672    -0.000170     1.485820
	    2 R(1,3)          =      1.401096    -0.002453    -0.000380     1.400716
	    3 R(1,5)          =      1.401092    -0.002438    -0.000378     1.400714
	    4 R(2,4)          =      1.401093    -0.002443    -0.000379     1.400714
	    5 R(2,6)          =      1.401095    -0.002447    -0.000380     1.400715
	    6 R(3,7)          =      1.392263    -0.000219    -0.000030     1.392232
	    7 R(3,13)         =      1.082251     0.000409     0.000056     1.082307
	    8 R(4,8)          =      1.392265    -0.000227    -0.000032     1.392233
	    9 R(4,14)         =      1.082250     0.000410     0.000056     1.082307
	   10 R(5,9)          =      1.392265    -0.000227    -0.000032     1.392234
	   11 R(5,15)         =      1.082251     0.000410     0.000056     1.082306
	   12 R(6,10)         =      1.392264    -0.000224    -0.000031     1.392233
	   13 R(6,16)         =      1.082251     0.000410     0.000056     1.082307
	   14 R(7,11)         =      1.393586    -0.000339    -0.000014     1.393572
	   15 R(7,17)         =      1.081797    -0.000130    -0.000039     1.081757
	   16 R(8,12)         =      1.393584    -0.000331    -0.000013     1.393571
	   17 R(8,18)         =      1.081797    -0.000130    -0.000039     1.081757
	   18 R(9,11)         =      1.393583    -0.000330    -0.000013     1.393570
	   19 R(9,19)         =      1.081797    -0.000130    -0.000039     1.081757
	   20 R(10,12)        =      1.393585    -0.000335    -0.000014     1.393571
	   21 R(10,20)        =      1.081797    -0.000130    -0.000039     1.081757
	   22 R(11,21)        =      1.081448     0.000318     0.000031     1.081479
	   23 R(12,22)        =      1.081448     0.000317     0.000031     1.081479
	   24 B(1,2,4)        =    120.744831    -0.000009    -0.024215   120.720615
	   25 B(1,2,6)        =    120.744673    -0.000009    -0.023812   120.720861
	   26 B(1,3,7)        =    120.755045    -0.000007    -0.022299   120.732746
	   27 B(1,3,13)       =    119.338014     0.000001    -0.001766   119.336248
	   28 B(1,5,9)        =    120.754971    -0.000007    -0.022278   120.732693
	   29 B(1,5,15)       =    119.338437     0.000001    -0.001997   119.336440
	   30 B(2,1,3)        =    120.744406    -0.000009    -0.023743   120.720663
	   31 B(2,1,5)        =    120.745140    -0.000009    -0.024322   120.720817
	   32 B(2,4,8)        =    120.754966    -0.000007    -0.022248   120.732718
	   33 B(2,4,14)       =    119.338354     0.000001    -0.001975   119.336379
	   34 B(2,6,10)       =    120.754996    -0.000007    -0.022280   120.732716
	   35 B(2,6,16)       =    119.338094     0.000001    -0.001783   119.336311
	   36 B(3,1,5)        =    118.510455     0.000018     0.048065   118.558519
	   37 B(3,7,11)       =    120.190965    -0.000002    -0.004312   120.186653
	   38 B(3,7,17)       =    119.746696     0.000001     0.002618   119.749314
	   39 B(4,2,6)        =    118.510496     0.000018     0.048028   118.558524
	   40 B(4,8,12)       =    120.191034    -0.000002    -0.004341   120.186693
	   41 B(4,8,18)       =    119.746612     0.000001     0.002610   119.749222
	   42 B(5,9,11)       =    120.191088    -0.000002    -0.004361   120.186726
	   43 B(5,9,19)       =    119.746590     0.000001     0.002603   119.749193
	   44 B(6,10,12)      =    120.190987    -0.000002    -0.004302   120.186686
	   45 B(6,10,20)      =    119.746609     0.000001     0.002665   119.749274
	   46 B(7,3,13)       =    119.894036     0.000007     0.028236   119.922272
	   47 B(7,11,9)       =    119.597357    -0.000000     0.004928   119.602285
	   48 B(7,11,21)      =    120.201336     0.000000    -0.002491   120.198845
	   49 B(8,4,14)       =    119.893763     0.000007     0.028421   119.922183
	   50 B(8,12,10)      =    119.597402    -0.000000     0.004887   119.602288
	   51 B(8,12,22)      =    120.201387     0.000000    -0.002509   120.198878
	   52 B(9,5,15)       =    119.893673     0.000007     0.028463   119.922136
	   53 B(9,11,21)      =    120.201307     0.000000    -0.002437   120.198870
	   54 B(10,6,16)      =    119.894001     0.000007     0.028228   119.922229
	   55 B(10,12,22)     =    120.201212     0.000000    -0.002378   120.198834
	   56 B(11,7,17)      =    120.060295     0.000001     0.002106   120.062400
	   57 B(11,9,19)      =    120.060276     0.000001     0.002174   120.062450
	   58 B(12,8,18)      =    120.060306     0.000001     0.002144   120.062451
	   59 B(12,10,20)     =    120.060362     0.000001     0.002050   120.062412
	   60 D(1,2,4,8)      =    179.952191    -0.000000    -0.040859   179.911333
	   61 D(1,2,4,14)     =     -1.356584     0.000001     0.192852    -1.163731
	   62 D(1,2,6,10)     =    179.944873    -0.000000    -0.039218   179.905655
	   63 D(1,2,6,16)     =     -1.363475     0.000001     0.192612    -1.170863
	   64 D(1,3,7,11)     =      0.103496     0.000000     0.079929     0.183425
	   65 D(1,3,7,17)     =    179.583769     0.000001     0.135245   179.719014
	   66 D(1,5,9,11)     =      0.103021     0.000000     0.080326     0.183347
	   67 D(1,5,9,19)     =    179.583039     0.000001     0.136085   179.719124
	   68 D(2,1,3,7)      =    179.947949    -0.000000    -0.039428   179.908521
	   69 D(2,1,3,13)     =     -1.360229     0.000001     0.192839    -1.167389
	   70 D(2,1,5,9)      =    179.949031    -0.000000    -0.040526   179.908505
	   71 D(2,1,5,15)     =     -1.359892     0.000001     0.192638    -1.167254
	   72 D(2,4,8,12)     =      0.103799     0.000000     0.080718     0.184517
	   73 D(2,4,8,18)     =    179.583548     0.000001     0.136177   179.719725
	   74 D(2,6,10,12)    =      0.102549     0.000000     0.079783     0.182333
	   75 D(2,6,10,20)    =    179.583140     0.000001     0.135239   179.718379
	   76 *D(3,1,2,4)     =    -46.114797    -0.000000    -0.000000   -46.114797
	   77 *D(3,1,2,6)     =    133.890471    -0.000000     0.000000   133.890471
	   78 D(3,1,5,9)      =     -0.050889    -0.000000    -0.040526    -0.091415
	   79 D(3,1,5,15)     =    178.640187     0.000001     0.192638   178.832826
	   80 D(3,7,11,9)     =     -0.051043    -0.000000    -0.039914    -0.090958
	   81 D(3,7,11,21)    =    179.948927    -0.000000    -0.039823   179.909104
	   82 *D(4,2,1,5)     =    133.885285    -0.000000    -0.000000   133.885285
	   83 D(4,2,6,10)     =     -0.049975    -0.000000    -0.039215    -0.089190
	   84 D(4,2,6,16)     =    178.641677     0.000001     0.192616   178.834293
	   85 D(4,8,12,10)    =     -0.050885    -0.000000    -0.039906    -0.090791
	   86 D(4,8,12,22)    =    179.948893    -0.000000    -0.040101   179.908791
	   87 *D(5,1,2,6)     =    -46.109448     0.000000     0.000000   -46.109448
	   88 D(5,1,3,7)      =     -0.052131    -0.000000    -0.039428    -0.091559
	   89 D(5,1,3,13)     =    178.639692     0.000001     0.192839   178.832531
	   90 D(5,9,11,7)     =     -0.051361    -0.000000    -0.039589    -0.090950
	   91 D(5,9,11,21)    =    179.948669    -0.000000    -0.039681   179.908988
	   92 D(6,2,4,8)      =     -0.052961    -0.000000    -0.040862    -0.093823
	   93 D(6,2,4,14)     =    178.638264     0.000001     0.192849   178.831113
	   94 D(6,10,12,8)    =     -0.051435    -0.000000    -0.039719    -0.091154
	   95 D(6,10,12,22)   =    179.948787    -0.000000    -0.039524   179.909263
	   96 D(7,11,9,19)    =   -179.529738    -0.000000    -0.095526  -179.625264
	   97 D(8,12,10,20)   =   -179.530387    -0.000000    -0.095353  -179.625740
	   98 D(9,11,7,17)    =   -179.529677    -0.000000    -0.095408  -179.625085
	   99 D(10,12,8,18)   =   -179.528993    -0.000000    -0.095542  -179.624535
	  100 D(11,7,3,13)    =   -178.581088    -0.000001    -0.153299  -178.734387
	  101 D(11,9,5,15)    =   -178.580824    -0.000001    -0.153796  -178.734620
	  102 D(12,8,4,14)    =   -178.580193    -0.000001    -0.153956  -178.734149
	  103 D(12,10,6,16)   =   -178.581865    -0.000001    -0.153005  -178.734870
	  104 D(13,3,7,17)    =      0.899184    -0.000000    -0.097982     0.801202
	  105 D(14,4,8,18)    =      0.899556    -0.000000    -0.098497     0.801059
	  106 D(15,5,9,19)    =      0.899194    -0.000000    -0.098037     0.801157
	  107 D(16,6,10,20)   =      0.898725    -0.000000    -0.097549     0.801177
	  108 D(17,7,11,21)   =      0.470293    -0.000000    -0.095316     0.374977
	  109 D(18,8,12,22)   =      0.470785    -0.000000    -0.095738     0.375047
	  110 D(19,9,11,21)   =      0.470291    -0.000000    -0.095618     0.374674
	  111 D(20,10,12,22)  =      0.469835    -0.000000    -0.095158     0.374678
	 ---------------------------------------------------------------------------
	Successfully symmetrized geometry.

  ==> Convergence Check <==

  Measures of convergence in internal coordinates in au.
  Criteria marked as inactive (o), active & met (*), and active & unmet ( ).
  ---------------------------------------------------------------------------------------------
   Step     Total Energy     Delta E     MAX Force     RMS Force      MAX Disp      RMS Disp   
  ---------------------------------------------------------------------------------------------
    Convergence Criteria             o    2.50e-03 *    1.70e-03 *    1.00e-02 *    6.70e-03 *
  ---------------------------------------------------------------------------------------------
      3    -463.13019298   -8.25e-05 o    2.98e-04 *    7.98e-05 *    3.37e-03 *    1.33e-03 *  ~
  ---------------------------------------------------------------------------------------------


  **** Optimization is complete! (in 3 steps) ****

  ==> Optimization Summary <==

  Measures of convergence in internal coordinates in au.
  --------------------------------------------------------------------------------------------------------------- ~
   Step         Total Energy             Delta E       MAX Force       RMS Force        MAX Disp        RMS Disp  ~
  --------------------------------------------------------------------------------------------------------------- ~
      1    -463.124501483088   -463.124501483088      0.02699820      0.00675905      0.06551337      0.01707168  ~
      2    -463.130110498903     -0.005609015815      0.00417267      0.00085774      0.01119479      0.00263159  ~
      3    -463.130192981680     -0.000082482777      0.00029779      0.00007978      0.00336591      0.00133283  ~
  --------------------------------------------------------------------------------------------------------------- ~

	Writing optimization data to binary file.
	Final energy is   -463.1301929816799
	Final (previous) structure:
	Cartesian Geometry (in Angstrom)
	    C     0.7408252307   0.0496198832  -0.0275244725
	    C    -0.7408322933  -0.0495521131   0.0274658735
	    C     1.3828252638   1.2835596220   0.1407006677
	    C    -1.4640276298   0.5868770043   1.0448195066
	    C     1.5271668800  -1.0887031996  -0.2487607890
	    C    -1.4459700969  -0.7816773518  -0.9368162069
	    C     2.7710635526   1.3765584301   0.0902925455
	    C    -2.8523100696   0.4949189752   1.0959781450
	    C     2.9153360177  -0.9958525645  -0.3013709981
	    C    -2.8340842811  -0.8756809807  -0.8848480774
	    C     3.5421844884   0.2371400375  -0.1314736260
	    C    -3.5421783970  -0.2371955162   0.1315271285
	    H     0.7875856227   2.1749579999   0.2902511881
	    H    -0.9313961261   1.1374990792   1.8092703086
	    H     1.0464761504  -2.0521265291  -0.3583877584
	    H    -0.9026724069  -1.2602597967  -1.7412120721
	    H     3.2494661428   2.3386999585   0.2155892095
	    H    -3.3938530469   0.9872294445   1.8926248795
	    H     3.5069800540  -1.8863675618  -0.4663702290
	    H    -3.3625810494  -1.4396773935  -1.6417388235
	    H     4.6204793674   0.3093180700  -0.1714818026
	    H    -4.6204688186  -0.3094188494   0.1715777757
	Saving final (previous) structure.
			--------------------------
			 OPTKING Finished Execution 
			--------------------------

    Final optimized geometry and variables:
    Molecular point group: c1
    Full point group: C1

    Geometry (in Angstrom), charge = 0, multiplicity = 1:

    C            0.740825233591     0.049619883413    -0.027524472608
    C           -0.740832296219    -0.049552113266     0.027465873608
    C            1.382825269232     1.283559627005     0.140700668302
    C           -1.464027635547     0.586877006595     1.044819510709
    C            1.527166886042    -1.088703203882    -0.248760789974
    C           -1.445970102544    -0.781677354882    -0.936816210562
    C            2.771063563465     1.376558435509     0.090292545849
    C           -2.852310080802     0.494918977187     1.095978149274
    C            2.915336029135    -0.995852568402    -0.301370999291
    C           -2.834084292238    -0.875680984156    -0.884848080842
    C            3.542184502369     0.237140038456    -0.131473626497
    C           -3.542178410957    -0.237195517123     0.131527129046
    H            0.787585625818     2.174958008472     0.290251189231
    H           -0.931396129748     1.137499083651     1.809270315712
    H            1.046476154526    -2.052126537124    -0.358387759795
    H           -0.902672410489    -1.260259801621    -1.741212078931
    H            3.249466155545     2.338699967675     0.215589210375
    H           -3.393853060260     0.987229448418     1.892624886975
    H            3.506980067809    -1.886367569189    -0.466370230831
    H           -3.362581062663    -1.439677399182    -1.641738829992
    H            4.620479385606     0.309318071172    -0.171481803247
    H           -4.620468836806    -0.309418850579     0.171577776375

	Removing binary optimization data file.
	Cleaning optimization helper files.

    Psi4 stopped on: Monday, 31 May 2021 05:15PM
    Psi4 wall time for execution: 0:01:57.07

*** Psi4 exiting successfully. Buy a developer a beer!
