
    -----------------------------------------------------------------------
          Psi4: An Open-Source Ab Initio Electronic Structure Package
                               Psi4 1.3.2 release

                         Git: Rev {HEAD} ecbda83 


    R. M. Parrish, L. A. Burns, D. G. A. Smith, A. C. Simmonett,
    A. E. DePrince III, E. G. Hohenstein, U. Bozkaya, A. Yu. Sokolov,
    R. Di Remigio, R. M. Richard, J. F. Gonthier, A. M. James,
    H. R. McAlexander, A. Kumar, M. Saitow, X. Wang, B. P. Pritchard,
    P. Verma, H. F. Schaefer III, K. Patkowski, R. A. King, E. F. Valeev,
    F. A. Evangelista, J. M. Turney, T. D. Crawford, and C. D. Sherrill,
    J. Chem. Theory Comput. 13(7) pp 3185--3197 (2017).
    (doi: 10.1021/acs.jctc.7b00174)


                         Additional Contributions by
    P. Kraus, H. Kruse, M. H. Lechner, M. C. Schieber, R. A. Shaw,
    A. Alenaizan, R. Galvelis, Z. L. Glick, S. Lehtola, and J. P. Misiewicz

    -----------------------------------------------------------------------


    Psi4 started on: Monday, 31 May 2021 05:15PM

    Process ID: 29787
    Host:       daniele-Precision-5750
    PSIDATADIR: /home/daniele/anaconda3/envs/poltype/share/psi4
    Memory:     500.0 MiB
    Threads:    1
    
  ==> Input File <==

--------------------------------------------------------------------------
molecule { 
0 1
 C    0.756407    0.050776   -0.028320
 C   -0.756508   -0.050563    0.027834
 C    1.449466    1.218275    0.448230
 C   -1.538647    0.833065    0.851227
 C    1.561671   -1.016344   -0.560642
 C   -1.472716   -1.034430   -0.740013
 C    2.854693    1.301868    0.392509
 C   -2.943072    0.731298    0.895461
 C    2.965761   -0.911789   -0.609172
 C   -2.877589   -1.120729   -0.679887
 C    3.611134    0.241991   -0.134360
 C   -3.611252   -0.241620    0.133794
 H    0.908999    2.070719    0.851803
 H   -1.068184    1.593113    1.469811
 H    1.111229   -1.935156   -0.927375
 H   -0.952245   -1.728182   -1.395320
 H    3.358425    2.195259    0.757982
 H   -3.515069    1.409787    1.526283
 H    3.555619   -1.731921   -1.015260
 H   -3.399205   -1.872398   -1.270125
 H    4.696536    0.314688   -0.174656
 H   -4.696652   -0.314263    0.174090
}
set optking { 
  frozen_dihedral = ("
    3 1 2 4
    3 1 2 6
    5 1 2 4
    5 1 2 6
  ")
}
set {
  geom_maxiter 400
  g_convergence GAU_LOOSE
  dynamic_level 1
}
memory 700MB
set_num_threads(3)
psi4_io.set_default_path("/home/daniele/PSI4_sctatch/Psi4-biphenyl")
for _ in range(1):
  try:
    set opt_coordinates both
    optimize('wb97x-d/6-311G')
    break
  except OptimizationConvergenceError:
    break
  else:
    try:
      set opt_coordinates cartesian
      optimize('wb97x-d/6-311G')
      break
    except OptimizationConvergenceError:
      pass
clean()
--------------------------------------------------------------------------

  Memory set to 667.572 MiB by Python driver.
  Threads set to 3 by Python driver.
gradient() will perform analytic gradient computation.

*** tstart() called on daniele-Precision-5750
*** at Mon May 31 17:15:39 2021

   => Loading Basis Set <=

    Name: 6-311G
    Role: ORBITAL
    Keyword: BASIS
    atoms 1-12  entry C          line    92 file /home/daniele/anaconda3/envs/poltype/share/psi4/basis/6-311g.gbs 
    atoms 13-22 entry H          line    21 file /home/daniele/anaconda3/envs/poltype/share/psi4/basis/6-311g.gbs 


         ---------------------------------------------------------
                                   SCF
               by Justin Turney, Rob Parrish, Andy Simmonett
                          and Daniel G. A. Smith
                              RKS Reference
                        3 Threads,    667 MiB Core
         ---------------------------------------------------------

  ==> Geometry <==

    Molecular point group: c1
    Full point group: C1

    Geometry (in Angstrom), charge = 0, multiplicity = 1:

       Center              X                  Y                   Z               Mass       
    ------------   -----------------  -----------------  -----------------  -----------------
         C            0.756461357317     0.050625200780    -0.028041851385    12.000000000000
         C           -0.756453642683    -0.050713799220     0.028112148615    12.000000000000
         C            1.449520357317     1.218124200780     0.448508148615    12.000000000000
         C           -1.538592642683     0.832914200780     0.851505148615    12.000000000000
         C            1.561725357317    -1.016494799220    -0.560363851385    12.000000000000
         C           -1.472661642683    -1.034580799220    -0.739734851385    12.000000000000
         C            2.854747357317     1.301717200780     0.392787148615    12.000000000000
         C           -2.943017642683     0.731147200780     0.895739148615    12.000000000000
         C            2.965815357317    -0.911939799220    -0.608893851385    12.000000000000
         C           -2.877534642683    -1.120879799220    -0.679608851385    12.000000000000
         C            3.611188357317     0.241840200780    -0.134081851385    12.000000000000
         C           -3.611197642683    -0.241770799220     0.134072148615    12.000000000000
         H            0.909053357317     2.070568200780     0.852081148615     1.007825032230
         H           -1.068129642683     1.592962200780     1.470089148615     1.007825032230
         H            1.111283357317    -1.935306799220    -0.927096851385     1.007825032230
         H           -0.952190642683    -1.728332799220    -1.395041851385     1.007825032230
         H            3.358479357317     2.195108200780     0.758260148615     1.007825032230
         H           -3.515014642683     1.409636200780     1.526561148615     1.007825032230
         H            3.555673357317    -1.732071799220    -1.014981851385     1.007825032230
         H           -3.399150642683    -1.872548799220    -1.269846851385     1.007825032230
         H            4.696590357317     0.314537200780    -0.174377851385     1.007825032230
         H           -4.696597642683    -0.314413799220     0.174368148615     1.007825032230

  Running in c1 symmetry.

  Rotational constants: A =      0.09291  B =      0.01778  C =      0.01502 [cm^-1]
  Rotational constants: A =   2785.45743  B =    533.14039  C =    450.36246 [MHz]
  Nuclear repulsion =  590.025656694972668

  Charge       = 0
  Multiplicity = 1
  Electrons    = 82
  Nalpha       = 41
  Nbeta        = 41

  ==> Algorithm <==

  SCF Algorithm Type is DF.
  DIIS enabled.
  MOM disabled.
  Fractional occupation disabled.
  Guess Type is SAD.
  Energy threshold   = 1.00e-08
  Density threshold  = 1.00e-08
  Integral threshold = 0.00e+00

  ==> Primary Basis <==

  Basis Set: 6-311G
    Blend: 6-311G
    Number of shells: 114
    Number of basis function: 186
    Number of Cartesian functions: 186
    Spherical Harmonics?: true
    Max angular momentum: 1

  ==> DFT Potential <==

   => Composite Functional: WB97X-D <= 

    wB97X-D Hyb-GGA Exchange-Correlation Functional

    J.-D. Chai and M. Head-Gordon, Phys. Chem. Chem. Phys. 10, 6615 (2008)

    Deriv               =              1
    GGA                 =           TRUE
    Meta                =          FALSE

    Exchange Hybrid     =           TRUE
    MP2 Hybrid          =          FALSE

   => Exchange-Correlation Functionals <=

    1.0000   wB97D range-separated functional

   => Exact (HF) Exchange <=

    0.7780            HF,LR [omega = 0.2000]
    0.2220               HF 

   => Molecular Quadrature <=

    Radial Scheme          =       TREUTLER
    Pruning Scheme         =           FLAT
    Nuclear Scheme         =       TREUTLER

    BS radius alpha        =              1
    Pruning alpha          =              1
    Radial Points          =             75
    Spherical Points       =            302
    Total Points           =         491180
    Total Blocks           =           3656
    Max Points             =            256
    Max Functions          =            151

   => WB97X-D: Empirical Dispersion <=

    Chai and Head-Gordon Dispersion Correction
    Chai, J.-D.; Head-Gordon, M. (2010), J. Chem. Phys., 132: 6615-6620

        s6 =       1.000000

   => Loading Basis Set <=

    Name: (6-311G AUX)
    Role: JKFIT
    Keyword: DF_BASIS_SCF
    atoms 1-12  entry C          line   125 file /home/daniele/anaconda3/envs/poltype/share/psi4/basis/cc-pvtz-jkfit.gbs 
    atoms 13-22 entry H          line    51 file /home/daniele/anaconda3/envs/poltype/share/psi4/basis/cc-pvtz-jkfit.gbs 

  ==> Pre-Iterations <==

   -------------------------------------------------------
    Irrep   Nso     Nmo     Nalpha   Nbeta   Ndocc  Nsocc
   -------------------------------------------------------
     A        186     186       0       0       0       0
   -------------------------------------------------------
    Total     186     186      41      41      41       0
   -------------------------------------------------------

  ==> Integral Setup <==

  ==> DiskDFJK: Density-Fitted J/K Matrices <==

    J tasked:                  Yes
    K tasked:                  Yes
    wK tasked:                 Yes
    Omega:               2.000E-01
    OpenMP threads:              3
    Integrals threads:           3
    Memory [MiB]:              171
    Algorithm:                Disk
    Integral Cache:           NONE
    Schwarz Cutoff:          1E-12
    Fitting Condition:       1E-10

   => Auxiliary Basis Set <=

  Basis Set: (6-311G AUX)
    Blend: CC-PVTZ-JKFIT
    Number of shells: 400
    Number of basis function: 1248
    Number of Cartesian functions: 1502
    Spherical Harmonics?: true
    Max angular momentum: 4

  Cached 25.0% of DFT collocation blocks in 0.380 [GiB].

  Minimum eigenvalue in the overlap matrix is 2.5066692959E-04.
  Using Symmetric Orthogonalization.

  SCF Guess: Superposition of Atomic Densities via on-the-fly atomic UHF.

  ==> Iterations <==

                           Total Energy        Delta E     RMS |[F,P]|

   @DF-RKS iter SAD:  -462.18983403926023   -4.62190e+02   0.00000e+00 
   @DF-RKS iter   1:  -462.81396297690048   -6.24129e-01   3.94819e-03 DIIS
   @DF-RKS iter   2:  -463.00868754985527   -1.94725e-01   2.47244e-03 DIIS
   @DF-RKS iter   3:  -463.11827031136210   -1.09583e-01   3.03970e-04 DIIS
   @DF-RKS iter   4:  -463.11930402554833   -1.03371e-03   2.19275e-04 DIIS
   @DF-RKS iter   5:  -463.12025733862481   -9.53313e-04   1.52498e-05 DIIS
   @DF-RKS iter   6:  -463.12026361099174   -6.27237e-06   5.51532e-06 DIIS
   @DF-RKS iter   7:  -463.12026416611025   -5.55119e-07   1.66236e-06 DIIS
   @DF-RKS iter   8:  -463.12026424562617   -7.95159e-08   2.31968e-07 DIIS
   @DF-RKS iter   9:  -463.12026425010157   -4.47540e-09   1.25598e-07 DIIS
   @DF-RKS iter  10:  -463.12026425050874   -4.07169e-10   2.93697e-08 DIIS
   @DF-RKS iter  11:  -463.12026425055171   -4.29736e-11   1.82025e-09 DIIS
  Energy and wave function converged.


  ==> Post-Iterations <==

    Orbital Energies [Eh]
    ---------------------

    Doubly Occupied:                                                      

       1A    -10.321949     2A    -10.321724     3A    -10.301922  
       4A    -10.301918     5A    -10.301913     6A    -10.301907  
       7A    -10.299158     8A    -10.299155     9A    -10.299094  
      10A    -10.299092    11A    -10.296932    12A    -10.296930  
      13A     -0.969138    14A     -0.950514    15A     -0.878758  
      16A     -0.855277    17A     -0.847196    18A     -0.822994  
      19A     -0.725904    20A     -0.718182    21A     -0.686841  
      22A     -0.677438    23A     -0.629136    24A     -0.592805  
      25A     -0.569715    26A     -0.557578    27A     -0.534743  
      28A     -0.521349    29A     -0.521267    30A     -0.512987  
      31A     -0.505779    32A     -0.472721    33A     -0.450924  
      34A     -0.447248    35A     -0.443328    36A     -0.425572  
      37A     -0.417901    38A     -0.364027    39A     -0.334944  
      40A     -0.331051    41A     -0.295178  

    Virtual:                                                              

      42A      0.020715    43A      0.049868    44A      0.066912  
      45A      0.098281    46A      0.120147    47A      0.132299  
      48A      0.142533    49A      0.159587    50A      0.166727  
      51A      0.186555    52A      0.187122    53A      0.204316  
      54A      0.205332    55A      0.248844    56A      0.253101  
      57A      0.257053    58A      0.294106    59A      0.309228  
      60A      0.325450    61A      0.333811    62A      0.358980  
      63A      0.363353    64A      0.371091    65A      0.403486  
      66A      0.405842    67A      0.407911    68A      0.426296  
      69A      0.455588    70A      0.456380    71A      0.468169  
      72A      0.468622    73A      0.478463    74A      0.490024  
      75A      0.503506    76A      0.504826    77A      0.513118  
      78A      0.513242    79A      0.520561    80A      0.523071  
      81A      0.541698    82A      0.547997    83A      0.551517  
      84A      0.563134    85A      0.569872    86A      0.579741  
      87A      0.582490    88A      0.600108    89A      0.617144  
      90A      0.651032    91A      0.666218    92A      0.675040  
      93A      0.676476    94A      0.690180    95A      0.695198  
      96A      0.697188    97A      0.699681    98A      0.710396  
      99A      0.723087   100A      0.730172   101A      0.735954  
     102A      0.736130   103A      0.754992   104A      0.776788  
     105A      0.839013   106A      0.846335   107A      0.849544  
     108A      0.851004   109A      0.859966   110A      0.864190  
     111A      0.873507   112A      0.905187   113A      0.911030  
     114A      0.917205   115A      0.948041   116A      0.952552  
     117A      0.995245   118A      0.997893   119A      1.010691  
     120A      1.012725   121A      1.084165   122A      1.095149  
     123A      1.154129   124A      1.173236   125A      1.184845  
     126A      1.202323   127A      1.350973   128A      1.377392  
     129A      2.273497   130A      2.308378   131A      2.310954  
     132A      2.364703   133A      2.371256   134A      2.413513  
     135A      2.447923   136A      2.497774   137A      2.597371  
     138A      2.610262   139A      2.623103   140A      2.630152  
     141A      2.648837   142A      2.661050   143A      2.668880  
     144A      2.707099   145A      2.760271   146A      2.799372  
     147A      2.813715   148A      2.822361   149A      2.825793  
     150A      2.837467   151A      2.859434   152A      2.882380  
     153A      2.955000   154A      2.958269   155A      2.979351  
     156A      2.984838   157A      2.996765   158A      3.041839  
     159A      3.073091   160A      3.149107   161A      3.175566  
     162A      3.224114   163A      3.228666   164A      3.248519  
     165A      3.266925   166A      3.280409   167A      3.318123  
     168A      3.335487   169A      3.340022   170A      3.345329  
     171A      3.374887   172A      3.431026   173A      3.459885  
     174A      3.615638   175A     23.213272   176A     23.311540  
     177A     23.454819   178A     23.463778   179A     23.483561  
     180A     23.534406   181A     23.689718   182A     23.753162  
     183A     23.753701   184A     23.758529   185A     23.967976  
     186A     23.975515  

    Final Occupation by Irrep:
              A 
    DOCC [    41 ]

  @DF-RKS Final Energy:  -463.12026425055171

   => Energetics <=

    Nuclear Repulsion Energy =            590.0256566949726675
    One-Electron Energy =               -1792.9202217723127433
    Two-Electron Energy =                 786.8794450884442995
    DFT Exchange-Correlation Energy =     -47.0932950387071259
    Empirical Dispersion Energy =          -0.0118492229488636
    VV10 Nonlocal Energy =                  0.0000000000000000
    Total Energy =                       -463.1202642505517701

Computation Completed


Properties will be evaluated at   0.000000,   0.000000,   0.000000 [a0]

Properties computed using the SCF density matrix

  Nuclear Dipole Moment: [e a0]
     X:    -0.0000      Y:     0.0001      Z:     0.0000

  Electronic Dipole Moment: [e a0]
     X:     0.0000      Y:    -0.0001      Z:    -0.0000

  Dipole Moment: [e a0]
     X:     0.0000      Y:    -0.0000      Z:     0.0000     Total:     0.0000

  Dipole Moment: [D]
     X:     0.0000      Y:    -0.0000      Z:     0.0000     Total:     0.0000


*** tstop() called on daniele-Precision-5750 at Mon May 31 17:16:06 2021
Module time:
	user time   =      74.18 seconds =       1.24 minutes
	system time =       3.35 seconds =       0.06 minutes
	total time  =         27 seconds =       0.45 minutes
Total time:
	user time   =      74.18 seconds =       1.24 minutes
	system time =       3.35 seconds =       0.06 minutes
	total time  =         27 seconds =       0.45 minutes

*** tstart() called on daniele-Precision-5750
*** at Mon May 31 17:16:06 2021


         ------------------------------------------------------------
                                   SCF GRAD                          
                          Rob Parrish, Justin Turney,                
                       Andy Simmonett, and Alex Sokolov              
         ------------------------------------------------------------

  ==> Geometry <==

    Molecular point group: c1
    Full point group: C1

    Geometry (in Angstrom), charge = 0, multiplicity = 1:

       Center              X                  Y                   Z               Mass       
    ------------   -----------------  -----------------  -----------------  -----------------
         C            0.756461357317     0.050625200780    -0.028041851385    12.000000000000
         C           -0.756453642683    -0.050713799220     0.028112148615    12.000000000000
         C            1.449520357317     1.218124200780     0.448508148615    12.000000000000
         C           -1.538592642683     0.832914200780     0.851505148615    12.000000000000
         C            1.561725357317    -1.016494799220    -0.560363851385    12.000000000000
         C           -1.472661642683    -1.034580799220    -0.739734851385    12.000000000000
         C            2.854747357317     1.301717200780     0.392787148615    12.000000000000
         C           -2.943017642683     0.731147200780     0.895739148615    12.000000000000
         C            2.965815357317    -0.911939799220    -0.608893851385    12.000000000000
         C           -2.877534642683    -1.120879799220    -0.679608851385    12.000000000000
         C            3.611188357317     0.241840200780    -0.134081851385    12.000000000000
         C           -3.611197642683    -0.241770799220     0.134072148615    12.000000000000
         H            0.909053357317     2.070568200780     0.852081148615     1.007825032230
         H           -1.068129642683     1.592962200780     1.470089148615     1.007825032230
         H            1.111283357317    -1.935306799220    -0.927096851385     1.007825032230
         H           -0.952190642683    -1.728332799220    -1.395041851385     1.007825032230
         H            3.358479357317     2.195108200780     0.758260148615     1.007825032230
         H           -3.515014642683     1.409636200780     1.526561148615     1.007825032230
         H            3.555673357317    -1.732071799220    -1.014981851385     1.007825032230
         H           -3.399150642683    -1.872548799220    -1.269846851385     1.007825032230
         H            4.696590357317     0.314537200780    -0.174377851385     1.007825032230
         H           -4.696597642683    -0.314413799220     0.174368148615     1.007825032230

  Nuclear repulsion =  590.025656694972668

  ==> Basis Set <==

  Basis Set: 6-311G
    Blend: 6-311G
    Number of shells: 114
    Number of basis function: 186
    Number of Cartesian functions: 186
    Spherical Harmonics?: true
    Max angular momentum: 1

  ==> DFJKGrad: Density-Fitted SCF Gradients <==

    Gradient:                    1
    J tasked:                  Yes
    K tasked:                  Yes
    wK tasked:                 Yes
    Omega:               2.000E-01
    OpenMP threads:              3
    Integrals threads:           3
    Memory [MiB]:              500
    Schwarz Cutoff:          0E+00
    Fitting Condition:       1E-10

   => Auxiliary Basis Set <=

  Basis Set: (6-311G AUX)
    Blend: CC-PVTZ-JKFIT
    Number of shells: 400
    Number of basis function: 1248
    Number of Cartesian functions: 1502
    Spherical Harmonics?: true
    Max angular momentum: 4

  ==> DFT Potential <==

   => Composite Functional: WB97X-D <= 

    wB97X-D Hyb-GGA Exchange-Correlation Functional

    J.-D. Chai and M. Head-Gordon, Phys. Chem. Chem. Phys. 10, 6615 (2008)

    Deriv               =              1
    GGA                 =           TRUE
    Meta                =          FALSE

    Exchange Hybrid     =           TRUE
    MP2 Hybrid          =          FALSE

   => Exchange-Correlation Functionals <=

    1.0000   wB97D range-separated functional

   => Exact (HF) Exchange <=

    0.7780            HF,LR [omega = 0.2000]
    0.2220               HF 

   => Molecular Quadrature <=

    Radial Scheme          =       TREUTLER
    Pruning Scheme         =           FLAT
    Nuclear Scheme         =       TREUTLER

    BS radius alpha        =              1
    Pruning alpha          =              1
    Radial Points          =             75
    Spherical Points       =            302
    Total Points           =         491180
    Total Blocks           =           3656
    Max Points             =            256
    Max Functions          =            151


  -Total Gradient:
     Atom            X                  Y                   Z
    ------   -----------------  -----------------  -----------------
       1       -0.012584362311    -0.000832346609     0.000491556247
       2        0.012587695869     0.000829165210    -0.000459755756
       3       -0.001555601860     0.017757912141     0.008510997409
       4        0.000108403721     0.015344648670     0.012438935376
       5        0.000193718001    -0.017860239438    -0.008495833738
       6        0.001231335341    -0.015252087871    -0.012521711108
       7        0.007605559354     0.008417081200     0.003001742076
       8       -0.008211022718     0.005813753425     0.006035209601
       9        0.008418884328    -0.007350302219    -0.003586063544
      10       -0.007784504242    -0.006891013116    -0.005426066070
      11        0.005472653781     0.000370636579    -0.000205122636
      12       -0.005485334454    -0.000365328330     0.000198867068
      13        0.000541055404     0.004666648536     0.002605656423
      14       -0.000927387820     0.004303599647     0.003085182936
      15        0.000967347873    -0.004559347818    -0.002655286837
      16       -0.000577702572    -0.004397605568    -0.003017963419
      17        0.003073093026     0.003620014627     0.001544369811
      18       -0.003349837952     0.002742820347     0.002487965451
      19        0.003404002225    -0.003184148907    -0.001783866342
      20       -0.003131158374    -0.003176359763    -0.002248877362
      21        0.004706914079     0.000315953482    -0.000174873639
      22       -0.004703734723    -0.000313615026     0.000174978124


*** tstop() called on daniele-Precision-5750 at Mon May 31 17:16:20 2021
Module time:
	user time   =      40.81 seconds =       0.68 minutes
	system time =       0.55 seconds =       0.01 minutes
	total time  =         14 seconds =       0.23 minutes
Total time:
	user time   =     115.00 seconds =       1.92 minutes
	system time =       3.90 seconds =       0.07 minutes
	total time  =         41 seconds =       0.68 minutes

			-----------------------------------------
			 OPTKING 2.0: for geometry optimizations 
			  - R.A. King,  Bethel University        
			-----------------------------------------
	At level 1: Red. Int., RFO, no backsteps, dynamic trust

	Internal coordinates to be generated automatically.
	Detected frag 1 with atoms:  1 2 3 4 5 6 7 8 9 10 11 12 13 14 15 16 17 18 19 20
	 21 22
	---Fragment 1 Bond Connectivity---
	 1 : 2 3 5
	 2 : 1 4 6
	 3 : 1 7 13
	 4 : 2 8 14
	 5 : 1 9 15
	 6 : 2 10 16
	 7 : 3 11 17
	 8 : 4 12 18
	 9 : 5 11 19
	 10 : 6 12 20
	 11 : 7 9 21
	 12 : 8 10 22
	 13 : 3
	 14 : 4
	 15 : 5
	 16 : 6
	 17 : 7
	 18 : 8
	 19 : 9
	 20 : 10
	 21 : 11
	 22 : 12

	Assuming in current code that numbering for constraints corresponds to unified fragment.
	Frozen dihedral atom list: 
	     3     1     2     4
	     3     1     2     6
	     5     1     2     4
	     5     1     2     6
	---Fragment 1 Geometry and Gradient---
	 C           1.4295047898        0.0956677645       -0.0529914192
	 C          -1.4294902113       -0.0958351913        0.0531242617
	 C           2.7391964886        2.3019211263        0.8475575659
	 C          -2.9075187133        1.5739797255        1.6091115253
	 C           2.9512332085       -1.9208967785       -1.0589342097
	 C          -2.7829271801       -1.9550743652       -1.3978962746
	 C           5.3946906627        2.4598890023        0.7422601365
	 C          -5.5614973271        1.3816679669        1.6927016707
	 C           5.6045787640       -1.7233164634       -1.1506426186
	 C          -5.4377523912       -2.1181558401       -1.2842746016
	 C           6.8241569828        0.4570117456       -0.2533779775
	 C          -6.8241745296       -0.4568805957        0.2533596419
	 H           1.7178618788        3.9128068236        1.6102000075
	 H          -2.0184724912        3.0102622877        2.7780658709
	 H           2.1000211931       -3.6571998193       -1.7519591409
	 H          -1.7993795339       -3.2660756442       -2.6362470327
	 H           6.3466061833        4.1481533152        1.4329040127
	 H          -6.6424150016        2.6638263560        2.8847824846
	 H           6.7192488369       -3.2731413302       -1.9180377214
	 H          -6.4234637738       -3.5386043871       -2.3996627704
	 H           8.8752694988        0.5943891657       -0.3295263815
	 H          -8.8752832661       -0.5941559706        0.3295080459
	            -0.0125843623       -0.0008323466        0.0004915562
	             0.0125876959        0.0008291652       -0.0004597558
	            -0.0015556019        0.0177579121        0.0085109974
	             0.0001084037        0.0153446487        0.0124389354
	             0.0001937180       -0.0178602394       -0.0084958337
	             0.0012313353       -0.0152520879       -0.0125217111
	             0.0076055594        0.0084170812        0.0030017421
	            -0.0082110227        0.0058137534        0.0060352096
	             0.0084188843       -0.0073503022       -0.0035860635
	            -0.0077845042       -0.0068910131       -0.0054260661
	             0.0054726538        0.0003706366       -0.0002051226
	            -0.0054853345       -0.0003653283        0.0001988671
	             0.0005410554        0.0046666485        0.0026056564
	            -0.0009273878        0.0043035996        0.0030851829
	             0.0009673479       -0.0045593478       -0.0026552868
	            -0.0005777026       -0.0043976056       -0.0030179634
	             0.0030730930        0.0036200146        0.0015443698
	            -0.0033498380        0.0027428203        0.0024879655
	             0.0034040022       -0.0031841489       -0.0017838663
	            -0.0031311584       -0.0031763598       -0.0022488774
	             0.0047069141        0.0003159535       -0.0001748736
	            -0.0047037347       -0.0003136150        0.0001749781

	Previous optimization step data not found.  Starting new optimization.

	---Fragment 1 Intrafragment Coordinates---
	 - Coordinate -           - BOHR/RAD -       - ANG/DEG -
	 R(1,2)           =         2.867366	       1.517345
	 R(1,3)           =         2.719161	       1.438918
	 R(1,5)           =         2.719211	       1.438945
	 R(2,4)           =         2.719181	       1.438929
	 R(2,6)           =         2.719195	       1.438936
	 R(3,7)           =         2.662272	       1.408814
	 R(3,13)          =         2.054191	       1.087031
	 R(4,8)           =         2.662250	       1.408802
	 R(4,14)          =         2.054207	       1.087039
	 R(5,9)           =         2.662272	       1.408814
	 R(5,15)          =         2.054165	       1.087017
	 R(6,10)          =         2.662255	       1.408805
	 R(6,16)          =         2.054167	       1.087018
	 R(7,11)          =         2.654465	       1.404683
	 R(7,17)          =         2.057515	       1.088790
	 R(8,12)          =         2.654491	       1.404696
	 R(8,18)          =         2.057515	       1.088790
	 R(9,11)          =         2.654484	       1.404692
	 R(9,19)          =         2.057509	       1.088787
	 R(10,12)         =         2.654491	       1.404696
	 R(10,20)         =         2.057521	       1.088793
	 R(11,21)         =         2.057118	       1.088580
	 R(12,22)         =         2.057107	       1.088574
	 B(1,2,4)         =         2.120147	     121.475474
	 B(1,2,6)         =         2.120223	     121.479835
	 B(1,3,7)         =         2.112354	     121.028954
	 B(1,3,13)        =         2.117361	     121.315852
	 B(1,5,9)         =         2.112330	     121.027580
	 B(1,5,15)        =         2.117360	     121.315782
	 B(2,1,3)         =         2.120201	     121.478561
	 B(2,1,5)         =         2.120165	     121.476514
	 B(2,4,8)         =         2.112358	     121.029217
	 B(2,4,14)        =         2.117348	     121.315119
	 B(2,6,10)        =         2.112335	     121.027885
	 B(2,6,16)        =         2.117357	     121.315598
	 B(3,1,5)         =         2.042819	     117.044925
	 B(3,7,11)        =         2.102738	     120.477987
	 B(3,7,17)        =         2.090803	     119.794191
	 B(4,2,6)         =         2.042815	     117.044690
	 B(4,8,12)        =         2.102735	     120.477858
	 B(4,8,18)        =         2.090814	     119.794817
	 B(5,9,11)        =         2.102746	     120.478485
	 B(5,9,19)        =         2.090803	     119.794197
	 B(6,10,12)       =         2.102753	     120.478878
	 B(6,10,20)       =         2.090812	     119.794708
	 B(7,3,13)        =         2.053395	     117.650895
	 B(7,11,9)        =         2.093382	     119.941958
	 B(7,11,21)       =         2.094900	     120.028942
	 B(8,4,14)        =         2.053401	     117.651227
	 B(8,12,10)       =         2.093372	     119.941362
	 B(8,12,22)       =         2.094900	     120.028916
	 B(9,5,15)        =         2.053418	     117.652204
	 B(9,11,21)       =         2.094903	     120.029100
	 B(10,6,16)       =         2.053419	     117.652215
	 B(10,12,22)      =         2.094914	     120.029722
	 B(11,7,17)       =         2.089641	     119.727636
	 B(11,9,19)       =         2.089633	     119.727142
	 B(12,8,18)       =         2.089633	     119.727152
	 B(12,10,20)      =         2.089617	     119.726227
	 D(1,2,4,8)       =         3.140734	     179.950810
	 D(1,2,4,14)      =        -0.014549	      -0.833583
	 D(1,2,6,10)      =         3.140737	     179.950970
	 D(1,2,6,16)      =        -0.014336	      -0.821388
	 D(1,3,7,11)      =         0.001819	       0.104239
	 D(1,3,7,17)      =         3.140672	     179.947236
	 D(1,5,9,11)      =         0.001648	       0.094432
	 D(1,5,9,19)      =         3.140575	     179.941671
	 D(2,1,3,7)       =         3.140721	     179.950068
	 D(2,1,3,13)      =        -0.014346	      -0.821978
	 D(2,1,5,9)       =         3.140745	     179.951434
	 D(2,1,5,15)      =        -0.014533	      -0.832684
	 D(2,4,8,12)      =         0.001647	       0.094367
	 D(2,4,8,18)      =         3.140593	     179.942743
	 D(2,6,10,12)     =         0.001811	       0.103743
	 D(2,6,10,20)     =         3.140644	     179.945660
	*D(3,1,2,4)       =        -0.282066	     -16.161200
	*D(3,1,2,6)       =         2.859419	     163.832669
	 D(3,1,5,9)       =        -0.000729	      -0.041749
	 D(3,1,5,15)      =         3.127179	     179.174133
	 D(3,7,11,9)      =        -0.000897	      -0.051386
	 D(3,7,11,21)     =         3.140711	     179.949481
	*D(4,2,1,5)       =         2.859651	     163.845920
	 D(4,2,6,10)      =        -0.000958	      -0.054901
	 D(4,2,6,16)      =         3.127154	     179.172740
	 D(4,8,12,10)     =        -0.000802	      -0.045949
	 D(4,8,12,22)     =         3.140765	     179.952588
	*D(5,1,2,6)       =        -0.282049	     -16.160212
	 D(5,1,3,7)       =        -0.000990	      -0.056749
	 D(5,1,3,13)      =         3.127127	     179.171205
	 D(5,9,11,7)      =        -0.000828	      -0.047441
	 D(5,9,11,21)     =         3.140750	     179.951693
	 D(6,2,4,8)       =        -0.000756	      -0.043319
	 D(6,2,4,14)      =         3.127146	     179.172288
	 D(6,10,12,8)     =        -0.000918	      -0.052599
	 D(6,10,12,22)    =         3.140700	     179.948865
	 D(7,11,9,19)     =        -3.139756	    -179.894782
	 D(8,12,10,20)    =        -3.139753	    -179.894623
	 D(9,11,7,17)     =        -3.139751	    -179.894486
	 D(10,12,8,18)    =        -3.139750	    -179.894427
	 D(11,7,3,13)     =        -3.126777	    -179.151151
	 D(11,9,5,15)     =        -3.126745	    -179.149306
	 D(12,8,4,14)     =        -3.126742	    -179.149107
	 D(12,10,6,16)    =        -3.126781	    -179.151335
	 D(13,3,7,17)     =         0.012075	       0.691845
	 D(14,4,8,18)     =         0.012205	       0.699269
	 D(15,5,9,19)     =         0.012181	       0.697934
	 D(16,6,10,20)    =         0.012053	       0.690582
	 D(17,7,11,21)    =         0.001857	       0.106380
	 D(18,8,12,22)    =         0.001817	       0.104109
	 D(19,9,11,21)    =         0.001821	       0.104352
	 D(20,10,12,22)   =         0.001865	       0.106841

	Current energy   :      -463.1202642506

	Generating empirical Hessian (Schlegel '84) for each fragment.
	Taking RFO optimization step.
	Going to follow RFO solution 1.
	Using RFO vector 1.
	Norm of target step-size    0.20253
	Projected energy change by RFO approximation:        -0.0144511806

	Back-transformation to cartesian coordinates...
	Could not converge backtransformation.
	Using first guess instead.

	Back-transformation to cartesian coordinates to adjust frozen coordinates...
	Successfully converged to displaced geometry.

	--- Internal Coordinate Step in ANG or DEG, aJ/ANG or AJ/DEG ---
	 ---------------------------------------------------------------------------
	   Coordinate                Previous        Force       Change         New 
	   ----------                --------       ------       ------       ------
	    1 R(1,2)          =      1.517345    -0.167269    -0.033390     1.483955
	    2 R(1,3)          =      1.438918    -0.249160    -0.039408     1.399510
	    3 R(1,5)          =      1.438945    -0.249257    -0.039426     1.399518
	    4 R(2,4)          =      1.438929    -0.249189    -0.039413     1.399515
	    5 R(2,6)          =      1.438936    -0.249240    -0.039422     1.399514
	    6 R(3,7)          =      1.408814    -0.134976    -0.018898     1.389916
	    7 R(3,13)         =      1.087031    -0.035904    -0.005894     1.081137
	    8 R(4,8)          =      1.408802    -0.134921    -0.018890     1.389912
	    9 R(4,14)         =      1.087039    -0.035948    -0.005903     1.081137
	   10 R(5,9)          =      1.408814    -0.135008    -0.018903     1.389911
	   11 R(5,15)         =      1.087017    -0.035829    -0.005880     1.081137
	   12 R(6,10)         =      1.408805    -0.134941    -0.018892     1.389912
	   13 R(6,16)         =      1.087018    -0.035833    -0.005880     1.081138
	   14 R(7,11)         =      1.404683    -0.106562    -0.014106     1.390577
	   15 R(7,17)         =      1.088790    -0.040456    -0.007021     1.081769
	   16 R(8,12)         =      1.404696    -0.106628    -0.014116     1.390580
	   17 R(8,18)         =      1.088790    -0.040457    -0.007022     1.081769
	   18 R(9,11)         =      1.404692    -0.106600    -0.014111     1.390581
	   19 R(9,19)         =      1.088787    -0.040435    -0.007017     1.081769
	   20 R(10,12)        =      1.404696    -0.106634    -0.014116     1.390580
	   21 R(10,20)        =      1.088793    -0.040469    -0.007023     1.081770
	   22 R(11,21)        =      1.088580    -0.038893    -0.006838     1.081741
	   23 R(12,22)        =      1.088574    -0.038866    -0.006834     1.081741
	   24 B(1,2,4)        =    121.475474    -0.000169    -0.374653   121.100821
	   25 B(1,2,6)        =    121.479835    -0.000170    -0.378900   121.100935
	   26 B(1,3,7)        =    121.028954     0.000070     0.103151   121.132105
	   27 B(1,3,13)       =    121.315852    -0.000277    -1.092429   120.223423
	   28 B(1,5,9)        =    121.027580     0.000071     0.104406   121.131985
	   29 B(1,5,15)       =    121.315782    -0.000277    -1.092839   120.222943
	   30 B(2,1,3)        =    121.478561    -0.000170    -0.376870   121.101691
	   31 B(2,1,5)        =    121.476514    -0.000170    -0.376614   121.099900
	   32 B(2,4,8)        =    121.029217     0.000070     0.103110   121.132327
	   33 B(2,4,14)       =    121.315119    -0.000277    -1.092257   120.222862
	   34 B(2,6,10)       =    121.027885     0.000070     0.104055   121.131939
	   35 B(2,6,16)       =    121.315598    -0.000277    -1.092550   120.223049
	   36 B(3,1,5)        =    117.044925     0.000339     0.753484   117.798409
	   37 B(3,7,11)       =    120.477987    -0.000073    -0.085915   120.392072
	   38 B(3,7,17)       =    119.794191    -0.000034    -0.258316   119.535875
	   39 B(4,2,6)        =    117.044690     0.000339     0.753553   117.798243
	   40 B(4,8,12)       =    120.477858    -0.000073    -0.085872   120.391987
	   41 B(4,8,18)       =    119.794817    -0.000034    -0.258515   119.536302
	   42 B(5,9,11)       =    120.478485    -0.000073    -0.086368   120.392117
	   43 B(5,9,19)       =    119.794197    -0.000034    -0.258104   119.536093
	   44 B(6,10,12)      =    120.478878    -0.000073    -0.086473   120.392405
	   45 B(6,10,20)      =    119.794708    -0.000034    -0.258509   119.536199
	   46 B(7,3,13)       =    117.650895     0.000207     0.980790   118.631685
	   47 B(7,11,9)       =    119.941958    -0.000333    -0.788688   119.153270
	   48 B(7,11,21)      =    120.028942     0.000167     0.394537   120.423479
	   49 B(8,4,14)       =    117.651227     0.000206     0.980745   118.631972
	   50 B(8,12,10)      =    119.941362    -0.000333    -0.788305   119.153058
	   51 B(8,12,22)      =    120.028916     0.000167     0.394533   120.423449
	   52 B(9,5,15)       =    117.652204     0.000206     0.980036   118.632240
	   53 B(9,11,21)      =    120.029100     0.000167     0.394151   120.423251
	   54 B(10,6,16)      =    117.652215     0.000206     0.980017   118.632232
	   55 B(10,12,22)     =    120.029722     0.000166     0.393771   120.423493
	   56 B(11,7,17)      =    119.727636     0.000107     0.343457   120.071093
	   57 B(11,9,19)      =    119.727142     0.000107     0.343699   120.070841
	   58 B(12,8,18)      =    119.727152     0.000107     0.343610   120.070762
	   59 B(12,10,20)     =    119.726227     0.000107     0.344210   120.070437
	   60 D(1,2,4,8)      =    179.950810     0.000000     0.015612   179.966422
	   61 D(1,2,4,14)     =     -0.833583    -0.000005    -0.521312    -1.354895
	   62 D(1,2,6,10)     =    179.950970     0.000000     0.022391   179.973362
	   63 D(1,2,6,16)     =     -0.821388    -0.000005    -0.523559    -1.344947
	   64 D(1,3,7,11)     =      0.104239    -0.000000    -0.042004     0.062235
	   65 D(1,3,7,17)     =    179.947236    -0.000002    -0.240996   179.706240
	   66 D(1,5,9,11)     =      0.094432    -0.000000    -0.035524     0.058908
	   67 D(1,5,9,19)     =    179.941671    -0.000002    -0.236935   179.704736
	   68 D(2,1,3,7)      =    179.950068     0.000000     0.023250   179.973319
	   69 D(2,1,3,13)     =     -0.821978    -0.000005    -0.523326    -1.345304
	   70 D(2,1,5,9)      =    179.951434     0.000000     0.015005   179.966439
	   71 D(2,1,5,15)     =     -0.832684    -0.000005    -0.521836    -1.354520
	   72 D(2,4,8,12)     =      0.094367    -0.000000    -0.035195     0.059172
	   73 D(2,4,8,18)     =    179.942743    -0.000002    -0.237706   179.705037
	   74 D(2,6,10,12)    =      0.103743    -0.000000    -0.041825     0.061918
	   75 D(2,6,10,20)    =    179.945660    -0.000002    -0.239857   179.705803
	   76 *D(3,1,2,4)     =    -16.161200    -0.000000     0.000000   -16.161200
	   77 *D(3,1,2,6)     =    163.832669    -0.000000    -0.000000   163.832669
	   78 D(3,1,5,9)      =     -0.041749     0.000000     0.015079    -0.026670
	   79 D(3,1,5,15)     =    179.174133    -0.000005    -0.521761   178.652371
	   80 D(3,7,11,9)     =     -0.051386     0.000000     0.021750    -0.029636
	   81 D(3,7,11,21)    =    179.949481     0.000000     0.020482   179.969963
	   82 *D(4,2,1,5)     =    163.845920    -0.000000     0.000000   163.845920
	   83 D(4,2,6,10)     =     -0.054901     0.000000     0.022328    -0.032573
	   84 D(4,2,6,16)     =    179.172740    -0.000005    -0.523622   178.649118
	   85 D(4,8,12,10)    =     -0.045949     0.000000     0.016286    -0.029662
	   86 D(4,8,12,22)    =    179.952588     0.000000     0.017885   179.970472
	   87 *D(5,1,2,6)     =    -16.160212     0.000000    -0.000000   -16.160212
	   88 D(5,1,3,7)      =     -0.056749     0.000000     0.023176    -0.033573
	   89 D(5,1,3,13)     =    179.171205    -0.000005    -0.523400   178.647805
	   90 D(5,9,11,7)     =     -0.047441     0.000000     0.017333    -0.030107
	   91 D(5,9,11,21)    =    179.951693     0.000000     0.018600   179.970294
	   92 D(6,2,4,8)      =     -0.043319     0.000000     0.015676    -0.027642
	   93 D(6,2,4,14)     =    179.172288    -0.000005    -0.521248   178.651040
	   94 D(6,10,12,8)    =     -0.052599     0.000000     0.022544    -0.030055
	   95 D(6,10,12,22)   =    179.948865     0.000000     0.020945   179.969811
	   96 D(7,11,9,19)    =   -179.894782     0.000002     0.220746  -179.674037
	   97 D(8,12,10,20)   =   -179.894623     0.000002     0.222591  -179.672033
	   98 D(9,11,7,17)    =   -179.894486     0.000002     0.222756  -179.671731
	   99 D(10,12,8,18)   =   -179.894427     0.000002     0.220796  -179.673631
	  100 D(11,7,3,13)    =   -179.151151     0.000005     0.511500  -178.639652
	  101 D(11,9,5,15)    =   -179.149306     0.000005     0.508641  -178.640665
	  102 D(12,8,4,14)    =   -179.149107     0.000005     0.509056  -178.640051
	  103 D(12,10,6,16)   =   -179.151335     0.000005     0.511069  -178.640266
	  104 D(13,3,7,17)    =      0.691845     0.000003     0.312508     1.004353
	  105 D(14,4,8,18)    =      0.699269     0.000003     0.306546     1.005815
	  106 D(15,5,9,19)    =      0.697934     0.000003     0.307229     1.005163
	  107 D(16,6,10,20)   =      0.690582     0.000003     0.313037     1.003620
	  108 D(17,7,11,21)   =      0.106380     0.000002     0.221488     0.327868
	  109 D(18,8,12,22)   =      0.104109     0.000002     0.222395     0.326504
	  110 D(19,9,11,21)   =      0.104352     0.000002     0.222013     0.326364
	  111 D(20,10,12,22)  =      0.106841     0.000002     0.220992     0.327832
	 ---------------------------------------------------------------------------
	Successfully symmetrized geometry.

  ==> Convergence Check <==

  Measures of convergence in internal coordinates in au.
  Criteria marked as inactive (o), active & met (*), and active & unmet ( ).
  --------------------------------------------------------------------------------------------- ~
   Step     Total Energy     Delta E     MAX Force     RMS Force      MAX Disp      RMS Disp    ~
  --------------------------------------------------------------------------------------------- ~
    Convergence Criteria             o    2.50e-03 *    1.70e-03 *    1.00e-02 *    6.70e-03 *  ~
  --------------------------------------------------------------------------------------------- ~
      1    -463.12026425   -4.63e+02 o    3.03e-02      7.50e-03      7.45e-02      1.92e-02    ~
  ---------------------------------------------------------------------------------------------

	Writing optimization data to binary file.
	Structure for next step:
	Cartesian Geometry (in Angstrom)
	    C     0.7398197284   0.0495013088  -0.0273602353
	    C    -0.7398036540  -0.0495911833   0.0275673055
	    C     1.4058514111   1.1888463875   0.4383904840
	    C    -1.4928349072   0.8139806440   0.8312033259
	    C     1.5153850982  -0.9932635232  -0.5467748989
	    C    -1.4283902466  -1.0096248654  -0.7226482399
	    C     2.7917099373   1.2821050385   0.3877516801
	    C    -2.8787601082   0.7221996117   0.8826152459
	    C     2.9012317349  -0.9008751719  -0.5991762347
	    C    -2.8141856354  -1.1033668928  -0.6712686947
	    C     3.5485828343   0.2376422761  -0.1318109025
	    C    -3.5485919052  -0.2375802079   0.1317085496
	    H     0.8441117563   2.0266881196   0.8273983271
	    H    -0.9997042089   1.5560030577   1.4436423090
	    H     1.0430159375  -1.9003566596  -0.8973562591
	    H    -0.8874015726  -1.6824329916  -1.3734324824
	    H     3.2795958695   2.1768464803   0.7505583063
	    H    -3.4349464367   1.3998625061   1.5163762084
	    H     3.4757680590  -1.7244411664  -1.0015096001
	    H    -3.3204412686  -1.8521261915  -1.2656519175
	    H     4.6271640972   0.3098837098  -0.1719114488
	    H    -4.6271796593  -0.3097738694   0.1717024418
			--------------------------
			 OPTKING Finished Execution 
			--------------------------

    Structure for next step:
    Molecular point group: c1
    Full point group: C1

    Geometry (in Angstrom), charge = 0, multiplicity = 1:

    C            0.739818732513     0.049502378228    -0.027374403966
    C           -0.739804655633    -0.049590114267     0.027553137056
    C            1.405850417833     1.188847461385     0.438376317201
    C           -1.492835911834     0.813981716453     0.831189160603
    C            1.515384105429    -0.993262457898    -0.546789069627
    C           -1.428391251029    -1.009623800198    -0.722662411234
    C            2.791708949519     1.282106112746     0.387737513043
    C           -2.878761118298     0.722200683739     0.882601080794
    C            2.901230747507    -0.900874106250    -0.599190405538
    C           -2.814186645194    -1.103365827895    -0.671282865919
    C            3.548581849470     0.237643346205    -0.131825071526
    C           -3.548592917876    -0.237579139587     0.131694381620
    H            0.844110760812     2.026689196809     0.827384161791
    H           -0.999705211556     1.556004133025     1.443628146171
    H            1.043014942814    -1.900355597816    -0.897370431194
    H           -0.887402574847    -1.682431929006    -1.373446656326
    H            3.279594883609     2.176847558046     0.750544140735
    H           -3.434947448971     1.399863580865     1.516362045838
    H            3.475767073864    -1.724440103936    -1.001523772571
    H           -3.320442280426    -1.852125129578    -1.265666091033
    H            4.627163116580     0.309884780257    -0.171925618025
    H           -4.627180676253    -0.309772801429     0.171688273928

gradient() will perform analytic gradient computation.

*** tstart() called on daniele-Precision-5750
*** at Mon May 31 17:16:20 2021

   => Loading Basis Set <=

    Name: 6-311G
    Role: ORBITAL
    Keyword: BASIS
    atoms 1-12  entry C          line    92 file /home/daniele/anaconda3/envs/poltype/share/psi4/basis/6-311g.gbs 
    atoms 13-22 entry H          line    21 file /home/daniele/anaconda3/envs/poltype/share/psi4/basis/6-311g.gbs 


         ---------------------------------------------------------
                                   SCF
               by Justin Turney, Rob Parrish, Andy Simmonett
                          and Daniel G. A. Smith
                              RKS Reference
                        3 Threads,    667 MiB Core
         ---------------------------------------------------------

  ==> Geometry <==

    Molecular point group: c1
    Full point group: C1

    Geometry (in Angstrom), charge = 0, multiplicity = 1:

       Center              X                  Y                   Z               Mass       
    ------------   -----------------  -----------------  -----------------  -----------------
         C            0.739818732513     0.049502378228    -0.027374403966    12.000000000000
         C           -0.739804655633    -0.049590114267     0.027553137056    12.000000000000
         C            1.405850417833     1.188847461385     0.438376317201    12.000000000000
         C           -1.492835911834     0.813981716453     0.831189160603    12.000000000000
         C            1.515384105429    -0.993262457898    -0.546789069627    12.000000000000
         C           -1.428391251029    -1.009623800198    -0.722662411234    12.000000000000
         C            2.791708949519     1.282106112746     0.387737513043    12.000000000000
         C           -2.878761118298     0.722200683739     0.882601080794    12.000000000000
         C            2.901230747507    -0.900874106250    -0.599190405538    12.000000000000
         C           -2.814186645194    -1.103365827895    -0.671282865919    12.000000000000
         C            3.548581849470     0.237643346205    -0.131825071526    12.000000000000
         C           -3.548592917876    -0.237579139587     0.131694381620    12.000000000000
         H            0.844110760812     2.026689196809     0.827384161791     1.007825032230
         H           -0.999705211556     1.556004133025     1.443628146171     1.007825032230
         H            1.043014942814    -1.900355597816    -0.897370431194     1.007825032230
         H           -0.887402574847    -1.682431929006    -1.373446656326     1.007825032230
         H            3.279594883609     2.176847558046     0.750544140735     1.007825032230
         H           -3.434947448971     1.399863580865     1.516362045838     1.007825032230
         H            3.475767073864    -1.724440103936    -1.001523772571     1.007825032230
         H           -3.320442280426    -1.852125129578    -1.265666091033     1.007825032230
         H            4.627163116580     0.309884780257    -0.171925618025     1.007825032230
         H           -4.627180676253    -0.309772801429     0.171688273928     1.007825032230

  Running in c1 symmetry.

  Rotational constants: A =      0.09633  B =      0.01856  C =      0.01566 [cm^-1]
  Rotational constants: A =   2887.90029  B =    556.46435  C =    469.60890 [MHz]
  Nuclear repulsion =  601.096232284868393

  Charge       = 0
  Multiplicity = 1
  Electrons    = 82
  Nalpha       = 41
  Nbeta        = 41

  ==> Algorithm <==

  SCF Algorithm Type is DF.
  DIIS enabled.
  MOM disabled.
  Fractional occupation disabled.
  Guess Type is READ.
  Energy threshold   = 1.00e-08
  Density threshold  = 1.00e-08
  Integral threshold = 0.00e+00

  ==> Primary Basis <==

  Basis Set: 6-311G
    Blend: 6-311G
    Number of shells: 114
    Number of basis function: 186
    Number of Cartesian functions: 186
    Spherical Harmonics?: true
    Max angular momentum: 1

  ==> DFT Potential <==

   => Composite Functional: WB97X-D <= 

    wB97X-D Hyb-GGA Exchange-Correlation Functional

    J.-D. Chai and M. Head-Gordon, Phys. Chem. Chem. Phys. 10, 6615 (2008)

    Deriv               =              1
    GGA                 =           TRUE
    Meta                =          FALSE

    Exchange Hybrid     =           TRUE
    MP2 Hybrid          =          FALSE

   => Exchange-Correlation Functionals <=

    1.0000   wB97D range-separated functional

   => Exact (HF) Exchange <=

    0.7780            HF,LR [omega = 0.2000]
    0.2220               HF 

   => Molecular Quadrature <=

    Radial Scheme          =       TREUTLER
    Pruning Scheme         =           FLAT
    Nuclear Scheme         =       TREUTLER

    BS radius alpha        =              1
    Pruning alpha          =              1
    Radial Points          =             75
    Spherical Points       =            302
    Total Points           =         491160
    Total Blocks           =           3653
    Max Points             =            256
    Max Functions          =            156

   => WB97X-D: Empirical Dispersion <=

    Chai and Head-Gordon Dispersion Correction
    Chai, J.-D.; Head-Gordon, M. (2010), J. Chem. Phys., 132: 6615-6620

        s6 =       1.000000

   => Loading Basis Set <=

    Name: (6-311G AUX)
    Role: JKFIT
    Keyword: DF_BASIS_SCF
    atoms 1-12  entry C          line   125 file /home/daniele/anaconda3/envs/poltype/share/psi4/basis/cc-pvtz-jkfit.gbs 
    atoms 13-22 entry H          line    51 file /home/daniele/anaconda3/envs/poltype/share/psi4/basis/cc-pvtz-jkfit.gbs 

   => Loading Basis Set <=

    Name: 6-311G
    Role: ORBITAL
    Keyword: BASIS
    atoms 1-12  entry C          line    92 file /home/daniele/anaconda3/envs/poltype/share/psi4/basis/6-311g.gbs 
    atoms 13-22 entry H          line    21 file /home/daniele/anaconda3/envs/poltype/share/psi4/basis/6-311g.gbs 

  Reading orbitals from file 180, no projection.

  ==> Pre-Iterations <==

   -------------------------------------------------------
    Irrep   Nso     Nmo     Nalpha   Nbeta   Ndocc  Nsocc
   -------------------------------------------------------
     A        186     186       0       0       0       0
   -------------------------------------------------------
    Total     186     186      41      41      41       0
   -------------------------------------------------------

  ==> Integral Setup <==

  ==> DiskDFJK: Density-Fitted J/K Matrices <==

    J tasked:                  Yes
    K tasked:                  Yes
    wK tasked:                 Yes
    Omega:               2.000E-01
    OpenMP threads:              3
    Integrals threads:           3
    Memory [MiB]:              173
    Algorithm:                Disk
    Integral Cache:           NONE
    Schwarz Cutoff:          1E-12
    Fitting Condition:       1E-10

   => Auxiliary Basis Set <=

  Basis Set: (6-311G AUX)
    Blend: CC-PVTZ-JKFIT
    Number of shells: 400
    Number of basis function: 1248
    Number of Cartesian functions: 1502
    Spherical Harmonics?: true
    Max angular momentum: 4

  Cached 25.0% of DFT collocation blocks in 0.384 [GiB].

  Minimum eigenvalue in the overlap matrix is 2.1730426344E-04.
  Using Symmetric Orthogonalization.

  SCF Guess: Orbitals guess was supplied from a previous computation.

  ==> Iterations <==

                           Total Energy        Delta E     RMS |[F,P]|

   @DF-RKS iter   0:  -463.31616239249041   -4.63316e+02   9.38561e-04 
   @DF-RKS iter   1:  -463.12592448891832    1.90238e-01   2.30880e-04 DIIS
   @DF-RKS iter   2:  -463.12596562551363   -4.11366e-05   2.49283e-04 DIIS
   @DF-RKS iter   3:  -463.12715805308329   -1.19243e-03   3.40433e-05 DIIS
   @DF-RKS iter   4:  -463.12717782017603   -1.97671e-05   7.89354e-06 DIIS
   @DF-RKS iter   5:  -463.12717907687318   -1.25670e-06   9.85391e-07 DIIS
   @DF-RKS iter   6:  -463.12717910828695   -3.14138e-08   5.59387e-07 DIIS
   @DF-RKS iter   7:  -463.12717911396004   -5.67309e-09   9.98655e-08 DIIS
   @DF-RKS iter   8:  -463.12717911439557   -4.35534e-10   1.50112e-08 DIIS
   @DF-RKS iter   9:  -463.12717911441564   -2.00657e-11   6.47582e-09 DIIS
  Energy and wave function converged.


  ==> Post-Iterations <==

    Orbital Energies [Eh]
    ---------------------

    Doubly Occupied:                                                      

       1A    -10.307619     2A    -10.307338     3A    -10.293327  
       4A    -10.293322     5A    -10.293243     6A    -10.293240  
       7A    -10.292429     8A    -10.292425     9A    -10.292398  
      10A    -10.292395    11A    -10.291721    12A    -10.291719  
      13A     -0.983180    14A     -0.960881    15A     -0.887732  
      16A     -0.860933    17A     -0.850638    18A     -0.829325  
      19A     -0.728577    20A     -0.725801    21A     -0.688119  
      22A     -0.680441    23A     -0.637987    24A     -0.595612  
      25A     -0.568465    26A     -0.564524    27A     -0.531489  
      28A     -0.526631    29A     -0.524304    30A     -0.517980  
      31A     -0.506368    32A     -0.481797    33A     -0.453249  
      34A     -0.451638    35A     -0.444066    36A     -0.425901  
      37A     -0.415758    38A     -0.368427    39A     -0.337266  
      40A     -0.332584    41A     -0.298199  

    Virtual:                                                              

      42A      0.027329    43A      0.053238    44A      0.073129  
      45A      0.105683    46A      0.121669    47A      0.134518  
      48A      0.144005    49A      0.162207    50A      0.168815  
      51A      0.189864    52A      0.192030    53A      0.207501  
      54A      0.214073    55A      0.255608    56A      0.262972  
      57A      0.269413    58A      0.313509    59A      0.325617  
      60A      0.338444    61A      0.344580    62A      0.366673  
      63A      0.370234    64A      0.374147    65A      0.406078  
      66A      0.416072    67A      0.419473    68A      0.432796  
      69A      0.456786    70A      0.470702    71A      0.472517  
      72A      0.477699    73A      0.480309    74A      0.493554  
      75A      0.507653    76A      0.513288    77A      0.519904  
      78A      0.520219    79A      0.527586    80A      0.531194  
      81A      0.541211    82A      0.552472    83A      0.555148  
      84A      0.566485    85A      0.582570    86A      0.583764  
      87A      0.596663    88A      0.613021    89A      0.620649  
      90A      0.664141    91A      0.675060    92A      0.681780  
      93A      0.682831    94A      0.695988    95A      0.698434  
      96A      0.708220    97A      0.716389    98A      0.722086  
      99A      0.733007   100A      0.734789   101A      0.736121  
     102A      0.746079   103A      0.756239   104A      0.781966  
     105A      0.848261   106A      0.851467   107A      0.857824  
     108A      0.863010   109A      0.869839   110A      0.888368  
     111A      0.889457   112A      0.914835   113A      0.933596  
     114A      0.943722   115A      0.965285   116A      0.973317  
     117A      1.005299   118A      1.007832   119A      1.024986  
     120A      1.029591   121A      1.089014   122A      1.102732  
     123A      1.169045   124A      1.181541   125A      1.186641  
     126A      1.202275   127A      1.358844   128A      1.387687  
     129A      2.273956   130A      2.306003   131A      2.323318  
     132A      2.372670   133A      2.382684   134A      2.419863  
     135A      2.469249   136A      2.533169   137A      2.607899  
     138A      2.624811   139A      2.638095   140A      2.645485  
     141A      2.655058   142A      2.668578   143A      2.673449  
     144A      2.713846   145A      2.733509   146A      2.785458  
     147A      2.792683   148A      2.817723   149A      2.820195  
     150A      2.828579   151A      2.862621   152A      2.884236  
     153A      2.943669   154A      2.953054   155A      2.974469  
     156A      2.974863   157A      3.000456   158A      3.045722  
     159A      3.075750   160A      3.195063   161A      3.232157  
     162A      3.232364   163A      3.239559   164A      3.289282  
     165A      3.295046   166A      3.312482   167A      3.341488  
     168A      3.361564   169A      3.376647   170A      3.377034  
     171A      3.414570   172A      3.468069   173A      3.477173  
     174A      3.637065   175A     23.213016   176A     23.308951  
     177A     23.460648   178A     23.468917   179A     23.498626  
     180A     23.542643   181A     23.717349   182A     23.773732  
     183A     23.784928   184A     23.801570   185A     24.018687  
     186A     24.026000  

    Final Occupation by Irrep:
              A 
    DOCC [    41 ]

  @DF-RKS Final Energy:  -463.12717911441564

   => Energetics <=

    Nuclear Repulsion Energy =            601.0962322848683925
    One-Electron Energy =               -1814.9377905465607910
    Two-Electron Energy =                 797.9786466669488618
    DFT Exchange-Correlation Energy =     -47.2523499971067480
    Empirical Dispersion Energy =          -0.0119175225653020
    VV10 Nonlocal Energy =                  0.0000000000000000
    Total Energy =                       -463.1271791144155827

Computation Completed


Properties will be evaluated at   0.000000,   0.000000,   0.000000 [a0]

Properties computed using the SCF density matrix

  Nuclear Dipole Moment: [e a0]
     X:    -0.0000      Y:     0.0002      Z:    -0.0003

  Electronic Dipole Moment: [e a0]
     X:     0.0000      Y:    -0.0001      Z:     0.0003

  Dipole Moment: [e a0]
     X:    -0.0000      Y:     0.0000      Z:    -0.0000     Total:     0.0001

  Dipole Moment: [D]
     X:    -0.0000      Y:     0.0001      Z:    -0.0001     Total:     0.0001


*** tstop() called on daniele-Precision-5750 at Mon May 31 17:16:42 2021
Module time:
	user time   =      64.39 seconds =       1.07 minutes
	system time =       2.77 seconds =       0.05 minutes
	total time  =         22 seconds =       0.37 minutes
Total time:
	user time   =     179.68 seconds =       2.99 minutes
	system time =       6.72 seconds =       0.11 minutes
	total time  =         63 seconds =       1.05 minutes

*** tstart() called on daniele-Precision-5750
*** at Mon May 31 17:16:42 2021


         ------------------------------------------------------------
                                   SCF GRAD                          
                          Rob Parrish, Justin Turney,                
                       Andy Simmonett, and Alex Sokolov              
         ------------------------------------------------------------

  ==> Geometry <==

    Molecular point group: c1
    Full point group: C1

    Geometry (in Angstrom), charge = 0, multiplicity = 1:

       Center              X                  Y                   Z               Mass       
    ------------   -----------------  -----------------  -----------------  -----------------
         C            0.739818732513     0.049502378228    -0.027374403966    12.000000000000
         C           -0.739804655633    -0.049590114267     0.027553137056    12.000000000000
         C            1.405850417833     1.188847461385     0.438376317201    12.000000000000
         C           -1.492835911834     0.813981716453     0.831189160603    12.000000000000
         C            1.515384105429    -0.993262457898    -0.546789069627    12.000000000000
         C           -1.428391251029    -1.009623800198    -0.722662411234    12.000000000000
         C            2.791708949519     1.282106112746     0.387737513043    12.000000000000
         C           -2.878761118298     0.722200683739     0.882601080794    12.000000000000
         C            2.901230747507    -0.900874106250    -0.599190405538    12.000000000000
         C           -2.814186645194    -1.103365827895    -0.671282865919    12.000000000000
         C            3.548581849470     0.237643346205    -0.131825071526    12.000000000000
         C           -3.548592917876    -0.237579139587     0.131694381620    12.000000000000
         H            0.844110760812     2.026689196809     0.827384161791     1.007825032230
         H           -0.999705211556     1.556004133025     1.443628146171     1.007825032230
         H            1.043014942814    -1.900355597816    -0.897370431194     1.007825032230
         H           -0.887402574847    -1.682431929006    -1.373446656326     1.007825032230
         H            3.279594883609     2.176847558046     0.750544140735     1.007825032230
         H           -3.434947448971     1.399863580865     1.516362045838     1.007825032230
         H            3.475767073864    -1.724440103936    -1.001523772571     1.007825032230
         H           -3.320442280426    -1.852125129578    -1.265666091033     1.007825032230
         H            4.627163116580     0.309884780257    -0.171925618025     1.007825032230
         H           -4.627180676253    -0.309772801429     0.171688273928     1.007825032230

  Nuclear repulsion =  601.096232284868393

  ==> Basis Set <==

  Basis Set: 6-311G
    Blend: 6-311G
    Number of shells: 114
    Number of basis function: 186
    Number of Cartesian functions: 186
    Spherical Harmonics?: true
    Max angular momentum: 1

  ==> DFJKGrad: Density-Fitted SCF Gradients <==

    Gradient:                    1
    J tasked:                  Yes
    K tasked:                  Yes
    wK tasked:                 Yes
    Omega:               2.000E-01
    OpenMP threads:              3
    Integrals threads:           3
    Memory [MiB]:              500
    Schwarz Cutoff:          0E+00
    Fitting Condition:       1E-10

   => Auxiliary Basis Set <=

  Basis Set: (6-311G AUX)
    Blend: CC-PVTZ-JKFIT
    Number of shells: 400
    Number of basis function: 1248
    Number of Cartesian functions: 1502
    Spherical Harmonics?: true
    Max angular momentum: 4

  ==> DFT Potential <==

   => Composite Functional: WB97X-D <= 

    wB97X-D Hyb-GGA Exchange-Correlation Functional

    J.-D. Chai and M. Head-Gordon, Phys. Chem. Chem. Phys. 10, 6615 (2008)

    Deriv               =              1
    GGA                 =           TRUE
    Meta                =          FALSE

    Exchange Hybrid     =           TRUE
    MP2 Hybrid          =          FALSE

   => Exchange-Correlation Functionals <=

    1.0000   wB97D range-separated functional

   => Exact (HF) Exchange <=

    0.7780            HF,LR [omega = 0.2000]
    0.2220               HF 

   => Molecular Quadrature <=

    Radial Scheme          =       TREUTLER
    Pruning Scheme         =           FLAT
    Nuclear Scheme         =       TREUTLER

    BS radius alpha        =              1
    Pruning alpha          =              1
    Radial Points          =             75
    Spherical Points       =            302
    Total Points           =         491160
    Total Blocks           =           3653
    Max Points             =            256
    Max Functions          =            156


  -Total Gradient:
     Atom            X                  Y                   Z
    ------   -----------------  -----------------  -----------------
       1       -0.000313212034    -0.000017992904     0.000023196571
       2        0.000315466366     0.000013366537    -0.000008164163
       3       -0.001296978856    -0.002587684888     0.000471863594
       4        0.001431720257    -0.000584871461    -0.002494155997
       5       -0.001660151971     0.002389532178    -0.000373790948
       6        0.001521118288     0.000789006685     0.002377173258
       7       -0.000686448161    -0.001993542154    -0.000922189789
       8        0.000847096274    -0.001637422994    -0.001376789733
       9       -0.000878453030     0.001887827574     0.000982023799
      10        0.000722399081     0.001742871812     0.001321966322
      11       -0.001897457697    -0.000125783518     0.000070756566
      12        0.001894949715     0.000126803079    -0.000070910166
      13       -0.000745372651     0.000170426381     0.000593816747
      14        0.000709936897     0.000653879586    -0.000070579451
      15       -0.000759382404    -0.000271217509    -0.000537988380
      16        0.000795819578    -0.000554914698     0.000015098516
      17        0.000010168558    -0.000051607249    -0.000014738451
      18       -0.000006907130    -0.000035949649    -0.000041388342
      19        0.000004602416     0.000052540467     0.000013737395
      20       -0.000009257559     0.000034770544     0.000040981588
      21        0.000264524088     0.000017562099    -0.000009810856
      22       -0.000264164640    -0.000017616195     0.000009933391


*** tstop() called on daniele-Precision-5750 at Mon May 31 17:16:57 2021
Module time:
	user time   =      41.91 seconds =       0.70 minutes
	system time =       0.53 seconds =       0.01 minutes
	total time  =         15 seconds =       0.25 minutes
Total time:
	user time   =     221.59 seconds =       3.69 minutes
	system time =       7.25 seconds =       0.12 minutes
	total time  =         78 seconds =       1.30 minutes

			-----------------------------------------
			 OPTKING 2.0: for geometry optimizations 
			  - R.A. King,  Bethel University        
			-----------------------------------------
	At level 1: Red. Int., RFO, no backsteps, dynamic trust

	Previous internal coordinate definitions found.
	---Fragment 1 Geometry and Gradient---
	 C           1.3980547869        0.0935459374       -0.0517301263
	 C          -1.3980281855       -0.0937117345        0.0520678829
	 C           2.6566722631        2.2465961070        0.8284111794
	 C          -2.8210510236        1.5382025152        1.5707198720
	 C           2.8636609341       -1.8769940161       -1.0332815900
	 C          -2.6992682644       -1.9079124721       -1.3656340384
	 C           5.2755653366        2.4228294169        0.7327177082
	 C          -5.4400700942        1.3647614999        1.6678743207
	 C           5.4825315395       -1.7024053343       -1.1323057635
	 C          -5.3180420253       -2.0850592309       -1.2685407693
	 C           6.7058478293        0.4490808399       -0.2491132817
	 C          -6.7058687455       -0.4489595069        0.2488663135
	 H           1.5951381575        3.8298875234        1.5635294663
	 H          -1.8891690560        2.9404216615        2.7280618233
	 H           1.9710125867       -3.5911516209       -1.6957843480
	 H          -1.6769478295       -3.1793355705       -2.5954380284
	 H           6.1975361325        4.1136457016        1.4183228711
	 H          -6.4911099339        2.6453587808        2.8655089737
	 H           6.5682478455       -3.2587195162       -1.8926056383
	 H          -6.2747265254       -3.5000092450       -2.3917622783
	 H           8.7440710282        0.5855973651       -0.3248923320
	 H          -8.7441042111       -0.5853857558        0.3244438167
	            -0.0003132120       -0.0000179929        0.0000231966
	             0.0003154664        0.0000133665       -0.0000081642
	            -0.0012969789       -0.0025876849        0.0004718636
	             0.0014317203       -0.0005848715       -0.0024941560
	            -0.0016601520        0.0023895322       -0.0003737909
	             0.0015211183        0.0007890067        0.0023771733
	            -0.0006864482       -0.0019935422       -0.0009221898
	             0.0008470963       -0.0016374230       -0.0013767897
	            -0.0008784530        0.0018878276        0.0009820238
	             0.0007223991        0.0017428718        0.0013219663
	            -0.0018974577       -0.0001257835        0.0000707566
	             0.0018949497        0.0001268031       -0.0000709102
	            -0.0007453727        0.0001704264        0.0005938167
	             0.0007099369        0.0006538796       -0.0000705795
	            -0.0007593824       -0.0002712175       -0.0005379884
	             0.0007958196       -0.0005549147        0.0000150985
	             0.0000101686       -0.0000516072       -0.0000147385
	            -0.0000069071       -0.0000359496       -0.0000413883
	             0.0000046024        0.0000525405        0.0000137374
	            -0.0000092576        0.0000347705        0.0000409816
	             0.0002645241        0.0000175621       -0.0000098109
	            -0.0002641646       -0.0000176162        0.0000099334

	---Fragment 1 Intrafragment Coordinates---
	 - Coordinate -           - BOHR/RAD -       - ANG/DEG -
	 R(1,2)           =         2.804268	       1.483955
	 R(1,3)           =         2.644691	       1.399510
	 R(1,5)           =         2.644706	       1.399518
	 R(2,4)           =         2.644701	       1.399515
	 R(2,6)           =         2.644698	       1.399514
	 R(3,7)           =         2.626560	       1.389916
	 R(3,13)          =         2.043053	       1.081137
	 R(4,8)           =         2.626553	       1.389912
	 R(4,14)          =         2.043052	       1.081137
	 R(5,9)           =         2.626551	       1.389911
	 R(5,15)          =         2.043053	       1.081137
	 R(6,10)          =         2.626554	       1.389912
	 R(6,16)          =         2.043055	       1.081138
	 R(7,11)          =         2.627810	       1.390577
	 R(7,17)          =         2.044247	       1.081769
	 R(8,12)          =         2.627815	       1.390580
	 R(8,18)          =         2.044246	       1.081769
	 R(9,11)          =         2.627817	       1.390581
	 R(9,19)          =         2.044248	       1.081769
	 R(10,12)         =         2.627815	       1.390580
	 R(10,20)         =         2.044249	       1.081770
	 R(11,21)         =         2.044195	       1.081741
	 R(12,22)         =         2.044194	       1.081741
	 B(1,2,4)         =         2.113608	     121.100821
	 B(1,2,6)         =         2.113610	     121.100935
	 B(1,3,7)         =         2.114154	     121.132105
	 B(1,3,13)        =         2.098295	     120.223423
	 B(1,5,9)         =         2.114152	     121.131985
	 B(1,5,15)        =         2.098286	     120.222943
	 B(2,1,3)         =         2.113623	     121.101691
	 B(2,1,5)         =         2.113592	     121.099900
	 B(2,4,8)         =         2.114158	     121.132327
	 B(2,4,14)        =         2.098285	     120.222862
	 B(2,6,10)        =         2.114151	     121.131939
	 B(2,6,16)        =         2.098288	     120.223049
	 B(3,1,5)         =         2.055970	     117.798409
	 B(3,7,11)        =         2.101238	     120.392072
	 B(3,7,17)        =         2.086295	     119.535875
	 B(4,2,6)         =         2.055967	     117.798243
	 B(4,8,12)        =         2.101237	     120.391987
	 B(4,8,18)        =         2.086302	     119.536302
	 B(5,9,11)        =         2.101239	     120.392117
	 B(5,9,19)        =         2.086298	     119.536093
	 B(6,10,12)       =         2.101244	     120.392405
	 B(6,10,20)       =         2.086300	     119.536199
	 B(7,3,13)        =         2.070514	     118.631685
	 B(7,11,9)        =         2.079617	     119.153270
	 B(7,11,21)       =         2.101786	     120.423479
	 B(8,4,14)        =         2.070519	     118.631972
	 B(8,12,10)       =         2.079613	     119.153058
	 B(8,12,22)       =         2.101786	     120.423449
	 B(9,5,15)        =         2.070523	     118.632240
	 B(9,11,21)       =         2.101782	     120.423251
	 B(10,6,16)       =         2.070523	     118.632232
	 B(10,12,22)      =         2.101786	     120.423493
	 B(11,7,17)       =         2.095636	     120.071093
	 B(11,9,19)       =         2.095632	     120.070841
	 B(12,8,18)       =         2.095630	     120.070762
	 B(12,10,20)      =         2.095624	     120.070437
	 D(1,2,4,8)       =         3.141007	     179.966422
	 D(1,2,4,14)      =        -0.023647	      -1.354895
	 D(1,2,6,10)      =         3.141128	     179.973362
	 D(1,2,6,16)      =        -0.023474	      -1.344947
	 D(1,3,7,11)      =         0.001086	       0.062235
	 D(1,3,7,17)      =         3.136466	     179.706240
	 D(1,5,9,11)      =         0.001028	       0.058908
	 D(1,5,9,19)      =         3.136439	     179.704736
	 D(2,1,3,7)       =         3.141127	     179.973319
	 D(2,1,3,13)      =        -0.023480	      -1.345304
	 D(2,1,5,9)       =         3.141007	     179.966439
	 D(2,1,5,15)      =        -0.023641	      -1.354520
	 D(2,4,8,12)      =         0.001033	       0.059172
	 D(2,4,8,18)      =         3.136445	     179.705037
	 D(2,6,10,12)     =         0.001081	       0.061918
	 D(2,6,10,20)     =         3.136458	     179.705803
	*D(3,1,2,4)       =        -0.282066	     -16.161200
	*D(3,1,2,6)       =         2.859419	     163.832669
	 D(3,1,5,9)       =        -0.000465	      -0.026670
	 D(3,1,5,15)      =         3.118072	     178.652371
	 D(3,7,11,9)      =        -0.000517	      -0.029636
	 D(3,7,11,21)     =         3.141068	     179.969963
	*D(4,2,1,5)       =         2.859651	     163.845920
	 D(4,2,6,10)      =        -0.000569	      -0.032573
	 D(4,2,6,16)      =         3.118015	     178.649118
	 D(4,8,12,10)     =        -0.000518	      -0.029662
	 D(4,8,12,22)     =         3.141077	     179.970472
	*D(5,1,2,6)       =        -0.282049	     -16.160212
	 D(5,1,3,7)       =        -0.000586	      -0.033573
	 D(5,1,3,13)      =         3.117992	     178.647805
	 D(5,9,11,7)      =        -0.000525	      -0.030107
	 D(5,9,11,21)     =         3.141074	     179.970294
	 D(6,2,4,8)       =        -0.000482	      -0.027642
	 D(6,2,4,14)      =         3.118049	     178.651040
	 D(6,10,12,8)     =        -0.000525	      -0.030055
	 D(6,10,12,22)    =         3.141066	     179.969811
	 D(7,11,9,19)     =        -3.135904	    -179.674037
	 D(8,12,10,20)    =        -3.135869	    -179.672033
	 D(9,11,7,17)     =        -3.135863	    -179.671731
	 D(10,12,8,18)    =        -3.135896	    -179.673631
	 D(11,7,3,13)     =        -3.117850	    -178.639652
	 D(11,9,5,15)     =        -3.117868	    -178.640665
	 D(12,8,4,14)     =        -3.117857	    -178.640051
	 D(12,10,6,16)    =        -3.117861	    -178.640266
	 D(13,3,7,17)     =         0.017529	       1.004353
	 D(14,4,8,18)     =         0.017555	       1.005815
	 D(15,5,9,19)     =         0.017543	       1.005163
	 D(16,6,10,20)    =         0.017516	       1.003620
	 D(17,7,11,21)    =         0.005722	       0.327868
	 D(18,8,12,22)    =         0.005699	       0.326504
	 D(19,9,11,21)    =         0.005696	       0.326364
	 D(20,10,12,22)   =         0.005722	       0.327832

	Current energy   :      -463.1271791144

	Energy change for the previous step:
		Projected    :        -0.0144511806
		Actual       :        -0.0069148639

	Performing BFGS update.
	Previous computed or guess Hessian on step 1.
	Steps to be used in Hessian update: 1
	Taking RFO optimization step.
	Going to follow RFO solution 1.
	Using RFO vector 1.
	Norm of target step-size    0.06148
	Projected energy change by RFO approximation:        -0.0005932129

	Back-transformation to cartesian coordinates...
	Could not converge backtransformation.
	Using first guess instead.

	Back-transformation to cartesian coordinates to adjust frozen coordinates...
	Successfully converged to displaced geometry.

	--- Internal Coordinate Step in ANG or DEG, aJ/ANG or AJ/DEG ---
	 ---------------------------------------------------------------------------
	   Coordinate                Previous        Force       Change         New 
	   ----------                --------       ------       ------       ------
	    1 R(1,2)          =      1.483955     0.065756     0.011436     1.495391
	    2 R(1,3)          =      1.399510     0.033815     0.004178     1.403688
	    3 R(1,5)          =      1.399518     0.033791     0.004175     1.403693
	    4 R(2,4)          =      1.399515     0.033795     0.004175     1.403691
	    5 R(2,6)          =      1.399514     0.033809     0.004177     1.403691
	    6 R(3,7)          =      1.389916     0.013147     0.001355     1.391271
	    7 R(3,13)         =      1.081137    -0.006039    -0.001037     1.080100
	    8 R(4,8)          =      1.389912     0.013158     0.001357     1.391269
	    9 R(4,14)         =      1.081137    -0.006036    -0.001036     1.080100
	   10 R(5,9)          =      1.389911     0.013161     0.001357     1.391268
[...]
	 R(9,19)          =         2.044111	       1.081697
	 R(10,12)         =         2.630449	       1.391974
	 R(10,20)         =         2.044111	       1.081697
	 R(11,21)         =         2.043307	       1.081271
	 R(12,22)         =         2.043307	       1.081271
	 B(1,2,4)         =         2.117969	     121.350690
	 B(1,2,6)         =         2.117984	     121.351533
	 B(1,3,7)         =         2.118946	     121.406639
	 B(1,3,13)        =         2.097830	     120.196832
	 B(1,5,9)         =         2.118945	     121.406630
	 B(1,5,15)        =         2.097829	     120.196731
	 B(2,1,3)         =         2.117973	     121.350890
	 B(2,1,5)         =         2.117980	     121.351315
	 B(2,4,8)         =         2.118947	     121.406732
	 B(2,4,14)        =         2.097825	     120.196547
	 B(2,6,10)        =         2.118944	     121.406558
	 B(2,6,16)        =         2.097832	     120.196916
	 B(3,1,5)         =         2.047233	     117.297795
	 B(3,7,11)        =         2.101121	     120.385371
	 B(3,7,17)        =         2.086035	     119.521020
	 B(4,2,6)         =         2.047232	     117.297777
	 B(4,8,12)        =         2.101120	     120.385284
	 B(4,8,18)        =         2.086039	     119.521215
	 B(5,9,11)        =         2.101121	     120.385345
	 B(5,9,19)        =         2.086039	     119.521205
	 B(6,10,12)       =         2.101122	     120.385445
	 B(6,10,20)       =         2.086038	     119.521169
	 B(7,3,13)        =         2.065846	     118.364267
	 B(7,11,9)        =         2.079005	     119.118214
	 B(7,11,21)       =         2.102091	     120.440967
	 B(8,4,14)        =         2.065850	     118.364490
	 B(8,12,10)       =         2.079005	     119.118196
	 B(8,12,22)       =         2.102091	     120.440934
	 B(9,5,15)        =         2.065848	     118.364397
	 B(9,11,21)       =         2.102089	     120.440819
	 B(10,6,16)       =         2.065846	     118.364257
	 B(10,12,22)      =         2.102090	     120.440870
	 B(11,7,17)       =         2.095991	     120.091422
	 B(11,9,19)       =         2.095988	     120.091267
	 B(12,8,18)       =         2.095989	     120.091317
	 B(12,10,20)      =         2.095987	     120.091200
	 D(1,2,4,8)       =         3.141302	     179.983372
	 D(1,2,4,14)      =        -0.036924	      -2.115584
	 D(1,2,6,10)      =         3.141459	     179.992364
	 D(1,2,6,16)      =        -0.036788	      -2.107803
	 D(1,3,7,11)      =         0.000433	       0.024781
	 D(1,3,7,17)      =         3.132645	     179.487364
	 D(1,5,9,11)      =         0.000418	       0.023927
	 D(1,5,9,19)      =         3.132640	     179.487079
	 D(2,1,3,7)       =         3.141477	     179.993373
	 D(2,1,3,13)      =        -0.036767	      -2.106573
	 D(2,1,5,9)       =         3.141285	     179.982399
	 D(2,1,5,15)      =        -0.036947	      -2.116920
	 D(2,4,8,12)      =         0.000420	       0.024056
	 D(2,4,8,18)      =         3.132640	     179.487058
	 D(2,6,10,12)     =         0.000432	       0.024725
	 D(2,6,10,20)     =         3.132647	     179.487426
	*D(3,1,2,4)       =        -0.282066	     -16.161200
	*D(3,1,2,6)       =         2.859419	     163.832669
	 D(3,1,5,9)       =        -0.000188	      -0.010759
	 D(3,1,5,15)      =         3.104765	     177.889922
	 D(3,7,11,9)      =        -0.000199	      -0.011423
	 D(3,7,11,21)     =         3.141385	     179.988105
	*D(4,2,1,5)       =         2.859651	     163.845920
	 D(4,2,6,10)      =        -0.000236	      -0.013529
	 D(4,2,6,16)      =         3.104702	     177.886304
	 D(4,8,12,10)     =        -0.000223	      -0.012765
	 D(4,8,12,22)     =         3.141382	     179.987944
	*D(5,1,2,6)       =        -0.282049	     -16.160212
	 D(5,1,3,7)       =        -0.000235	      -0.013468
	 D(5,1,3,13)      =         3.104707	     177.886586
	 D(5,9,11,7)      =        -0.000219	      -0.012520
	 D(5,9,11,21)     =         3.141382	     179.987951
	 D(6,2,4,8)       =        -0.000187	      -0.010735
	 D(6,2,4,14)      =         3.104772	     177.890309
	 D(6,10,12,8)     =        -0.000196	      -0.011215
	 D(6,10,12,22)    =         3.141385	     179.988076
	 D(7,11,9,19)     =        -3.132388	    -179.472604
	 D(8,12,10,20)    =        -3.132357	    -179.470845
	 D(9,11,7,17)     =        -3.132359	    -179.470933
	 D(10,12,8,18)    =        -3.132389	    -179.472696
	 D(11,7,3,13)     =        -3.105161	    -177.912620
	 D(11,9,5,15)     =        -3.105187	    -177.914084
	 D(12,8,4,14)     =        -3.105190	    -177.914306
	 D(12,10,6,16)    =        -3.105158	    -177.912460
	 D(13,3,7,17)     =         0.027052	       1.549964
	 D(14,4,8,18)     =         0.027030	       1.548696
	 D(15,5,9,19)     =         0.027036	       1.549068
	 D(16,6,10,20)    =         0.027057	       1.550240
	 D(17,7,11,21)    =         0.009226	       0.528595
	 D(18,8,12,22)    =         0.009216	       0.528012
	 D(19,9,11,21)    =         0.009213	       0.527868
	 D(20,10,12,22)   =         0.009223	       0.528447

	Current energy   :      -463.1273643866

	Energy change for the previous step:
		Projected    :        -0.0005932129
		Actual       :        -0.0001852722

	Performing BFGS update.
	Previous computed or guess Hessian on step 1.
	Steps to be used in Hessian update: 2 1
	Taking RFO optimization step.
	Going to follow RFO solution 1.
	Using RFO vector 1.
	Norm of target step-size    0.02933
	Projected energy change by RFO approximation:         0.0000068874

	Back-transformation to cartesian coordinates...
	Successfully converged to displaced geometry.

	Back-transformation to cartesian coordinates to adjust frozen coordinates...
	Successfully converged to displaced geometry.

	--- Internal Coordinate Step in ANG or DEG, aJ/ANG or AJ/DEG ---
	 ---------------------------------------------------------------------------
	   Coordinate                Previous        Force       Change         New 
	   ----------                --------       ------       ------       ------
	    1 R(1,2)          =      1.495391    -0.016514    -0.002362     1.493029
	    2 R(1,3)          =      1.403688    -0.003066    -0.000369     1.403319
	    3 R(1,5)          =      1.403693    -0.003093    -0.000373     1.403320
	    4 R(2,4)          =      1.403691    -0.003074    -0.000370     1.403320
	    5 R(2,6)          =      1.403691    -0.003087    -0.000372     1.403319
	    6 R(3,7)          =      1.391271     0.000459     0.000055     1.391326
	    7 R(3,13)         =      1.080100     0.003182     0.000390     1.080490
	    8 R(4,8)          =      1.391269     0.000466     0.000056     1.391324
	    9 R(4,14)         =      1.080100     0.003183     0.000390     1.080491
	   10 R(5,9)          =      1.391268     0.000469     0.000056     1.391324
	   11 R(5,15)         =      1.080100     0.003187     0.000391     1.080491
	   12 R(6,10)         =      1.391269     0.000468     0.000056     1.391325
	   13 R(6,16)         =      1.080100     0.003186     0.000391     1.080491
	   14 R(7,11)         =      1.391973     0.004083     0.000535     1.392508
	   15 R(7,17)         =      1.081697     0.000265     0.000008     1.081704
	   16 R(8,12)         =      1.391974     0.004076     0.000534     1.392509
	   17 R(8,18)         =      1.081697     0.000265     0.000008     1.081704
	   18 R(9,11)         =      1.391975     0.004076     0.000534     1.392509
	   19 R(9,19)         =      1.081697     0.000265     0.000007     1.081704
	   20 R(10,12)        =      1.391974     0.004079     0.000535     1.392508
	   21 R(10,20)        =      1.081697     0.000264     0.000007     1.081704
	   22 R(11,21)        =      1.081271     0.000428     0.000010     1.081282
	   23 R(12,22)        =      1.081271     0.000428     0.000010     1.081282
	   24 B(1,2,4)        =    121.350690    -0.000033    -0.065022   121.285668
	   25 B(1,2,6)        =    121.351533    -0.000033    -0.066208   121.285325
	   26 B(1,3,7)        =    121.406639    -0.000028    -0.062385   121.344253
	   27 B(1,3,13)       =    120.196832     0.000003    -0.001748   120.195084
	   28 B(1,5,9)        =    121.406630    -0.000028    -0.062333   121.344296
	   29 B(1,5,15)       =    120.196731     0.000003    -0.001927   120.194804
	   30 B(2,1,3)        =    121.350890    -0.000033    -0.065304   121.285586
	   31 B(2,1,5)        =    121.351315    -0.000033    -0.065902   121.285413
	   32 B(2,4,8)        =    121.406732    -0.000028    -0.062436   121.344296
	   33 B(2,4,14)       =    120.196547     0.000003    -0.001670   120.194876
	   34 B(2,6,10)       =    121.406558    -0.000028    -0.062311   121.344246
	   35 B(2,6,16)       =    120.196916     0.000003    -0.001926   120.194990
	   36 B(3,1,5)        =    117.297795     0.000066     0.131205   117.429000
	   37 B(3,7,11)       =    120.385371    -0.000008    -0.014797   120.370575
	   38 B(3,7,17)       =    119.521020    -0.000004    -0.025089   119.495931
	   39 B(4,2,6)        =    117.297777     0.000066     0.131230   117.429007
	   40 B(4,8,12)       =    120.385284    -0.000008    -0.014755   120.370530
	   41 B(4,8,18)       =    119.521215    -0.000004    -0.025191   119.496024
	   42 B(5,9,11)       =    120.385345    -0.000008    -0.014789   120.370556
	   43 B(5,9,19)       =    119.521205    -0.000004    -0.025163   119.496042
	   44 B(6,10,12)      =    120.385445    -0.000008    -0.014853   120.370592
	   45 B(6,10,20)      =    119.521169    -0.000004    -0.025180   119.495989
	   46 B(7,3,13)       =    118.364267     0.000025     0.077470   118.441738
	   47 B(7,11,9)       =    119.118214     0.000005     0.022607   119.140821
	   48 B(7,11,21)      =    120.440967    -0.000002    -0.011335   120.429632
	   49 B(8,4,14)       =    118.364490     0.000025     0.077370   118.441860
	   50 B(8,12,10)      =    119.118196     0.000005     0.022634   119.140830
	   51 B(8,12,22)      =    120.440934    -0.000002    -0.011329   120.429604
	   52 B(9,5,15)       =    118.364397     0.000025     0.077535   118.441932
	   53 B(9,11,21)      =    120.440819    -0.000002    -0.011272   120.429547
	   54 B(10,6,16)      =    118.364257     0.000025     0.077580   118.441837
	   55 B(10,12,22)     =    120.440870    -0.000002    -0.011304   120.429566
	   56 B(11,7,17)      =    120.091422     0.000012     0.040543   120.131966
	   57 B(11,9,19)      =    120.091267     0.000012     0.040614   120.131882
	   58 B(12,8,18)      =    120.091317     0.000012     0.040608   120.131925
	   59 B(12,10,20)     =    120.091200     0.000012     0.040691   120.131891
	   60 D(1,2,4,8)      =    179.983372    -0.000001    -0.092688   179.890684
	   61 D(1,2,4,14)     =     -2.115584     0.000002     0.397195    -1.718388
	   62 D(1,2,6,10)     =    179.992364    -0.000001    -0.094396   179.897968
	   63 D(1,2,6,16)     =     -2.107803     0.000002     0.398461    -1.709342
	   64 D(1,3,7,11)     =      0.024781     0.000001     0.189114     0.213895
	   65 D(1,3,7,17)     =    179.487364     0.000002     0.277325   179.764690
	   66 D(1,5,9,11)     =      0.023927     0.000001     0.186989     0.210916
	   67 D(1,5,9,19)     =    179.487079     0.000002     0.275911   179.762990
	   68 D(2,1,3,7)      =    179.993373    -0.000001    -0.095136   179.898238
	   69 D(2,1,3,13)     =     -2.106573     0.000002     0.397572    -1.709000
	   70 D(2,1,5,9)      =    179.982399    -0.000001    -0.092015   179.890385
	   71 D(2,1,5,15)     =     -2.116920     0.000002     0.398242    -1.718678
	   72 D(2,4,8,12)     =      0.024056     0.000001     0.187114     0.211170
	   73 D(2,4,8,18)     =    179.487058     0.000002     0.276050   179.763107
	   74 D(2,6,10,12)    =      0.024725     0.000001     0.188855     0.213581
	   75 D(2,6,10,20)    =    179.487426     0.000002     0.277123   179.764548
	   76 *D(3,1,2,4)     =    -16.161200    -0.000000     0.000000   -16.161200
	   77 *D(3,1,2,6)     =    163.832669     0.000000    -0.000000   163.832669
	   78 D(3,1,5,9)      =     -0.010759    -0.000001    -0.092002    -0.102761
	   79 D(3,1,5,15)     =    177.889922     0.000002     0.398255   178.288177
	   80 D(3,7,11,9)     =     -0.011423    -0.000001    -0.093012    -0.104435
	   81 D(3,7,11,21)    =    179.988105    -0.000001    -0.093006   179.895099
	   82 *D(4,2,1,5)     =    163.845920    -0.000000     0.000000   163.845920
	   83 D(4,2,6,10)     =     -0.013529    -0.000001    -0.094407    -0.107936
	   84 D(4,2,6,16)     =    177.886304     0.000002     0.398450   178.284754
	   85 D(4,8,12,10)    =     -0.012765    -0.000001    -0.091657    -0.104421
	   86 D(4,8,12,22)    =    179.987944    -0.000001    -0.092167   179.895777
	   87 *D(5,1,2,6)     =    -16.160212     0.000000    -0.000000   -16.160212
	   88 D(5,1,3,7)      =     -0.013468    -0.000001    -0.095149    -0.108617
	   89 D(5,1,3,13)     =    177.886586     0.000002     0.397559   178.284145
	   90 D(5,9,11,7)     =     -0.012520    -0.000001    -0.092038    -0.104558
	   91 D(5,9,11,21)    =    179.987951    -0.000001    -0.092044   179.895908
	   92 D(6,2,4,8)      =     -0.010735    -0.000001    -0.092677    -0.103412
	   93 D(6,2,4,14)     =    177.890309     0.000002     0.397206   178.287515
	   94 D(6,10,12,8)    =     -0.011215    -0.000001    -0.093327    -0.104542
	   95 D(6,10,12,22)   =    179.988076    -0.000001    -0.092817   179.895259
	   96 D(7,11,9,19)    =   -179.472604    -0.000001    -0.181171  -179.653775
	   97 D(8,12,10,20)   =   -179.470845    -0.000001    -0.181800  -179.652645
	   98 D(9,11,7,17)    =   -179.470933    -0.000001    -0.181430  -179.652363
	   99 D(10,12,8,18)   =   -179.472696    -0.000001    -0.180804  -179.653500
	  100 D(11,7,3,13)    =   -177.912620    -0.000002    -0.293643  -178.206263
	  101 D(11,9,5,15)    =   -177.914084    -0.000002    -0.293357  -178.207441
	  102 D(12,8,4,14)    =   -177.914306    -0.000002    -0.292873  -178.207179
	  103 D(12,10,6,16)   =   -177.912460    -0.000002    -0.294043  -178.206503
	  104 D(13,3,7,17)    =      1.549964    -0.000001    -0.205432     1.344532
	  105 D(14,4,8,18)    =      1.548696    -0.000001    -0.203937     1.344758
	  106 D(15,5,9,19)    =      1.549068    -0.000001    -0.204435     1.344633
	  107 D(16,6,10,20)   =      1.550240    -0.000001    -0.205776     1.344465
	  108 D(17,7,11,21)   =      0.528595    -0.000001    -0.181425     0.347171
	  109 D(18,8,12,22)   =      0.528012    -0.000001    -0.181314     0.346698
	  110 D(19,9,11,21)   =      0.527868    -0.000001    -0.181177     0.346691
	  111 D(20,10,12,22)  =      0.528447    -0.000001    -0.181290     0.347156
	 ---------------------------------------------------------------------------
	Successfully symmetrized geometry.

  ==> Convergence Check <==

  Measures of convergence in internal coordinates in au.
  Criteria marked as inactive (o), active & met (*), and active & unmet ( ).
  ---------------------------------------------------------------------------------------------
   Step     Total Energy     Delta E     MAX Force     RMS Force      MAX Disp      RMS Disp   
  ---------------------------------------------------------------------------------------------
    Convergence Criteria             o    2.50e-03 *    1.70e-03 *    1.00e-02 *    6.70e-03 *
  ---------------------------------------------------------------------------------------------
      3    -463.12736439   -1.85e-04 o    2.00e-03 *    2.99e-04 *    6.95e-03 *    2.78e-03 *  ~
  ---------------------------------------------------------------------------------------------


  **** Optimization is complete! (in 3 steps) ****

  ==> Optimization Summary <==

  Measures of convergence in internal coordinates in au.
  --------------------------------------------------------------------------------------------------------------- ~
   Step         Total Energy             Delta E       MAX Force       RMS Force        MAX Disp        RMS Disp  ~
  --------------------------------------------------------------------------------------------------------------- ~
      1    -463.120264250552   -463.120264250552      0.03025430      0.00750296      0.07450496      0.01919688  ~
      2    -463.127179114416     -0.006914863864      0.00798132      0.00129474      0.02161157      0.00583358  ~
      3    -463.127364386610     -0.000185272194      0.00200447      0.00029874      0.00695445      0.00278344  ~
  --------------------------------------------------------------------------------------------------------------- ~

	Writing optimization data to binary file.
	Final energy is   -463.1273643866099
	Final (previous) structure:
	Cartesian Geometry (in Angstrom)
	    C     0.7455218183   0.0498545984  -0.0275765617
	    C    -0.7455053707  -0.0499912406   0.0277704141
	    C     1.4188985867   1.1900630077   0.4380724875
	    C    -1.5059133089   0.8133976484   0.8319385717
	    C     1.5285005524  -0.9927672000  -0.5474210718
	    C    -1.4414721607  -1.0108143539  -0.7224284185
	    C     2.8060553185   1.2841332844   0.3872606639
	    C    -2.8931825859   0.7217619097   0.8840519448
	    C     2.9157467243  -0.9009476141  -0.5997986811
	    C    -2.8286332532  -1.1048267702  -0.6716811672
	    C     3.5640820641   0.2387059536  -0.1324168531
	    C    -3.5640955746  -0.2385918184   0.1322611840
	    H     0.8608538321   2.0340833772   0.8160037619
	    H    -1.0164247207   1.5478212826   1.4545455122
	    H     1.0614601830  -1.9054560884  -0.8872565197
	    H    -0.9058688812  -1.6766167570  -1.3830735632
	    H     3.2930192000   2.1805487080   0.7469456020
	    H    -3.4484331928   1.3973812412   1.5206861143
	    H     3.4898483482  -1.7262608797  -0.9989645356
	    H    -3.3344640642  -1.8514360125  -1.2689901765
	    H     4.6421926486   0.3109396762  -0.1725147615
	    H    -4.6422168159  -0.3107355137   0.1722314456
	Saving final (previous) structure.
			--------------------------
			 OPTKING Finished Execution 
			--------------------------

    Final optimized geometry and variables:
    Molecular point group: c1
    Full point group: C1

    Geometry (in Angstrom), charge = 0, multiplicity = 1:

    C            0.745521821230     0.049854598573    -0.027576561823
    C           -0.745505373629    -0.049991240825     0.027770414201
    C            1.418898592283     1.190063012393     0.438072489241
    C           -1.505913314775     0.813397651616     0.831938574935
    C            1.528500558440    -0.992767203886    -0.547421073999
    C           -1.441472166332    -1.010814357900    -0.722428421361
    C            2.806055329555     1.284133289481     0.387260665395
    C           -2.893182597319     0.721761912542     0.884051948279
    C            2.915746735762    -0.900947617603    -0.599798683427
    C           -2.828633264315    -1.104826774586    -0.671681169875
    C            3.564082078144     0.238705954575    -0.132416853607
    C           -3.564095588643    -0.238591819309     0.132261184530
    H            0.860853835490     2.034083385179     0.816003765099
    H           -1.016424724702     1.547821288731     1.454545517874
    H            1.061460187154    -1.905456095887    -0.887256523203
    H           -0.905868884776    -1.676616763595    -1.383073568673
    H            3.293019212929     2.180548716609     0.746945604944
    H           -3.448433206383     1.397381246671     1.520686120233
    H            3.489848361883    -1.726260886455    -0.998964539480
    H           -3.334464077270    -1.851436019798    -1.268990181454
    H            4.642192666872     0.310939677423    -0.172514762224
    H           -4.642216834170    -0.310735514931     0.172231446247

	Removing binary optimization data file.
	Cleaning optimization helper files.

    Psi4 stopped on: Monday, 31 May 2021 05:17PM
    Psi4 wall time for execution: 0:01:52.40

*** Psi4 exiting successfully. Buy a developer a beer!
