
    -----------------------------------------------------------------------
          Psi4: An Open-Source Ab Initio Electronic Structure Package
                               Psi4 1.3.2 release

                         Git: Rev {HEAD} ecbda83 


    R. M. Parrish, L. A. Burns, D. G. A. Smith, A. C. Simmonett,
    A. E. DePrince III, E. G. Hohenstein, U. Bozkaya, A. Yu. Sokolov,
    R. Di Remigio, R. M. Richard, J. F. Gonthier, A. M. James,
    H. R. McAlexander, A. Kumar, M. Saitow, X. Wang, B. P. Pritchard,
    P. Verma, H. F. Schaefer III, K. Patkowski, R. A. King, E. F. Valeev,
    F. A. Evangelista, J. M. Turney, T. D. Crawford, and C. D. Sherrill,
    J. Chem. Theory Comput. 13(7) pp 3185--3197 (2017).
    (doi: 10.1021/acs.jctc.7b00174)


                         Additional Contributions by
    P. Kraus, H. Kruse, M. H. Lechner, M. C. Schieber, R. A. Shaw,
    A. Alenaizan, R. Galvelis, Z. L. Glick, S. Lehtola, and J. P. Misiewicz

    -----------------------------------------------------------------------


    Psi4 started on: Monday, 31 May 2021 05:20PM

    Process ID: 29968
    Host:       daniele-Precision-5750
    PSIDATADIR: /home/daniele/anaconda3/envs/poltype/share/psi4
    Memory:     500.0 MiB
    Threads:    1
    
  ==> Input File <==

--------------------------------------------------------------------------
molecule { 
0 1
 C    0.744959    0.049892   -0.028035
 C   -0.745055   -0.049880    0.027275
 C    1.468224    0.814952    0.943740
 C   -1.551825    1.108063    0.274422
 C    1.490149   -0.616714   -1.054153
 C   -1.406758   -1.305929   -0.165266
 C    2.872550    0.903960    0.883368
 C   -2.955508    1.004467    0.325541
 C    2.894423   -0.517530   -1.097885
 C   -2.811682   -1.390169   -0.112070
 C    3.583814    0.240187   -0.133156
 C   -3.583936   -0.239613    0.132769
 H    0.938601    1.330407    1.742981
 H   -1.086856    2.081660    0.419013
 H    0.976464   -1.202297   -1.814646
 H   -0.828399   -2.209766   -0.348852
 H    3.410940    1.488284    1.627683
 H   -3.557801    1.891633    0.513933
 H    3.449522   -1.028505   -1.882696
 H   -3.302896   -2.350400   -0.259787
 H    4.669310    0.313010   -0.173497
 H   -4.669437   -0.312269    0.173211
}
set optking { 
  frozen_dihedral = ("
    3 1 2 4
    3 1 2 6
    5 1 2 4
    5 1 2 6
  ")
}
set {
  geom_maxiter 400
  g_convergence GAU_LOOSE
  dynamic_level 1
}
memory 700MB
set_num_threads(3)
psi4_io.set_default_path("/home/daniele/PSI4_sctatch/Psi4-biphenyl")
for _ in range(1):
  try:
    set opt_coordinates both
    optimize('wb97x-d/6-311G')
    break
  except OptimizationConvergenceError:
    break
  else:
    try:
      set opt_coordinates cartesian
      optimize('wb97x-d/6-311G')
      break
    except OptimizationConvergenceError:
      pass
clean()
--------------------------------------------------------------------------

  Memory set to 667.572 MiB by Python driver.
  Threads set to 3 by Python driver.
gradient() will perform analytic gradient computation.

*** tstart() called on daniele-Precision-5750
*** at Mon May 31 17:20:27 2021

   => Loading Basis Set <=

    Name: 6-311G
    Role: ORBITAL
    Keyword: BASIS
    atoms 1-12  entry C          line    92 file /home/daniele/anaconda3/envs/poltype/share/psi4/basis/6-311g.gbs 
    atoms 13-22 entry H          line    21 file /home/daniele/anaconda3/envs/poltype/share/psi4/basis/6-311g.gbs 


         ---------------------------------------------------------
                                   SCF
               by Justin Turney, Rob Parrish, Andy Simmonett
                          and Daniel G. A. Smith
                              RKS Reference
                        3 Threads,    667 MiB Core
         ---------------------------------------------------------

  ==> Geometry <==

    Molecular point group: c1
    Full point group: C1

    Geometry (in Angstrom), charge = 0, multiplicity = 1:

       Center              X                  Y                   Z               Mass       
    ------------   -----------------  -----------------  -----------------  -----------------
         C            0.745012844844     0.049749197570    -0.027748925937    12.000000000000
         C           -0.745001155156    -0.050022802430     0.027561074063    12.000000000000
         C            1.468277844844     0.814809197570     0.944026074063    12.000000000000
         C           -1.551771155156     1.107920197570     0.274708074063    12.000000000000
         C            1.490202844844    -0.616856802430    -1.053866925937    12.000000000000
         C           -1.406704155156    -1.306071802430    -0.164979925937    12.000000000000
         C            2.872603844844     0.903817197570     0.883654074063    12.000000000000
         C           -2.955454155156     1.004324197570     0.325827074063    12.000000000000
         C            2.894476844844    -0.517672802430    -1.097598925937    12.000000000000
         C           -2.811628155156    -1.390311802430    -0.111783925937    12.000000000000
         C            3.583867844844     0.240044197570    -0.132869925937    12.000000000000
         C           -3.583882155156    -0.239755802430     0.133055074063    12.000000000000
         H            0.938654844844     1.330264197570     1.743267074063     1.007825032230
         H           -1.086802155156     2.081517197570     0.419299074063     1.007825032230
         H            0.976517844844    -1.202439802430    -1.814359925937     1.007825032230
         H           -0.828345155156    -2.209908802430    -0.348565925937     1.007825032230
         H            3.410993844844     1.488141197570     1.627969074063     1.007825032230
         H           -3.557747155156     1.891490197570     0.514219074063     1.007825032230
         H            3.449575844844    -1.028647802430    -1.882409925937     1.007825032230
         H           -3.302842155156    -2.350542802430    -0.259500925937     1.007825032230
         H            4.669363844844     0.312867197570    -0.173210925937     1.007825032230
         H           -4.669383155156    -0.312411802430     0.173497074063     1.007825032230

  Running in c1 symmetry.

  Rotational constants: A =      0.09268  B =      0.01771  C =      0.01557 [cm^-1]
  Rotational constants: A =   2778.56567  B =    530.94053  C =    466.89669 [MHz]
  Nuclear repulsion =  591.856724923993852

  Charge       = 0
  Multiplicity = 1
  Electrons    = 82
  Nalpha       = 41
  Nbeta        = 41

  ==> Algorithm <==

  SCF Algorithm Type is DF.
  DIIS enabled.
  MOM disabled.
  Fractional occupation disabled.
  Guess Type is SAD.
  Energy threshold   = 1.00e-08
  Density threshold  = 1.00e-08
  Integral threshold = 0.00e+00

  ==> Primary Basis <==

  Basis Set: 6-311G
    Blend: 6-311G
    Number of shells: 114
    Number of basis function: 186
    Number of Cartesian functions: 186
    Spherical Harmonics?: true
    Max angular momentum: 1

  ==> DFT Potential <==

   => Composite Functional: WB97X-D <= 

    wB97X-D Hyb-GGA Exchange-Correlation Functional

    J.-D. Chai and M. Head-Gordon, Phys. Chem. Chem. Phys. 10, 6615 (2008)

    Deriv               =              1
    GGA                 =           TRUE
    Meta                =          FALSE

    Exchange Hybrid     =           TRUE
    MP2 Hybrid          =          FALSE

   => Exchange-Correlation Functionals <=

    1.0000   wB97D range-separated functional

   => Exact (HF) Exchange <=

    0.7780            HF,LR [omega = 0.2000]
    0.2220               HF 

   => Molecular Quadrature <=

    Radial Scheme          =       TREUTLER
    Pruning Scheme         =           FLAT
    Nuclear Scheme         =       TREUTLER

    BS radius alpha        =              1
    Pruning alpha          =              1
    Radial Points          =             75
    Spherical Points       =            302
    Total Points           =         491412
    Total Blocks           =           3610
    Max Points             =            256
    Max Functions          =            155

   => WB97X-D: Empirical Dispersion <=

    Chai and Head-Gordon Dispersion Correction
    Chai, J.-D.; Head-Gordon, M. (2010), J. Chem. Phys., 132: 6615-6620

        s6 =       1.000000

   => Loading Basis Set <=

    Name: (6-311G AUX)
    Role: JKFIT
    Keyword: DF_BASIS_SCF
    atoms 1-12  entry C          line   125 file /home/daniele/anaconda3/envs/poltype/share/psi4/basis/cc-pvtz-jkfit.gbs 
    atoms 13-22 entry H          line    51 file /home/daniele/anaconda3/envs/poltype/share/psi4/basis/cc-pvtz-jkfit.gbs 

  ==> Pre-Iterations <==

   -------------------------------------------------------
    Irrep   Nso     Nmo     Nalpha   Nbeta   Ndocc  Nsocc
   -------------------------------------------------------
     A        186     186       0       0       0       0
   -------------------------------------------------------
    Total     186     186      41      41      41       0
   -------------------------------------------------------

  ==> Integral Setup <==

  ==> DiskDFJK: Density-Fitted J/K Matrices <==

    J tasked:                  Yes
    K tasked:                  Yes
    wK tasked:                 Yes
    Omega:               2.000E-01
    OpenMP threads:              3
    Integrals threads:           3
    Memory [MiB]:              172
    Algorithm:                Disk
    Integral Cache:           NONE
    Schwarz Cutoff:          1E-12
    Fitting Condition:       1E-10

   => Auxiliary Basis Set <=

  Basis Set: (6-311G AUX)
    Blend: CC-PVTZ-JKFIT
    Number of shells: 400
    Number of basis function: 1248
    Number of Cartesian functions: 1502
    Spherical Harmonics?: true
    Max angular momentum: 4

  Cached 25.0% of DFT collocation blocks in 0.389 [GiB].

  Minimum eigenvalue in the overlap matrix is 2.7385836838E-04.
  Using Symmetric Orthogonalization.

  SCF Guess: Superposition of Atomic Densities via on-the-fly atomic UHF.

  ==> Iterations <==

                           Total Energy        Delta E     RMS |[F,P]|

   @DF-RKS iter SAD:  -462.20512185688239   -4.62205e+02   0.00000e+00 
   @DF-RKS iter   1:  -462.81914546505163   -6.14024e-01   3.93634e-03 DIIS
   @DF-RKS iter   2:  -463.01702762253012   -1.97882e-01   2.42336e-03 DIIS
   @DF-RKS iter   3:  -463.12318790891646   -1.06160e-01   2.42001e-04 DIIS
   @DF-RKS iter   4:  -463.12369784459401   -5.09936e-04   2.04370e-04 DIIS
   @DF-RKS iter   5:  -463.12450927733948   -8.11433e-04   1.66258e-05 DIIS
   @DF-RKS iter   6:  -463.12451660448858   -7.32715e-06   3.87679e-06 DIIS
   @DF-RKS iter   7:  -463.12451688626186   -2.81773e-07   1.79211e-06 DIIS
   @DF-RKS iter   8:  -463.12451695738218   -7.11203e-08   2.07098e-07 DIIS
   @DF-RKS iter   9:  -463.12451696100965   -3.62746e-09   9.46740e-08 DIIS
   @DF-RKS iter  10:  -463.12451696127061   -2.60968e-10   3.35966e-08 DIIS
   @DF-RKS iter  11:  -463.12451696131473   -4.41105e-11   2.71316e-09 DIIS
  Energy and wave function converged.


  ==> Post-Iterations <==

    Orbital Energies [Eh]
    ---------------------

    Doubly Occupied:                                                      

       1A    -10.316306     2A    -10.316037     3A    -10.300450  
       4A    -10.300448     5A    -10.300436     6A    -10.300434  
       7A    -10.298851     8A    -10.298849     9A    -10.298766  
      10A    -10.298766    11A    -10.297168    12A    -10.297168  
      13A     -0.970600    14A     -0.950060    15A     -0.880059  
      16A     -0.853692    17A     -0.847440    18A     -0.822094  
      19A     -0.725136    20A     -0.715004    21A     -0.690929  
      22A     -0.675557    23A     -0.626341    24A     -0.594297  
      25A     -0.565331    26A     -0.555319    27A     -0.536199  
      28A     -0.529056    29A     -0.517073    30A     -0.510787  
      31A     -0.510606    32A     -0.465433    33A     -0.453735  
      34A     -0.448549    35A     -0.438020    36A     -0.423002  
      37A     -0.422746    38A     -0.353865    39A     -0.333114  
      40A     -0.332072    41A     -0.301564  

    Virtual:                                                              

      42A      0.030536    43A      0.057488    44A      0.057998  
      45A      0.087637    46A      0.124787    47A      0.131310  
      48A      0.147647    49A      0.163115    50A      0.165241  
      51A      0.184617    52A      0.190384    53A      0.204548  
      54A      0.208137    55A      0.224385    56A      0.231418  
      57A      0.234047    58A      0.299434    59A      0.315652  
      60A      0.340726    61A      0.346889    62A      0.357242  
      63A      0.361210    64A      0.366058    65A      0.377421  
      66A      0.388317    67A      0.407000    68A      0.433831  
      69A      0.452531    70A      0.458131    71A      0.473390  
      72A      0.477889    73A      0.481935    74A      0.487177  
      75A      0.491409    76A      0.504942    77A      0.509245  
      78A      0.510970    79A      0.518661    80A      0.523577  
      81A      0.527474    82A      0.549935    83A      0.554956  
      84A      0.557970    85A      0.569584    86A      0.579941  
      87A      0.601639    88A      0.610924    89A      0.634377  
      90A      0.637904    91A      0.659330    92A      0.665652  
      93A      0.676508    94A      0.677856    95A      0.688821  
      96A      0.695269    97A      0.695563    98A      0.703587  
      99A      0.715834   100A      0.727543   101A      0.732495  
     102A      0.739919   103A      0.744486   104A      0.755864  
     105A      0.800200   106A      0.831301   107A      0.851626  
     108A      0.851879   109A      0.855317   110A      0.863779  
     111A      0.877389   112A      0.879587   113A      0.914024  
     114A      0.914983   115A      0.926765   116A      0.954511  
     117A      0.955980   118A      0.974302   119A      0.991210  
     120A      1.002983   121A      1.024791   122A      1.100690  
     123A      1.106986   124A      1.144636   125A      1.146388  
     126A      1.168799   127A      1.348228   128A      1.373908  
     129A      2.284321   130A      2.312800   131A      2.345183  
     132A      2.347506   133A      2.408316   134A      2.408952  
     135A      2.431804   136A      2.452835   137A      2.588648  
     138A      2.624891   139A      2.628808   140A      2.632060  
     141A      2.666833   142A      2.667546   143A      2.670690  
     144A      2.712638   145A      2.782034   146A      2.783895  
     147A      2.820684   148A      2.823197   149A      2.834221  
     150A      2.844390   151A      2.852905   152A      2.880009  
     153A      2.936712   154A      2.942728   155A      2.945673  
     156A      2.987554   157A      3.007446   158A      3.010045  
     159A      3.089490   160A      3.147100   161A      3.191959  
     162A      3.216317   163A      3.227565   164A      3.231931  
     165A      3.233640   166A      3.282876   167A      3.293006  
     168A      3.327774   169A      3.347502   170A      3.352353  
     171A      3.364135   172A      3.387192   173A      3.469930  
     174A      3.600111   175A     23.225276   176A     23.312546  
     177A     23.466075   178A     23.468999   179A     23.484837  
     180A     23.523346   181A     23.697047   182A     23.734910  
     183A     23.736318   184A     23.755355   185A     23.972010  
     186A     23.977762  

    Final Occupation by Irrep:
              A 
    DOCC [    41 ]

  @DF-RKS Final Energy:  -463.12451696131473

   => Energetics <=

    Nuclear Repulsion Energy =            591.8567249239938519
    One-Electron Energy =               -1796.6454634793717560
    Two-Electron Energy =                 788.7797321605147545
    DFT Exchange-Correlation Energy =     -47.1035236082512441
    Empirical Dispersion Energy =          -0.0119869582002376
    VV10 Nonlocal Energy =                  0.0000000000000000
    Total Energy =                       -463.1245169613146118

Computation Completed


Properties will be evaluated at   0.000000,   0.000000,   0.000000 [a0]

Properties computed using the SCF density matrix

  Nuclear Dipole Moment: [e a0]
     X:    -0.0000      Y:     0.0003      Z:     0.0002

  Electronic Dipole Moment: [e a0]
     X:     0.0000      Y:    -0.0003      Z:    -0.0002

  Dipole Moment: [e a0]
     X:     0.0000      Y:     0.0000      Z:    -0.0000     Total:     0.0000

  Dipole Moment: [D]
     X:     0.0000      Y:     0.0000      Z:    -0.0000     Total:     0.0000


*** tstop() called on daniele-Precision-5750 at Mon May 31 17:20:54 2021
Module time:
	user time   =      74.54 seconds =       1.24 minutes
	system time =       3.27 seconds =       0.05 minutes
	total time  =         27 seconds =       0.45 minutes
Total time:
	user time   =      74.54 seconds =       1.24 minutes
	system time =       3.27 seconds =       0.05 minutes
	total time  =         27 seconds =       0.45 minutes

*** tstart() called on daniele-Precision-5750
*** at Mon May 31 17:20:54 2021


         ------------------------------------------------------------
                                   SCF GRAD                          
                          Rob Parrish, Justin Turney,                
                       Andy Simmonett, and Alex Sokolov              
         ------------------------------------------------------------

  ==> Geometry <==

    Molecular point group: c1
    Full point group: C1

    Geometry (in Angstrom), charge = 0, multiplicity = 1:

       Center              X                  Y                   Z               Mass       
    ------------   -----------------  -----------------  -----------------  -----------------
         C            0.745012844844     0.049749197570    -0.027748925937    12.000000000000
         C           -0.745001155156    -0.050022802430     0.027561074063    12.000000000000
         C            1.468277844844     0.814809197570     0.944026074063    12.000000000000
         C           -1.551771155156     1.107920197570     0.274708074063    12.000000000000
         C            1.490202844844    -0.616856802430    -1.053866925937    12.000000000000
         C           -1.406704155156    -1.306071802430    -0.164979925937    12.000000000000
         C            2.872603844844     0.903817197570     0.883654074063    12.000000000000
         C           -2.955454155156     1.004324197570     0.325827074063    12.000000000000
         C            2.894476844844    -0.517672802430    -1.097598925937    12.000000000000
         C           -2.811628155156    -1.390311802430    -0.111783925937    12.000000000000
         C            3.583867844844     0.240044197570    -0.132869925937    12.000000000000
         C           -3.583882155156    -0.239755802430     0.133055074063    12.000000000000
         H            0.938654844844     1.330264197570     1.743267074063     1.007825032230
         H           -1.086802155156     2.081517197570     0.419299074063     1.007825032230
         H            0.976517844844    -1.202439802430    -1.814359925937     1.007825032230
         H           -0.828345155156    -2.209908802430    -0.348565925937     1.007825032230
         H            3.410993844844     1.488141197570     1.627969074063     1.007825032230
         H           -3.557747155156     1.891490197570     0.514219074063     1.007825032230
         H            3.449575844844    -1.028647802430    -1.882409925937     1.007825032230
         H           -3.302842155156    -2.350542802430    -0.259500925937     1.007825032230
         H            4.669363844844     0.312867197570    -0.173210925937     1.007825032230
         H           -4.669383155156    -0.312411802430     0.173497074063     1.007825032230

  Nuclear repulsion =  591.856724923993852

  ==> Basis Set <==

  Basis Set: 6-311G
    Blend: 6-311G
    Number of shells: 114
    Number of basis function: 186
    Number of Cartesian functions: 186
    Spherical Harmonics?: true
    Max angular momentum: 1

  ==> DFJKGrad: Density-Fitted SCF Gradients <==

    Gradient:                    1
    J tasked:                  Yes
    K tasked:                  Yes
    wK tasked:                 Yes
    Omega:               2.000E-01
    OpenMP threads:              3
    Integrals threads:           3
    Memory [MiB]:              500
    Schwarz Cutoff:          0E+00
    Fitting Condition:       1E-10

   => Auxiliary Basis Set <=

  Basis Set: (6-311G AUX)
    Blend: CC-PVTZ-JKFIT
    Number of shells: 400
    Number of basis function: 1248
    Number of Cartesian functions: 1502
    Spherical Harmonics?: true
    Max angular momentum: 4

  ==> DFT Potential <==

   => Composite Functional: WB97X-D <= 

    wB97X-D Hyb-GGA Exchange-Correlation Functional

    J.-D. Chai and M. Head-Gordon, Phys. Chem. Chem. Phys. 10, 6615 (2008)

    Deriv               =              1
    GGA                 =           TRUE
    Meta                =          FALSE

    Exchange Hybrid     =           TRUE
    MP2 Hybrid          =          FALSE

   => Exchange-Correlation Functionals <=

    1.0000   wB97D range-separated functional

   => Exact (HF) Exchange <=

    0.7780            HF,LR [omega = 0.2000]
    0.2220               HF 

   => Molecular Quadrature <=

    Radial Scheme          =       TREUTLER
    Pruning Scheme         =           FLAT
    Nuclear Scheme         =       TREUTLER

    BS radius alpha        =              1
    Pruning alpha          =              1
    Radial Points          =             75
    Spherical Points       =            302
    Total Points           =         491412
    Total Blocks           =           3610
    Max Points             =            256
    Max Functions          =            155


  -Total Gradient:
     Atom            X                  Y                   Z
    ------   -----------------  -----------------  -----------------
       1       -0.018124484608    -0.001235359686     0.000632478992
       2        0.018128823178     0.001162120756    -0.000683015737
       3       -0.001673270645     0.009337957348     0.015776811229
       4        0.000464019543     0.018317496779     0.001757894625
       5       -0.001565559970    -0.009489480650    -0.015598614277
       6        0.002759637513    -0.018023740224    -0.001836106548
       7        0.006555344900     0.005084744838     0.007141050922
       8       -0.007122499213     0.008202193054     0.001279921940
       9        0.006646213852    -0.004267962923    -0.007719332617
      10       -0.006060546000    -0.009198288459    -0.000817242898
      11        0.007065882166     0.000508037062    -0.000191724105
      12       -0.007075278776    -0.000392417465     0.000265776048
      13       -0.000076318027     0.003550347847     0.003812287077
      14       -0.000291281170     0.004959776392     0.001579777319
      15        0.000094505997    -0.003577970644    -0.003834502505
      16        0.000276872498    -0.004987534354    -0.001595771026
      17        0.002758539566     0.002635689698     0.002977589467
      18       -0.003032868532     0.003639951492     0.000999342109
      19        0.002834478385    -0.002239392183    -0.003159439545
      20       -0.002563922252    -0.003979249743    -0.000782805417
      21        0.004777442931     0.000321312056    -0.000187164914
      22       -0.004775725451    -0.000328572176     0.000182582647


*** tstop() called on daniele-Precision-5750 at Mon May 31 17:21:08 2021
Module time:
	user time   =      42.10 seconds =       0.70 minutes
	system time =       0.54 seconds =       0.01 minutes
	total time  =         14 seconds =       0.23 minutes
Total time:
	user time   =     116.65 seconds =       1.94 minutes
	system time =       3.81 seconds =       0.06 minutes
	total time  =         41 seconds =       0.68 minutes

			-----------------------------------------
			 OPTKING 2.0: for geometry optimizations 
			  - R.A. King,  Bethel University        
			-----------------------------------------
	At level 1: Red. Int., RFO, no backsteps, dynamic trust

	Internal coordinates to be generated automatically.
	Detected frag 1 with atoms:  1 2 3 4 5 6 7 8 9 10 11 12 13 14 15 16 17 18 19 20
	 21 22
	---Fragment 1 Bond Connectivity---
	 1 : 2 3 5
	 2 : 1 4 6
	 3 : 1 7 13
	 4 : 2 8 14
	 5 : 1 9 15
	 6 : 2 10 16
	 7 : 3 11 17
	 8 : 4 12 18
	 9 : 5 11 19
	 10 : 6 12 20
	 11 : 7 9 21
	 12 : 8 10 22
	 13 : 3
	 14 : 4
	 15 : 5
	 16 : 6
	 17 : 7
	 18 : 8
	 19 : 9
	 20 : 10
	 21 : 11
	 22 : 12

	Assuming in current code that numbering for constraints corresponds to unified fragment.
	Frozen dihedral atom list: 
	     3     1     2     4
	     3     1     2     6
	     5     1     2     4
	     5     1     2     6
	---Fragment 1 Geometry and Gradient---
	 C           1.4078702367        0.0940123584       -0.0524378703
	 C          -1.4078481464       -0.0945293966        0.0520828817
	 C           2.7746430028        1.5397662279        1.7839507353
	 C          -2.9324224926        2.0936657423        0.5191230244
	 C           2.8160752481       -1.1656904152       -1.9915198627
	 C          -2.6582855928       -2.4681180068       -0.3117668762
	 C           5.4284345337        1.7079669709        1.6698641896
	 C          -5.5849989296        1.8978976746        0.6157239342
	 C           5.4697685132       -0.9782598192       -2.0741613656
	 C          -5.3132071799       -2.6273085356       -0.2112410052
	 C           6.7725286966        0.4536177914       -0.2510877703
	 C          -6.7725557392       -0.4530728036        0.2514376496
	 H           1.7738005831        2.5138350079        3.2942973335
	 H          -2.0537584258        3.9334974288        0.7923604146
	 H           1.8453512834       -2.2722819089       -3.4286433530
	 H          -1.5653454806       -4.1761223988       -0.6586941367
	 H           6.4458441824        2.8121792994        3.0764156907
	 H          -6.7231677469        3.5743984424        0.9717332185
	 H           6.5187535958       -1.9438626261       -3.5572392159
	 H          -6.2414671089       -4.4418821428       -0.4903856793
	 H           8.8238188469        0.5912333170       -0.3273212120
	 H          -8.8238553381       -0.5903727450        0.3278619535
	            -0.0181244846       -0.0012353597        0.0006324790
	             0.0181288232        0.0011621208       -0.0006830157
	            -0.0016732706        0.0093379573        0.0157768112
	             0.0004640195        0.0183174968        0.0017578946
	            -0.0015655600       -0.0094894807       -0.0155986143
	             0.0027596375       -0.0180237402       -0.0018361065
	             0.0065553449        0.0050847448        0.0071410509
	            -0.0071224992        0.0082021931        0.0012799219
	             0.0066462139       -0.0042679629       -0.0077193326
	            -0.0060605460       -0.0091982885       -0.0008172429
	             0.0070658822        0.0005080371       -0.0001917241
	            -0.0070752788       -0.0003924175        0.0002657760
	            -0.0000763180        0.0035503478        0.0038122871
	            -0.0002912812        0.0049597764        0.0015797773
	             0.0000945060       -0.0035779706       -0.0038345025
	             0.0002768725       -0.0049875344       -0.0015957710
	             0.0027585396        0.0026356897        0.0029775895
	            -0.0030328685        0.0036399515        0.0009993421
	             0.0028344784       -0.0022393922       -0.0031594395
	            -0.0025639223       -0.0039792497       -0.0007828054
	             0.0047774429        0.0003213121       -0.0001871649
	            -0.0047757255       -0.0003285722        0.0001825826

	Previous optimization step data not found.  Starting new optimization.

	---Fragment 1 Intrafragment Coordinates---
	 - Coordinate -           - BOHR/RAD -       - ANG/DEG -
	 R(1,2)           =         2.823959	       1.494375
	 R(1,3)           =         2.707507	       1.432751
	 R(1,5)           =         2.707385	       1.432686
	 R(2,4)           =         2.707518	       1.432757
	 R(2,6)           =         2.707379	       1.432683
	 R(3,7)           =         2.661563	       1.408438
	 R(3,13)          =         2.057096	       1.088568
	 R(4,8)           =         2.661544	       1.408429
	 R(4,14)          =         2.057107	       1.088574
	 R(5,9)           =         2.661587	       1.408451
	 R(5,15)          =         2.057225	       1.088636
	 R(6,10)          =         2.661589	       1.408452
	 R(6,16)          =         2.057220	       1.088634
	 R(7,11)          =         2.658954	       1.407058
	 R(7,17)          =         2.057376	       1.088716
	 R(8,12)          =         2.658958	       1.407060
	 R(8,18)          =         2.057383	       1.088720
	 R(9,11)          =         2.659146	       1.407159
	 R(9,19)          =         2.057250	       1.088650
	 R(10,12)         =         2.659149	       1.407161
	 R(10,20)         =         2.057247	       1.088648
	 R(11,21)         =         2.057314	       1.088684
	 R(12,22)         =         2.057309	       1.088681
	 B(1,2,4)         =         2.110488	     120.922072
	 B(1,2,6)         =         2.110725	     120.935610
	 B(1,3,7)         =         2.103666	     120.531162
	 B(1,3,13)        =         2.100443	     120.346541
	 B(1,5,9)         =         2.103733	     120.535022
	 B(1,5,15)        =         2.100386	     120.343277
	 B(2,1,3)         =         2.110501	     120.922817
	 B(2,1,5)         =         2.110709	     120.934724
	 B(2,4,8)         =         2.103666	     120.531157
	 B(2,4,14)        =         2.100440	     120.346368
	 B(2,6,10)        =         2.103734	     120.535104
	 B(2,6,16)        =         2.100384	     120.343147
	 B(3,1,5)         =         2.061975	     118.142459
	 B(3,7,11)        =         2.100382	     120.343044
	 B(3,7,17)        =         2.091727	     119.847118
	 B(4,2,6)         =         2.061972	     118.142318
	 B(4,8,12)        =         2.100389	     120.343431
	 B(4,8,18)        =         2.091731	     119.847362
	 B(5,9,11)        =         2.100290	     120.337732
	 B(5,9,19)        =         2.091759	     119.848951
	 B(6,10,12)       =         2.100290	     120.337745
	 B(6,10,20)       =         2.091758	     119.848911
	 B(7,3,13)        =         2.079057	     119.121185
	 B(7,11,9)        =         2.096324	     120.110530
	 B(7,11,21)       =         2.093508	     119.949194
	 B(8,4,14)        =         2.079060	     119.121354
	 B(8,12,10)       =         2.096318	     120.110194
	 B(8,12,22)       =         2.093516	     119.949615
	 B(9,5,15)        =         2.079048	     119.120664
	 B(9,11,21)       =         2.093353	     119.940275
	 B(10,6,16)       =         2.079049	     119.120722
	 B(10,12,22)      =         2.093351	     119.940191
	 B(11,7,17)       =         2.091075	     119.809794
	 B(11,9,19)       =         2.091136	     119.813269
	 B(12,8,18)       =         2.091064	     119.809162
	 B(12,10,20)      =         2.091136	     119.813296
	 D(1,2,4,8)       =        -3.140997	    -179.965874
	 D(1,2,4,14)      =         0.007379	       0.422765
	 D(1,2,6,10)      =        -3.141011	    -179.966687
	 D(1,2,6,16)      =         0.007073	       0.405273
	 D(1,3,7,11)      =        -0.001182	      -0.067695
	 D(1,3,7,17)      =        -3.141427	    -179.990513
	 D(1,5,9,11)      =        -0.001183	      -0.067753
	 D(1,5,9,19)      =        -3.141379	    -179.987757
	 D(2,1,3,7)       =        -3.140999	    -179.965991
	 D(2,1,3,13)      =         0.007350	       0.421106
	 D(2,1,5,9)       =        -3.141011	    -179.966660
	 D(2,1,5,15)      =         0.007102	       0.406907
	 D(2,4,8,12)      =        -0.001158	      -0.066365
	 D(2,4,8,18)      =        -3.141409	    -179.989474
	 D(2,6,10,12)     =        -0.001209	      -0.069266
	 D(2,6,10,20)     =        -3.141395	    -179.988692
	*D(3,1,2,4)       =         0.769919	      44.113082
	*D(3,1,2,6)       =        -2.371630	    -135.884372
	 D(3,1,5,9)       =         0.000586	       0.033559
	 D(3,1,5,15)      =        -3.134487	    -179.592874
	 D(3,7,11,9)      =         0.000588	       0.033699
	 D(3,7,11,21)     =        -3.141143	    -179.974225
	*D(4,2,1,5)       =        -2.371670	    -135.886693
	 D(4,2,6,10)      =         0.000625	       0.035790
	 D(4,2,6,16)      =        -3.134476	    -179.592250
	 D(4,8,12,10)     =         0.000579	       0.033146
	 D(4,8,12,22)     =        -3.141142	    -179.974191
	*D(5,1,2,6)       =         0.769967	      44.115853
	 D(5,1,3,7)       =         0.000590	       0.033790
	 D(5,1,3,13)      =        -3.134247	    -179.579113
	 D(5,9,11,7)      =         0.000594	       0.034053
	 D(5,9,11,21)     =        -3.140860	    -179.958024
	 D(6,2,4,8)       =         0.000552	       0.031650
	 D(6,2,4,14)      =        -3.134257	    -179.579711
	 D(6,10,12,8)     =         0.000606	       0.034697
	 D(6,10,12,22)    =        -3.140859	    -179.957967
	 D(7,11,9,19)     =         3.140791	     179.954086
	 D(8,12,10,20)    =         3.140792	     179.954152
	 D(9,11,7,17)     =         3.140834	     179.956546
	 D(10,12,8,18)    =         3.140830	     179.956285
	 D(11,7,3,13)     =         3.133737	     179.549907
	 D(11,9,5,15)     =         3.133969	     179.563205
	 D(12,8,4,14)     =         3.133734	     179.549714
	 D(12,10,6,16)    =         3.133970	     179.563279
	 D(13,3,7,17)     =        -0.006509	      -0.372910
	 D(14,4,8,18)     =        -0.006517	      -0.373396
	 D(15,5,9,19)     =        -0.006227	      -0.356799
	 D(16,6,10,20)    =        -0.006216	      -0.356147
	 D(17,7,11,21)    =        -0.000897	      -0.051378
	 D(18,8,12,22)    =        -0.000891	      -0.051052
	 D(19,9,11,21)    =        -0.000663	      -0.037991
	 D(20,10,12,22)   =        -0.000672	      -0.038512

	Current energy   :      -463.1245169613

	Generating empirical Hessian (Schlegel '84) for each fragment.
	Taking RFO optimization step.
	Going to follow RFO solution 1.
	Using RFO vector 1.
	Norm of target step-size    0.18120
	Projected energy change by RFO approximation:        -0.0104668985

	Back-transformation to cartesian coordinates...
	The INTCO_EXCEPTion handler:
	TORS::compute_val: unable to compute torsion value
	Dynamic level is 1.
	exc.g_really_quit() is 0.
	Raising dynamic level to 2. ~
	Removing binary optimization data file.

    Structure for next step:
    Molecular point group: c1
    Full point group: C1

    Geometry (in Angstrom), charge = 0, multiplicity = 1:

    C            0.745012844844     0.049749197570    -0.027748925937
    C           -0.745001155156    -0.050022802430     0.027561074063
    C            1.468277844844     0.814809197570     0.944026074063
    C           -1.551771155156     1.107920197570     0.274708074063
    C            1.490202844844    -0.616856802430    -1.053866925937
    C           -1.406704155156    -1.306071802430    -0.164979925937
    C            2.872603844844     0.903817197570     0.883654074063
    C           -2.955454155156     1.004324197570     0.325827074063
    C            2.894476844844    -0.517672802430    -1.097598925937
    C           -2.811628155156    -1.390311802430    -0.111783925937
    C            3.583867844844     0.240044197570    -0.132869925937
    C           -3.583882155156    -0.239755802430     0.133055074063
    H            0.938654844844     1.330264197570     1.743267074063
    H           -1.086802155156     2.081517197570     0.419299074063
    H            0.976517844844    -1.202439802430    -1.814359925937
    H           -0.828345155156    -2.209908802430    -0.348565925937
    H            3.410993844844     1.488141197570     1.627969074063
    H           -3.557747155156     1.891490197570     0.514219074063
    H            3.449575844844    -1.028647802430    -1.882409925937
    H           -3.302842155156    -2.350542802430    -0.259500925937
    H            4.669363844844     0.312867197570    -0.173210925937
    H           -4.669383155156    -0.312411802430     0.173497074063

gradient() will perform analytic gradient computation.

*** tstart() called on daniele-Precision-5750
*** at Mon May 31 17:21:08 2021

   => Loading Basis Set <=

    Name: 6-311G
    Role: ORBITAL
    Keyword: BASIS
    atoms 1-12  entry C          line    92 file /home/daniele/anaconda3/envs/poltype/share/psi4/basis/6-311g.gbs 
    atoms 13-22 entry H          line    21 file /home/daniele/anaconda3/envs/poltype/share/psi4/basis/6-311g.gbs 


         ---------------------------------------------------------
                                   SCF
               by Justin Turney, Rob Parrish, Andy Simmonett
                          and Daniel G. A. Smith
                              RKS Reference
                        3 Threads,    667 MiB Core
         ---------------------------------------------------------

  ==> Geometry <==

    Molecular point group: c1
    Full point group: C1

    Geometry (in Angstrom), charge = 0, multiplicity = 1:

       Center              X                  Y                   Z               Mass       
    ------------   -----------------  -----------------  -----------------  -----------------
         C            0.745012844844     0.049749197570    -0.027748925937    12.000000000000
         C           -0.745001155156    -0.050022802430     0.027561074063    12.000000000000
         C            1.468277844844     0.814809197570     0.944026074063    12.000000000000
         C           -1.551771155156     1.107920197570     0.274708074063    12.000000000000
         C            1.490202844844    -0.616856802430    -1.053866925937    12.000000000000
         C           -1.406704155156    -1.306071802430    -0.164979925937    12.000000000000
         C            2.872603844844     0.903817197570     0.883654074063    12.000000000000
         C           -2.955454155156     1.004324197570     0.325827074063    12.000000000000
         C            2.894476844844    -0.517672802430    -1.097598925937    12.000000000000
         C           -2.811628155156    -1.390311802430    -0.111783925937    12.000000000000
         C            3.583867844844     0.240044197570    -0.132869925937    12.000000000000
         C           -3.583882155156    -0.239755802430     0.133055074063    12.000000000000
         H            0.938654844844     1.330264197570     1.743267074063     1.007825032230
         H           -1.086802155156     2.081517197570     0.419299074063     1.007825032230
         H            0.976517844844    -1.202439802430    -1.814359925937     1.007825032230
         H           -0.828345155156    -2.209908802430    -0.348565925937     1.007825032230
         H            3.410993844844     1.488141197570     1.627969074063     1.007825032230
         H           -3.557747155156     1.891490197570     0.514219074063     1.007825032230
         H            3.449575844844    -1.028647802430    -1.882409925937     1.007825032230
         H           -3.302842155156    -2.350542802430    -0.259500925937     1.007825032230
         H            4.669363844844     0.312867197570    -0.173210925937     1.007825032230
         H           -4.669383155156    -0.312411802430     0.173497074063     1.007825032230

  Running in c1 symmetry.

  Rotational constants: A =      0.09268  B =      0.01771  C =      0.01557 [cm^-1]
  Rotational constants: A =   2778.56567  B =    530.94053  C =    466.89669 [MHz]
  Nuclear repulsion =  591.856724923993852

  Charge       = 0
  Multiplicity = 1
  Electrons    = 82
  Nalpha       = 41
  Nbeta        = 41

  ==> Algorithm <==

  SCF Algorithm Type is DF.
  DIIS enabled.
  MOM disabled.
  Fractional occupation disabled.
  Guess Type is READ.
  Energy threshold   = 1.00e-08
  Density threshold  = 1.00e-08
  Integral threshold = 0.00e+00

  ==> Primary Basis <==

  Basis Set: 6-311G
    Blend: 6-311G
    Number of shells: 114
    Number of basis function: 186
    Number of Cartesian functions: 186
    Spherical Harmonics?: true
    Max angular momentum: 1

  ==> DFT Potential <==

   => Composite Functional: WB97X-D <= 

    wB97X-D Hyb-GGA Exchange-Correlation Functional

    J.-D. Chai and M. Head-Gordon, Phys. Chem. Chem. Phys. 10, 6615 (2008)

    Deriv               =              1
    GGA                 =           TRUE
    Meta                =          FALSE

    Exchange Hybrid     =           TRUE
    MP2 Hybrid          =          FALSE

   => Exchange-Correlation Functionals <=

    1.0000   wB97D range-separated functional

   => Exact (HF) Exchange <=

    0.7780            HF,LR [omega = 0.2000]
    0.2220               HF 

   => Molecular Quadrature <=

    Radial Scheme          =       TREUTLER
    Pruning Scheme         =           FLAT
    Nuclear Scheme         =       TREUTLER

    BS radius alpha        =              1
    Pruning alpha          =              1
    Radial Points          =             75
    Spherical Points       =            302
    Total Points           =         491412
    Total Blocks           =           3610
    Max Points             =            256
    Max Functions          =            155

   => WB97X-D: Empirical Dispersion <=

    Chai and Head-Gordon Dispersion Correction
    Chai, J.-D.; Head-Gordon, M. (2010), J. Chem. Phys., 132: 6615-6620

        s6 =       1.000000

   => Loading Basis Set <=

    Name: (6-311G AUX)
    Role: JKFIT
    Keyword: DF_BASIS_SCF
    atoms 1-12  entry C          line   125 file /home/daniele/anaconda3/envs/poltype/share/psi4/basis/cc-pvtz-jkfit.gbs 
    atoms 13-22 entry H          line    51 file /home/daniele/anaconda3/envs/poltype/share/psi4/basis/cc-pvtz-jkfit.gbs 

   => Loading Basis Set <=

    Name: 6-311G
    Role: ORBITAL
    Keyword: BASIS
    atoms 1-12  entry C          line    92 file /home/daniele/anaconda3/envs/poltype/share/psi4/basis/6-311g.gbs 
    atoms 13-22 entry H          line    21 file /home/daniele/anaconda3/envs/poltype/share/psi4/basis/6-311g.gbs 

  Reading orbitals from file 180, no projection.

  ==> Pre-Iterations <==

   -------------------------------------------------------
    Irrep   Nso     Nmo     Nalpha   Nbeta   Ndocc  Nsocc
   -------------------------------------------------------
     A        186     186       0       0       0       0
   -------------------------------------------------------
    Total     186     186      41      41      41       0
   -------------------------------------------------------

  ==> Integral Setup <==

  ==> DiskDFJK: Density-Fitted J/K Matrices <==

    J tasked:                  Yes
    K tasked:                  Yes
    wK tasked:                 Yes
    Omega:               2.000E-01
    OpenMP threads:              3
    Integrals threads:           3
    Memory [MiB]:              172
    Algorithm:                Disk
    Integral Cache:           NONE
    Schwarz Cutoff:          1E-12
    Fitting Condition:       1E-10

   => Auxiliary Basis Set <=

  Basis Set: (6-311G AUX)
    Blend: CC-PVTZ-JKFIT
    Number of shells: 400
    Number of basis function: 1248
    Number of Cartesian functions: 1502
    Spherical Harmonics?: true
    Max angular momentum: 4

  Cached 25.0% of DFT collocation blocks in 0.389 [GiB].

  Minimum eigenvalue in the overlap matrix is 2.7385836838E-04.
  Using Symmetric Orthogonalization.

  SCF Guess: Orbitals guess was supplied from a previous computation.

  ==> Iterations <==

                           Total Energy        Delta E     RMS |[F,P]|

   @DF-RKS iter   0:  -463.12451696231017   -4.63125e+02   1.09304e-09 
   @DF-RKS iter   1:  -463.12451696231028   -1.13687e-13   1.08034e-09 DIIS
  Energy and wave function converged.


  ==> Post-Iterations <==

    Orbital Energies [Eh]
    ---------------------

    Doubly Occupied:                                                      

       1A    -10.316306     2A    -10.316037     3A    -10.300450  
       4A    -10.300448     5A    -10.300436     6A    -10.300434  
       7A    -10.298851     8A    -10.298849     9A    -10.298766  
      10A    -10.298766    11A    -10.297168    12A    -10.297168  
      13A     -0.970600    14A     -0.950060    15A     -0.880059  
      16A     -0.853692    17A     -0.847440    18A     -0.822094  
      19A     -0.725136    20A     -0.715004    21A     -0.690929  
      22A     -0.675557    23A     -0.626341    24A     -0.594297  
      25A     -0.565331    26A     -0.555319    27A     -0.536199  
      28A     -0.529056    29A     -0.517073    30A     -0.510787  
      31A     -0.510606    32A     -0.465433    33A     -0.453735  
      34A     -0.448549    35A     -0.438020    36A     -0.423002  
      37A     -0.422746    38A     -0.353865    39A     -0.333114  
      40A     -0.332072    41A     -0.301564  

    Virtual:                                                              

      42A      0.030536    43A      0.057488    44A      0.057998  
      45A      0.087637    46A      0.124787    47A      0.131310  
      48A      0.147647    49A      0.163115    50A      0.165241  
      51A      0.184617    52A      0.190384    53A      0.204548  
      54A      0.208137    55A      0.224385    56A      0.231418  
      57A      0.234047    58A      0.299434    59A      0.315652  
      60A      0.340726    61A      0.346889    62A      0.357242  
      63A      0.361210    64A      0.366058    65A      0.377421  
      66A      0.388317    67A      0.407000    68A      0.433831  
      69A      0.452531    70A      0.458131    71A      0.473390  
      72A      0.477889    73A      0.481935    74A      0.487177  
      75A      0.491409    76A      0.504942    77A      0.509245  
      78A      0.510970    79A      0.518661    80A      0.523577  
      81A      0.527474    82A      0.549935    83A      0.554956  
      84A      0.557970    85A      0.569584    86A      0.579941  
      87A      0.601639    88A      0.610924    89A      0.634377  
      90A      0.637904    91A      0.659330    92A      0.665652  
      93A      0.676508    94A      0.677856    95A      0.688821  
      96A      0.695269    97A      0.695563    98A      0.703587  
      99A      0.715834   100A      0.727543   101A      0.732495  
     102A      0.739919   103A      0.744486   104A      0.755864  
     105A      0.800200   106A      0.831301   107A      0.851626  
     108A      0.851879   109A      0.855317   110A      0.863779  
     111A      0.877389   112A      0.879586   113A      0.914024  
     114A      0.914983   115A      0.926765   116A      0.954511  
     117A      0.955980   118A      0.974302   119A      0.991210  
     120A      1.002983   121A      1.024791   122A      1.100690  
     123A      1.106986   124A      1.144636   125A      1.146388  
     126A      1.168799   127A      1.348228   128A      1.373908  
     129A      2.284321   130A      2.312800   131A      2.345183  
     132A      2.347506   133A      2.408316   134A      2.408952  
     135A      2.431804   136A      2.452835   137A      2.588648  
     138A      2.624891   139A      2.628808   140A      2.632060  
     141A      2.666833   142A      2.667546   143A      2.670690  
     144A      2.712638   145A      2.782034   146A      2.783895  
     147A      2.820684   148A      2.823197   149A      2.834221  
     150A      2.844390   151A      2.852905   152A      2.880009  
     153A      2.936712   154A      2.942728   155A      2.945673  
     156A      2.987554   157A      3.007446   158A      3.010045  
     159A      3.089490   160A      3.147100   161A      3.191959  
     162A      3.216317   163A      3.227565   164A      3.231931  
     165A      3.233640   166A      3.282876   167A      3.293006  
     168A      3.327774   169A      3.347502   170A      3.352353  
     171A      3.364135   172A      3.387192   173A      3.469930  
     174A      3.600111   175A     23.225276   176A     23.312546  
     177A     23.466075   178A     23.468999   179A     23.484837  
     180A     23.523346   181A     23.697047   182A     23.734910  
     183A     23.736318   184A     23.755355   185A     23.972010  
     186A     23.977762  

    Final Occupation by Irrep:
              A 
    DOCC [    41 ]

  @DF-RKS Final Energy:  -463.12451696231028

   => Energetics <=

    Nuclear Repulsion Energy =            591.8567249239938519
    One-Electron Energy =               -1796.6454618151014984
    Two-Electron Energy =                 788.7797304196615187
    DFT Exchange-Correlation Energy =     -47.1035235326638997
    Empirical Dispersion Energy =          -0.0119869582002376
    VV10 Nonlocal Energy =                  0.0000000000000000
    Total Energy =                       -463.1245169623102242

Computation Completed


Properties will be evaluated at   0.000000,   0.000000,   0.000000 [a0]

Properties computed using the SCF density matrix

  Nuclear Dipole Moment: [e a0]
     X:    -0.0000      Y:     0.0003      Z:     0.0002

  Electronic Dipole Moment: [e a0]
     X:     0.0000      Y:    -0.0003      Z:    -0.0002

  Dipole Moment: [e a0]
     X:     0.0000      Y:     0.0000      Z:    -0.0000     Total:     0.0000

  Dipole Moment: [D]
     X:     0.0000      Y:     0.0000      Z:    -0.0000     Total:     0.0000


*** tstop() called on daniele-Precision-5750 at Mon May 31 17:21:18 2021
Module time:
	user time   =      27.31 seconds =       0.46 minutes
	system time =       0.98 seconds =       0.02 minutes
	total time  =         10 seconds =       0.17 minutes
Total time:
	user time   =     144.21 seconds =       2.40 minutes
	system time =       4.85 seconds =       0.08 minutes
	total time  =         51 seconds =       0.85 minutes

*** tstart() called on daniele-Precision-5750
*** at Mon May 31 17:21:18 2021


         ------------------------------------------------------------
                                   SCF GRAD                          
                          Rob Parrish, Justin Turney,                
                       Andy Simmonett, and Alex Sokolov              
         ------------------------------------------------------------

  ==> Geometry <==

    Molecular point group: c1
    Full point group: C1

    Geometry (in Angstrom), charge = 0, multiplicity = 1:

       Center              X                  Y                   Z               Mass       
    ------------   -----------------  -----------------  -----------------  -----------------
         C            0.745012844844     0.049749197570    -0.027748925937    12.000000000000
         C           -0.745001155156    -0.050022802430     0.027561074063    12.000000000000
         C            1.468277844844     0.814809197570     0.944026074063    12.000000000000
         C           -1.551771155156     1.107920197570     0.274708074063    12.000000000000
         C            1.490202844844    -0.616856802430    -1.053866925937    12.000000000000
         C           -1.406704155156    -1.306071802430    -0.164979925937    12.000000000000
         C            2.872603844844     0.903817197570     0.883654074063    12.000000000000
         C           -2.955454155156     1.004324197570     0.325827074063    12.000000000000
         C            2.894476844844    -0.517672802430    -1.097598925937    12.000000000000
         C           -2.811628155156    -1.390311802430    -0.111783925937    12.000000000000
         C            3.583867844844     0.240044197570    -0.132869925937    12.000000000000
         C           -3.583882155156    -0.239755802430     0.133055074063    12.000000000000
         H            0.938654844844     1.330264197570     1.743267074063     1.007825032230
         H           -1.086802155156     2.081517197570     0.419299074063     1.007825032230
         H            0.976517844844    -1.202439802430    -1.814359925937     1.007825032230
         H           -0.828345155156    -2.209908802430    -0.348565925937     1.007825032230
         H            3.410993844844     1.488141197570     1.627969074063     1.007825032230
         H           -3.557747155156     1.891490197570     0.514219074063     1.007825032230
         H            3.449575844844    -1.028647802430    -1.882409925937     1.007825032230
         H           -3.302842155156    -2.350542802430    -0.259500925937     1.007825032230
         H            4.669363844844     0.312867197570    -0.173210925937     1.007825032230
         H           -4.669383155156    -0.312411802430     0.173497074063     1.007825032230

  Nuclear repulsion =  591.856724923993852

  ==> Basis Set <==

  Basis Set: 6-311G
    Blend: 6-311G
    Number of shells: 114
    Number of basis function: 186
    Number of Cartesian functions: 186
    Spherical Harmonics?: true
    Max angular momentum: 1

  ==> DFJKGrad: Density-Fitted SCF Gradients <==

    Gradient:                    1
    J tasked:                  Yes
    K tasked:                  Yes
    wK tasked:                 Yes
    Omega:               2.000E-01
    OpenMP threads:              3
    Integrals threads:           3
    Memory [MiB]:              500
    Schwarz Cutoff:          0E+00
    Fitting Condition:       1E-10

   => Auxiliary Basis Set <=

  Basis Set: (6-311G AUX)
    Blend: CC-PVTZ-JKFIT
    Number of shells: 400
    Number of basis function: 1248
    Number of Cartesian functions: 1502
    Spherical Harmonics?: true
    Max angular momentum: 4

  ==> DFT Potential <==

   => Composite Functional: WB97X-D <= 

    wB97X-D Hyb-GGA Exchange-Correlation Functional

    J.-D. Chai and M. Head-Gordon, Phys. Chem. Chem. Phys. 10, 6615 (2008)

    Deriv               =              1
    GGA                 =           TRUE
    Meta                =          FALSE

    Exchange Hybrid     =           TRUE
    MP2 Hybrid          =          FALSE

   => Exchange-Correlation Functionals <=

    1.0000   wB97D range-separated functional

   => Exact (HF) Exchange <=

    0.7780            HF,LR [omega = 0.2000]
    0.2220               HF 

   => Molecular Quadrature <=

    Radial Scheme          =       TREUTLER
    Pruning Scheme         =           FLAT
    Nuclear Scheme         =       TREUTLER

    BS radius alpha        =              1
    Pruning alpha          =              1
    Radial Points          =             75
    Spherical Points       =            302
    Total Points           =         491412
    Total Blocks           =           3610
    Max Points             =            256
    Max Functions          =            155


  -Total Gradient:
     Atom            X                  Y                   Z
    ------   -----------------  -----------------  -----------------
       1       -0.018124474298    -0.001235351761     0.000632487535
       2        0.018128816858     0.001162128875    -0.000683015767
       3       -0.001673267037     0.009337961711     0.015776815416
       4        0.000464025211     0.018317500459     0.001757898650
       5       -0.001565565609    -0.009489487331    -0.015598616712
       6        0.002759649648    -0.018023747479    -0.001836112136
       7        0.006555332869     0.005084742819     0.007141047614
       8       -0.007122507092     0.008202186372     0.001279921308
       9        0.006646215655    -0.004267961365    -0.007719330210
      10       -0.006060556699    -0.009198287266    -0.000817241245
      11        0.007065885288     0.000508041690    -0.000191718040
      12       -0.007075288412    -0.000392409295     0.000265778042
      13       -0.000076314558     0.003550344769     0.003812280946
      14       -0.000291281187     0.004959774926     0.001579777819
      15        0.000094506010    -0.003577972909    -0.003834504208
      16        0.000276872064    -0.004987535048    -0.001595771926
      17        0.002758538800     0.002635688586     0.002977587416
      18       -0.003032866137     0.003639946029     0.000999340821
      19        0.002834479990    -0.002239394063    -0.003159442847
      20       -0.002563922074    -0.003979249762    -0.000782805142
      21        0.004777445991     0.000321311455    -0.000187166851
      22       -0.004775719396    -0.000328572591     0.000182582304


*** tstop() called on daniele-Precision-5750 at Mon May 31 17:21:32 2021
Module time:
	user time   =      42.29 seconds =       0.70 minutes
	system time =       0.56 seconds =       0.01 minutes
	total time  =         14 seconds =       0.23 minutes
Total time:
	user time   =     186.50 seconds =       3.11 minutes
	system time =       5.41 seconds =       0.09 minutes
	total time  =         65 seconds =       1.08 minutes

			-----------------------------------------
			 OPTKING 2.0: for geometry optimizations 
			  - R.A. King,  Bethel University        
			-----------------------------------------
	At level 2: Red. Int., RFO, backsteps, smaller trust.

	Internal coordinates to be generated automatically.
	Detected frag 1 with atoms:  1 2 3 4 5 6 7 8 9 10 11 12 13 14 15 16 17 18 19 20
	 21 22
	---Fragment 1 Bond Connectivity---
	 1 : 2 3 5
	 2 : 1 4 6
	 3 : 1 7 13
	 4 : 2 8 14
	 5 : 1 9 15
	 6 : 2 10 16
	 7 : 3 11 17
	 8 : 4 12 18
	 9 : 5 11 19
	 10 : 6 12 20
	 11 : 7 9 21
	 12 : 8 10 22
	 13 : 3
	 14 : 4
	 15 : 5
	 16 : 6
	 17 : 7
	 18 : 8
	 19 : 9
	 20 : 10
	 21 : 11
	 22 : 12

	Assuming in current code that numbering for constraints corresponds to unified fragment.
	Frozen dihedral atom list: 
	     3     1     2     4
	     3     1     2     6
	     5     1     2     4
	     5     1     2     6
	---Fragment 1 Geometry and Gradient---
	 C           1.4078702367        0.0940123584       -0.0524378703
	 C          -1.4078481464       -0.0945293966        0.0520828817
	 C           2.7746430028        1.5397662279        1.7839507353
	 C          -2.9324224926        2.0936657423        0.5191230244
	 C           2.8160752481       -1.1656904152       -1.9915198627
	 C          -2.6582855928       -2.4681180068       -0.3117668762
	 C           5.4284345337        1.7079669709        1.6698641896
	 C          -5.5849989296        1.8978976746        0.6157239342
	 C           5.4697685132       -0.9782598192       -2.0741613656
	 C          -5.3132071799       -2.6273085356       -0.2112410052
	 C           6.7725286966        0.4536177914       -0.2510877703
	 C          -6.7725557392       -0.4530728036        0.2514376496
	 H           1.7738005831        2.5138350079        3.2942973335
	 H          -2.0537584258        3.9334974288        0.7923604146
	 H           1.8453512834       -2.2722819089       -3.4286433530
	 H          -1.5653454806       -4.1761223988       -0.6586941367
	 H           6.4458441824        2.8121792994        3.0764156907
	 H          -6.7231677469        3.5743984424        0.9717332185
	 H           6.5187535958       -1.9438626261       -3.5572392159
	 H          -6.2414671089       -4.4418821428       -0.4903856793
	 H           8.8238188469        0.5912333170       -0.3273212120
	 H          -8.8238553381       -0.5903727450        0.3278619535
	            -0.0181244743       -0.0012353518        0.0006324875
	             0.0181288169        0.0011621289       -0.0006830158
	            -0.0016732670        0.0093379617        0.0157768154
	             0.0004640252        0.0183175005        0.0017578987
	            -0.0015655656       -0.0094894873       -0.0155986167
	             0.0027596496       -0.0180237475       -0.0018361121
	             0.0065553329        0.0050847428        0.0071410476
	            -0.0071225071        0.0082021864        0.0012799213
	             0.0066462157       -0.0042679614       -0.0077193302
	            -0.0060605567       -0.0091982873       -0.0008172412
	             0.0070658853        0.0005080417       -0.0001917180
	            -0.0070752884       -0.0003924093        0.0002657780
	            -0.0000763146        0.0035503448        0.0038122809
	            -0.0002912812        0.0049597749        0.0015797778
	             0.0000945060       -0.0035779729       -0.0038345042
	             0.0002768721       -0.0049875350       -0.0015957719
	             0.0027585388        0.0026356886        0.0029775874
	            -0.0030328661        0.0036399460        0.0009993408
	             0.0028344800       -0.0022393941       -0.0031594428
	            -0.0025639221       -0.0039792498       -0.0007828051
	             0.0047774460        0.0003213115       -0.0001871669
	            -0.0047757194       -0.0003285726        0.0001825823

	Previous optimization step data not found.  Starting new optimization.

	---Fragment 1 Intrafragment Coordinates---
	 - Coordinate -           - BOHR/RAD -       - ANG/DEG -
	 R(1,2)           =         2.823959	       1.494375
	 R(1,3)           =         2.707507	       1.432751
	 R(1,5)           =         2.707385	       1.432686
	 R(2,4)           =         2.707518	       1.432757
	 R(2,6)           =         2.707379	       1.432683
	 R(3,7)           =         2.661563	       1.408438
	 R(3,13)          =         2.057096	       1.088568
	 R(4,8)           =         2.661544	       1.408429
	 R(4,14)          =         2.057107	       1.088574
	 R(5,9)           =         2.661587	       1.408451
	 R(5,15)          =         2.057225	       1.088636
	 R(6,10)          =         2.661589	       1.408452
	 R(6,16)          =         2.057220	       1.088634
	 R(7,11)          =         2.658954	       1.407058
	 R(7,17)          =         2.057376	       1.088716
	 R(8,12)          =         2.658958	       1.407060
	 R(8,18)          =         2.057383	       1.088720
	 R(9,11)          =         2.659146	       1.407159
	 R(9,19)          =         2.057250	       1.088650
	 R(10,12)         =         2.659149	       1.407161
	 R(10,20)         =         2.057247	       1.088648
	 R(11,21)         =         2.057314	       1.088684
	 R(12,22)         =         2.057309	       1.088681
	 B(1,2,4)         =         2.110488	     120.922072
	 B(1,2,6)         =         2.110725	     120.935610
	 B(1,3,7)         =         2.103666	     120.531162
	 B(1,3,13)        =         2.100443	     120.346541
	 B(1,5,9)         =         2.103733	     120.535022
	 B(1,5,15)        =         2.100386	     120.343277
	 B(2,1,3)         =         2.110501	     120.922817
	 B(2,1,5)         =         2.110709	     120.934724
	 B(2,4,8)         =         2.103666	     120.531157
	 B(2,4,14)        =         2.100440	     120.346368
	 B(2,6,10)        =         2.103734	     120.535104
	 B(2,6,16)        =         2.100384	     120.343147
	 B(3,1,5)         =         2.061975	     118.142459
	 B(3,7,11)        =         2.100382	     120.343044
	 B(3,7,17)        =         2.091727	     119.847118
	 B(4,2,6)         =         2.061972	     118.142318
	 B(4,8,12)        =         2.100389	     120.343431
	 B(4,8,18)        =         2.091731	     119.847362
	 B(5,9,11)        =         2.100290	     120.337732
	 B(5,9,19)        =         2.091759	     119.848951
	 B(6,10,12)       =         2.100290	     120.337745
	 B(6,10,20)       =         2.091758	     119.848911
	 B(7,3,13)        =         2.079057	     119.121185
	 B(7,11,9)        =         2.096324	     120.110530
	 B(7,11,21)       =         2.093508	     119.949194
	 B(8,4,14)        =         2.079060	     119.121354
	 B(8,12,10)       =         2.096318	     120.110194
	 B(8,12,22)       =         2.093516	     119.949615
	 B(9,5,15)        =         2.079048	     119.120664
	 B(9,11,21)       =         2.093353	     119.940275
	 B(10,6,16)       =         2.079049	     119.120722
	 B(10,12,22)      =         2.093351	     119.940191
	 B(11,7,17)       =         2.091075	     119.809794
	 B(11,9,19)       =         2.091136	     119.813269
	 B(12,8,18)       =         2.091064	     119.809162
	 B(12,10,20)      =         2.091136	     119.813296
	 D(1,2,4,8)       =        -3.140997	    -179.965874
	 D(1,2,4,14)      =         0.007379	       0.422765
	 D(1,2,6,10)      =        -3.141011	    -179.966687
	 D(1,2,6,16)      =         0.007073	       0.405273
	 D(1,3,7,11)      =        -0.001182	      -0.067695
	 D(1,3,7,17)      =        -3.141427	    -179.990513
	 D(1,5,9,11)      =        -0.001183	      -0.067753
	 D(1,5,9,19)      =        -3.141379	    -179.987757
	 D(2,1,3,7)       =        -3.140999	    -179.965991
	 D(2,1,3,13)      =         0.007350	       0.421106
	 D(2,1,5,9)       =        -3.141011	    -179.966660
	 D(2,1,5,15)      =         0.007102	       0.406907
	 D(2,4,8,12)      =        -0.001158	      -0.066365
	 D(2,4,8,18)      =        -3.141409	    -179.989474
	 D(2,6,10,12)     =        -0.001209	      -0.069266
	 D(2,6,10,20)     =        -3.141395	    -179.988692
	*D(3,1,2,4)       =         0.769919	      44.113082
	*D(3,1,2,6)       =        -2.371630	    -135.884372
	 D(3,1,5,9)       =         0.000586	       0.033559
	 D(3,1,5,15)      =        -3.134487	    -179.592874
	 D(3,7,11,9)      =         0.000588	       0.033699
	 D(3,7,11,21)     =        -3.141143	    -179.974225
	*D(4,2,1,5)       =        -2.371670	    -135.886693
	 D(4,2,6,10)      =         0.000625	       0.035790
	 D(4,2,6,16)      =        -3.134476	    -179.592250
	 D(4,8,12,10)     =         0.000579	       0.033146
	 D(4,8,12,22)     =        -3.141142	    -179.974191
	*D(5,1,2,6)       =         0.769967	      44.115853
	 D(5,1,3,7)       =         0.000590	       0.033790
	 D(5,1,3,13)      =        -3.134247	    -179.579113
	 D(5,9,11,7)      =         0.000594	       0.034053
	 D(5,9,11,21)     =        -3.140860	    -179.958024
	 D(6,2,4,8)       =         0.000552	       0.031650
	 D(6,2,4,14)      =        -3.134257	    -179.579711
	 D(6,10,12,8)     =         0.000606	       0.034697
	 D(6,10,12,22)    =        -3.140859	    -179.957967
	 D(7,11,9,19)     =         3.140791	     179.954086
	 D(8,12,10,20)    =         3.140792	     179.954152
	 D(9,11,7,17)     =         3.140834	     179.956546
	 D(10,12,8,18)    =         3.140830	     179.956285
	 D(11,7,3,13)     =         3.133737	     179.549907
	 D(11,9,5,15)     =         3.133969	     179.563205
	 D(12,8,4,14)     =         3.133734	     179.549714
	 D(12,10,6,16)    =         3.133970	     179.563279
	 D(13,3,7,17)     =        -0.006509	      -0.372910
	 D(14,4,8,18)     =        -0.006517	      -0.373396
	 D(15,5,9,19)     =        -0.006227	      -0.356799
	 D(16,6,10,20)    =        -0.006216	      -0.356147
	 D(17,7,11,21)    =        -0.000897	      -0.051378
	 D(18,8,12,22)    =        -0.000891	      -0.051052
	 D(19,9,11,21)    =        -0.000663	      -0.037991
	 D(20,10,12,22)   =        -0.000672	      -0.038512

	Current energy   :      -463.1245169623

	Generating empirical Hessian (Schlegel '84) for each fragment.
	Taking RFO optimization step.
	Going to follow RFO solution 1.
	Using RFO vector 1.
	Norm of target step-size    0.18120
	Projected energy change by RFO approximation:        -0.0104669000

	Back-transformation to cartesian coordinates...
	Could not converge backtransformation.
	Using first guess instead.

	Back-transformation to cartesian coordinates to adjust frozen coordinates...
	Successfully converged to displaced geometry.

	--- Internal Coordinate Step in ANG or DEG, aJ/ANG or AJ/DEG ---
	 ---------------------------------------------------------------------------
	   Coordinate                Previous        Force       Change         New 
	   ----------                --------       ------       ------       ------
	    1 R(1,2)          =      1.494375    -0.076790    -0.014420     1.479955
	    2 R(1,3)          =      1.432751    -0.222865    -0.034757     1.397994
	    3 R(1,5)          =      1.432686    -0.222555    -0.034703     1.397984
	    4 R(2,4)          =      1.432757    -0.222882    -0.034760     1.397996
	    5 R(2,6)          =      1.432683    -0.222552    -0.034702     1.397982
	    6 R(3,7)          =      1.408438    -0.126532    -0.017830     1.390608
	    7 R(3,13)         =      1.088568    -0.037217    -0.006317     1.082251
	    8 R(4,8)          =      1.408429    -0.126482    -0.017823     1.390606
	    9 R(4,14)         =      1.088574    -0.037250    -0.006323     1.082251
	   10 R(5,9)          =      1.408451    -0.126630    -0.017846     1.390605
	   11 R(5,15)         =      1.088636    -0.037558    -0.006375     1.082261
	   12 R(6,10)         =      1.408452    -0.126626    -0.017846     1.390606
	   13 R(6,16)         =      1.088634    -0.037545    -0.006373     1.082262
	   14 R(7,11)         =      1.407058    -0.115666    -0.015735     1.391323
	   15 R(7,17)         =      1.088716    -0.039665    -0.006985     1.081732
	   16 R(8,12)         =      1.407060    -0.115670    -0.015735     1.391325
	   17 R(8,18)         =      1.088720    -0.039685    -0.006988     1.081732
	   18 R(9,11)         =      1.407159    -0.116248    -0.015822     1.391337
	   19 R(9,19)         =      1.088650    -0.039332    -0.006924     1.081726
	   20 R(10,12)        =      1.407161    -0.116263    -0.015824     1.391337
	   21 R(10,20)        =      1.088648    -0.039323    -0.006922     1.081726
	   22 R(11,21)        =      1.088684    -0.039479    -0.007006     1.081678
	   23 R(12,22)        =      1.088681    -0.039467    -0.007004     1.081678
	   24 B(1,2,4)        =    120.922072    -0.000099    -0.193690   120.728382
	   25 B(1,2,6)        =    120.935610    -0.000102    -0.203376   120.732234
	   26 B(1,3,7)        =    120.531162     0.000094     0.204801   120.735962
	   27 B(1,3,13)       =    120.346541    -0.000243    -0.963857   119.382684
	   28 B(1,5,9)        =    120.535022     0.000094     0.202945   120.737968
	   29 B(1,5,15)       =    120.343277    -0.000242    -0.961633   119.381645
	   30 B(2,1,3)        =    120.922817    -0.000099    -0.194218   120.728599
	   31 B(2,1,5)        =    120.934724    -0.000102    -0.202775   120.731948
	   32 B(2,4,8)        =    120.531157     0.000094     0.204831   120.735988
	   33 B(2,4,14)       =    120.346368    -0.000243    -0.963870   119.382498
	   34 B(2,6,10)       =    120.535104     0.000094     0.202898   120.738003
	   35 B(2,6,16)       =    120.343147    -0.000242    -0.961497   119.381649
	   36 B(3,1,5)        =    118.142459     0.000201     0.396994   118.539453
	   37 B(3,7,11)       =    120.343044    -0.000066    -0.096485   120.246559
	   38 B(3,7,17)       =    119.847118    -0.000003    -0.106696   119.740422
	   39 B(4,2,6)        =    118.142318     0.000201     0.397066   118.539384
	   40 B(4,8,12)       =    120.343431    -0.000066    -0.096815   120.246617
	   41 B(4,8,18)       =    119.847362    -0.000002    -0.106758   119.740604
	   42 B(5,9,11)       =    120.337732    -0.000065    -0.093127   120.244605
	   43 B(5,9,19)       =    119.848951    -0.000003    -0.107118   119.741833
	   44 B(6,10,12)      =    120.337745    -0.000065    -0.093089   120.244656
	   45 B(6,10,20)      =    119.848911    -0.000003    -0.107131   119.741780
	   46 B(7,3,13)       =    119.121185     0.000149     0.751766   119.872950
	   47 B(7,11,9)       =    120.110530    -0.000258    -0.615386   119.495144
	   48 B(7,11,21)      =    119.949194     0.000128     0.305144   120.254338
	   49 B(8,4,14)       =    119.121354     0.000149     0.751754   119.873108
	   50 B(8,12,10)      =    120.110194    -0.000258    -0.615150   119.495044
	   51 B(8,12,22)      =    119.949615     0.000128     0.304824   120.254439
	   52 B(9,5,15)       =    119.120664     0.000149     0.751361   119.872025
	   53 B(9,11,21)      =    119.940275     0.000130     0.310243   120.250518
	   54 B(10,6,16)      =    119.120722     0.000149     0.751267   119.871988
	   55 B(10,12,22)     =    119.940191     0.000130     0.310326   120.250517
	   56 B(11,7,17)      =    119.809794     0.000068     0.201401   120.011196
	   57 B(11,9,19)      =    119.813269     0.000068     0.198465   120.011734
	   58 B(12,8,18)      =    119.809162     0.000069     0.201794   120.010957
	   59 B(12,10,20)     =    119.813296     0.000068     0.198439   120.011735
	   60 D(1,2,4,8)      =   -179.965874     0.000000     0.052200  -179.913673
	   61 D(1,2,4,14)     =      0.422765     0.000006     0.719649     1.142414
	   62 D(1,2,6,10)     =   -179.966687     0.000000     0.046210  -179.920477
	   63 D(1,2,6,16)     =      0.405273     0.000006     0.727403     1.132676
	   64 D(1,3,7,11)     =     -0.067695    -0.000001    -0.099080    -0.166775
	   65 D(1,3,7,17)     =   -179.990513     0.000003     0.314943  -179.675570
	   66 D(1,5,9,11)     =     -0.067753    -0.000001    -0.098306    -0.166059
	   67 D(1,5,9,19)     =   -179.987757     0.000003     0.313440  -179.674317
	   68 D(2,1,3,7)      =   -179.965991     0.000000     0.051016  -179.914975
	   69 D(2,1,3,13)     =      0.421106     0.000006     0.719801     1.140907
	   70 D(2,1,5,9)      =   -179.966660     0.000000     0.047495  -179.919165
	   71 D(2,1,5,15)     =      0.406907     0.000006     0.727276     1.134183
	   72 D(2,4,8,12)     =     -0.066365    -0.000001    -0.099985    -0.166350
	   73 D(2,4,8,18)     =   -179.989474     0.000003     0.314137  -179.675337
	   74 D(2,6,10,12)    =     -0.069266    -0.000001    -0.097197    -0.166463
	   75 D(2,6,10,20)    =   -179.988692     0.000003     0.314187  -179.674506
	   76 *D(3,1,2,4)     =     44.113082     0.000000     0.000000    44.113082
	   77 *D(3,1,2,6)     =   -135.884372    -0.000000     0.000000  -135.884372
	   78 D(3,1,5,9)      =      0.033559     0.000000     0.047496     0.081056
	   79 D(3,1,5,15)     =   -179.592874     0.000006     0.727277  -178.865597
	   80 D(3,7,11,9)     =      0.033699     0.000000     0.047612     0.081311
	   81 D(3,7,11,21)    =   -179.974225     0.000000     0.054622  -179.919603
	   82 *D(4,2,1,5)     =   -135.886693    -0.000000    -0.000000  -135.886693
	   83 D(4,2,6,10)     =      0.035790     0.000000     0.046224     0.082014
	   84 D(4,2,6,16)     =   -179.592250     0.000006     0.727417  -178.864833
	   85 D(4,8,12,10)    =      0.033146     0.000000     0.048313     0.081460
	   86 D(4,8,12,22)    =   -179.974191     0.000000     0.054609  -179.919582
	   87 *D(5,1,2,6)     =     44.115853     0.000000    -0.000000    44.115853
	   88 D(5,1,3,7)      =      0.033790     0.000000     0.051015     0.084804
	   89 D(5,1,3,13)     =   -179.579113     0.000006     0.719800  -178.859314
	   90 D(5,9,11,7)     =      0.034053     0.000000     0.049638     0.083691
	   91 D(5,9,11,21)    =   -179.958024     0.000000     0.042629  -179.915395
	   92 D(6,2,4,8)      =      0.031650     0.000000     0.052186     0.083836
	   93 D(6,2,4,14)     =   -179.579711     0.000006     0.719634  -178.860077
	   94 D(6,10,12,8)    =      0.034697     0.000000     0.048835     0.083532
	   95 D(6,10,12,22)   =   -179.957967     0.000000     0.042540  -179.915427
	   96 D(7,11,9,19)    =    179.954086    -0.000003    -0.363469   179.590616
	   97 D(8,12,10,20)   =    179.954152    -0.000003    -0.363911   179.590241
	   98 D(9,11,7,17)    =    179.956546    -0.000003    -0.367775   179.588771
	   99 D(10,12,8,18)   =    179.956285    -0.000003    -0.367171   179.589114
	  100 D(11,7,3,13)    =    179.549907    -0.000007    -0.777716   178.772191
	  101 D(11,9,5,15)    =    179.563205    -0.000007    -0.787752   178.775454
	  102 D(12,8,4,14)    =    179.549714    -0.000007    -0.777307   178.772407
	  103 D(12,10,6,16)   =    179.563279    -0.000007    -0.788034   178.775245
	  104 D(13,3,7,17)    =     -0.372910    -0.000003    -0.363694    -0.736604
	  105 D(14,4,8,18)    =     -0.373396    -0.000003    -0.363185    -0.736581
	  106 D(15,5,9,19)    =     -0.356799    -0.000003    -0.376006    -0.732804
	  107 D(16,6,10,20)   =     -0.356147    -0.000003    -0.376650    -0.732797
	  108 D(17,7,11,21)   =     -0.051378    -0.000003    -0.360765    -0.412143
	  109 D(18,8,12,22)   =     -0.051052    -0.000003    -0.360875    -0.411927
	  110 D(19,9,11,21)   =     -0.037991    -0.000003    -0.370478    -0.408470
	  111 D(20,10,12,22)  =     -0.038512    -0.000003    -0.370206    -0.408718
	 ---------------------------------------------------------------------------
	Successfully symmetrized geometry.

  ==> Convergence Check <==

  Measures of convergence in internal coordinates in au.
  Criteria marked as inactive (o), active & met (*), and active & unmet ( ).
  --------------------------------------------------------------------------------------------- ~
   Step     Total Energy     Delta E     MAX Force     RMS Force      MAX Disp      RMS Disp    ~
  --------------------------------------------------------------------------------------------- ~
    Convergence Criteria             o    2.50e-03 *    1.70e-03 *    1.00e-02 *    6.70e-03 *  ~
  --------------------------------------------------------------------------------------------- ~
      1    -463.12451696   -4.63e+02 o    2.71e-02      6.77e-03      6.57e-02      1.72e-02    ~
  ---------------------------------------------------------------------------------------------

	Writing optimization data to binary file.
	Structure for next step:
	Cartesian Geometry (in Angstrom)
	    C     0.7378211300   0.0493614762  -0.0273997987
	    C    -0.7378197644  -0.0494105550   0.0273249971
	    C     1.4394472558   0.7969853712   0.9229507222
	    C    -1.5210929662   1.0831080590   0.2687333673
	    C     1.4607659700  -0.6028754123  -1.0305428230
	    C    -1.3791209995  -1.2772330197  -0.1611891217
	    C     2.8258645249   0.8913357386   0.8706444277
	    C    -2.9075682986   0.9901638996   0.3219579695
	    C     2.8474456193  -0.5115181914  -1.0811025718
	    C    -2.7657444682  -1.3698877136  -0.1114244079
	    C     3.5355758052   0.2367345527  -0.1311478136
	    C    -3.5355805885  -0.2366248181   0.1312377689
	    H     0.8950012390   1.2922619042   1.7163911118
	    H    -1.0398714526   2.0438067040   0.3981624531
	    H     0.9301072990  -1.1702193444  -1.7840758069
	    H    -0.7852310328  -2.1659852463  -0.3306123386
	    H     3.3529012002   1.4699141975   1.6173856213
	    H    -3.4982777800   1.8777755974   0.5045820470
	    H     3.3903255242  -1.0184455588  -1.8675108148
	    H    -3.2449554004  -2.3290916061  -0.2543119263
	    H     4.6140955311   0.3089780635  -0.1711891288
	    H    -4.6141007608  -0.3088327515   0.1713226959
			--------------------------
			 OPTKING Finished Execution 
			--------------------------

    Structure for next step:
    Molecular point group: c1
    Full point group: C1

    Geometry (in Angstrom), charge = 0, multiplicity = 1:

    C            0.737821697767     0.049349561169    -0.027404066947
    C           -0.737819202388    -0.049422470428     0.027320729067
    C            1.439447826414     0.796973459155     0.922946457652
    C           -1.521092407251     1.083096148081     0.268729100172
    C            1.460766540620    -0.602887329897    -1.030547095239
    C           -1.379120439984    -1.277244939932    -0.161193390508
    C            2.825865100880     0.891323826865     0.870640163015
    C           -2.907567745163     0.990151988340     0.321953702568
    C            2.847446195449    -0.511530108639    -1.081106844211
    C           -2.765743914192    -1.369899634153    -0.111428676497
    C            3.535576384021     0.236722638427    -0.131152082300
    C           -3.535580037510    -0.236636734200     0.131233501213
    H            0.895001807443     1.292249994072     1.716386850356
    H           -1.039870891763     2.043794796822     0.398158186487
    H            0.930107867522    -1.170231264182    -1.784080082025
[...]
	 R(9,19)          =         2.044283	       1.081788
	 R(10,12)         =         2.633382	       1.393526
	 R(10,20)         =         2.044283	       1.081788
	 R(11,21)         =         2.043627	       1.081441
	 R(12,22)         =         2.043627	       1.081441
	 B(1,2,4)         =         2.107858	     120.771377
	 B(1,2,6)         =         2.107874	     120.772306
	 B(1,3,7)         =         2.108064	     120.783159
	 B(1,3,13)        =         2.083376	     119.368650
	 B(1,5,9)         =         2.108070	     120.783533
	 B(1,5,15)        =         2.083370	     119.368319
	 B(2,1,3)         =         2.107859	     120.771426
	 B(2,1,5)         =         2.107873	     120.772249
	 B(2,4,8)         =         2.108064	     120.783170
	 B(2,4,14)        =         2.083375	     119.368569
	 B(2,6,10)        =         2.108070	     120.783530
	 B(2,6,16)        =         2.083371	     119.368361
	 B(3,1,5)         =         2.067453	     118.456325
	 B(3,7,11)        =         2.097873	     120.199296
	 B(3,7,17)        =         2.089912	     119.743120
	 B(4,2,6)         =         2.067453	     118.456317
	 B(4,8,12)        =         2.097873	     120.199291
	 B(4,8,18)        =         2.089913	     119.743208
	 B(5,9,11)        =         2.097868	     120.198964
	 B(5,9,19)        =         2.089918	     119.743462
	 B(6,10,12)       =         2.097868	     120.198980
	 B(6,10,20)       =         2.089917	     119.743413
	 B(7,3,13)        =         2.091492	     119.833690
	 B(7,11,9)        =         2.087039	     119.578503
	 B(7,11,21)       =         2.098083	     120.211275
	 B(8,4,14)        =         2.091494	     119.833761
	 B(8,12,10)       =         2.087038	     119.578492
	 B(8,12,22)       =         2.098083	     120.211275
	 B(9,5,15)        =         2.091491	     119.833634
	 B(9,11,21)       =         2.098064	     120.210222
	 B(10,6,16)       =         2.091491	     119.833593
	 B(10,12,22)      =         2.098064	     120.210233
	 B(11,7,17)       =         2.095361	     120.055346
	 B(11,9,19)       =         2.095361	     120.055339
	 B(12,8,18)       =         2.095360	     120.055264
	 B(12,10,20)      =         2.095362	     120.055371
	 D(1,2,4,8)       =        -3.140339	    -179.928153
	 D(1,2,4,14)      =         0.025470	       1.459347
	 D(1,2,6,10)      =        -3.140401	    -179.931716
	 D(1,2,6,16)      =         0.025421	       1.456519
	 D(1,3,7,11)      =        -0.002450	      -0.140360
	 D(1,3,7,17)      =        -3.134549	    -179.596423
	 D(1,5,9,11)      =        -0.002454	      -0.140593
	 D(1,5,9,19)      =        -3.134561	    -179.597127
	 D(2,1,3,7)       =        -3.140368	    -179.929805
	 D(2,1,3,13)      =         0.025443	       1.457773
	 D(2,1,5,9)       =        -3.140372	    -179.930059
	 D(2,1,5,15)      =         0.025449	       1.458109
	 D(2,4,8,12)      =        -0.002445	      -0.140107
	 D(2,4,8,18)      =        -3.134548	    -179.596361
	 D(2,6,10,12)     =        -0.002458	      -0.140836
	 D(2,6,10,20)     =        -3.134562	    -179.597194
	*D(3,1,2,4)       =         0.769919	      44.113082
	*D(3,1,2,6)       =        -2.371630	    -135.884372
	 D(3,1,5,9)       =         0.001225	       0.070161
	 D(3,1,5,15)      =        -3.116140	    -178.541671
	 D(3,7,11,9)      =         0.001213	       0.069495
	 D(3,7,11,21)     =        -3.140371	    -179.930023
	*D(4,2,1,5)       =        -2.371670	    -135.886693
	 D(4,2,6,10)      =         0.001235	       0.070772
	 D(4,2,6,16)      =        -3.116128	    -178.540992
	 D(4,8,12,10)     =         0.001215	       0.069624
	 D(4,8,12,22)     =        -3.140372	    -179.930085
	*D(5,1,2,6)       =         0.769967	      44.115853
	 D(5,1,3,7)       =         0.001221	       0.069975
	 D(5,1,3,13)      =        -3.116154	    -178.542447
	 D(5,9,11,7)      =         0.001218	       0.069769
	 D(5,9,11,21)     =        -3.140383	    -179.930713
	 D(6,2,4,8)       =         0.001211	       0.069359
	 D(6,2,4,14)      =        -3.116166	    -178.543141
	 D(6,10,12,8)     =         0.001215	       0.069635
	 D(6,10,12,22)    =        -3.140382	    -179.930656
	 D(7,11,9,19)     =         3.133295	     179.524599
	 D(8,12,10,20)    =         3.133290	     179.524289
	 D(9,11,7,17)     =         3.133282	     179.523851
	 D(10,12,8,18)    =         3.133288	     179.524172
	 D(11,7,3,13)     =         3.114813	     178.465647
	 D(11,9,5,15)     =         3.114799	     178.464818
	 D(12,8,4,14)     =         3.114819	     178.465977
	 D(12,10,6,16)    =         3.114793	     178.464508
	 D(13,3,7,17)     =        -0.017286	      -0.990416
	 D(14,4,8,18)     =        -0.017284	      -0.990277
	 D(15,5,9,19)     =        -0.017309	      -0.991715
	 D(16,6,10,20)    =        -0.017311	      -0.991850
	 D(17,7,11,21)    =        -0.008302	      -0.475667
	 D(18,8,12,22)    =        -0.008300	      -0.475537
	 D(19,9,11,21)    =        -0.008306	      -0.475883
	 D(20,10,12,22)   =        -0.008308	      -0.476003

	Current energy   :      -463.1302353240

	Energy change for the previous step:
		Projected    :        -0.0002144186
		Actual       :        -0.0000845465

	Performing BFGS update.
	Previous computed or guess Hessian on step 1.
	Steps to be used in Hessian update: 2 1
	Taking RFO optimization step.
	Going to follow RFO solution 1.
	Using RFO vector 1.
	Norm of target step-size    0.01547
	Projected energy change by RFO approximation:        -0.0000092673

	Back-transformation to cartesian coordinates...
	Successfully converged to displaced geometry.

	Back-transformation to cartesian coordinates to adjust frozen coordinates...
	Successfully converged to displaced geometry.

	--- Internal Coordinate Step in ANG or DEG, aJ/ANG or AJ/DEG ---
	 ---------------------------------------------------------------------------
	   Coordinate                Previous        Force       Change         New 
	   ----------                --------       ------       ------       ------
	    1 R(1,2)          =      1.486055    -0.002179    -0.000244     1.485810
	    2 R(1,3)          =      1.401258    -0.002490    -0.000385     1.400872
	    3 R(1,5)          =      1.401253    -0.002460    -0.000380     1.400872
	    4 R(2,4)          =      1.401259    -0.002495    -0.000386     1.400873
	    5 R(2,6)          =      1.401252    -0.002457    -0.000380     1.400872
	    6 R(3,7)          =      1.392210    -0.000274    -0.000040     1.392170
	    7 R(3,13)         =      1.082202     0.000479     0.000064     1.082266
	    8 R(4,8)          =      1.392209    -0.000270    -0.000039     1.392169
	    9 R(4,14)         =      1.082202     0.000479     0.000064     1.082266
	   10 R(5,9)          =      1.392208    -0.000267    -0.000039     1.392169
	   11 R(5,15)         =      1.082204     0.000468     0.000062     1.082266
	   12 R(6,10)         =      1.392209    -0.000269    -0.000039     1.392170
	   13 R(6,16)         =      1.082205     0.000468     0.000062     1.082266
	   14 R(7,11)         =      1.393520    -0.000209     0.000005     1.393526
	   15 R(7,17)         =      1.081790    -0.000121    -0.000041     1.081749
	   16 R(8,12)         =      1.393521    -0.000212     0.000005     1.393526
	   17 R(8,18)         =      1.081790    -0.000122    -0.000041     1.081749
	   18 R(9,11)         =      1.393526    -0.000244    -0.000000     1.393526
	   19 R(9,19)         =      1.081788    -0.000115    -0.000039     1.081749
	   20 R(10,12)        =      1.393526    -0.000243     0.000000     1.393526
	   21 R(10,20)        =      1.081788    -0.000115    -0.000039     1.081749
	   22 R(11,21)        =      1.081441     0.000310     0.000025     1.081466
	   23 R(12,22)        =      1.081441     0.000310     0.000025     1.081466
	   24 B(1,2,4)        =    120.771377    -0.000009    -0.024503   120.746874
	   25 B(1,2,6)        =    120.772306    -0.000010    -0.025495   120.746811
	   26 B(1,3,7)        =    120.783159    -0.000008    -0.022883   120.760276
	   27 B(1,3,13)       =    119.368650     0.000001    -0.002478   119.366172
	   28 B(1,5,9)        =    120.783533    -0.000008    -0.023192   120.760340
	   29 B(1,5,15)       =    119.368319     0.000001    -0.002245   119.366074
	   30 B(2,1,3)        =    120.771426    -0.000009    -0.024588   120.746838
	   31 B(2,1,5)        =    120.772249    -0.000010    -0.025401   120.746848
	   32 B(2,4,8)        =    120.783170    -0.000008    -0.022887   120.760283
	   33 B(2,4,14)       =    119.368569     0.000001    -0.002437   119.366131
	   34 B(2,6,10)       =    120.783530    -0.000008    -0.023197   120.760333
	   35 B(2,6,16)       =    119.368361     0.000001    -0.002255   119.366106
	   36 B(3,1,5)        =    118.456325     0.000019     0.049989   118.506315
	   37 B(3,7,11)       =    120.199296    -0.000002    -0.004788   120.194508
	   38 B(3,7,17)       =    119.743120     0.000001     0.001146   119.744266
	   39 B(4,2,6)        =    118.456317     0.000019     0.049998   118.506315
	   40 B(4,8,12)       =    120.199291    -0.000002    -0.004792   120.194499
	   41 B(4,8,18)       =    119.743208     0.000001     0.001101   119.744309
	   42 B(5,9,11)       =    120.198964    -0.000002    -0.004513   120.194451
	   43 B(5,9,19)       =    119.743462     0.000001     0.000940   119.744402
	   44 B(6,10,12)      =    120.198980    -0.000002    -0.004521   120.194459
	   45 B(6,10,20)      =    119.743413     0.000001     0.000957   119.744370
	   46 B(7,3,13)       =    119.833690     0.000007     0.030197   119.863887
	   47 B(7,11,9)       =    119.578503    -0.000000     0.005039   119.583542
	   48 B(7,11,21)      =    120.211275     0.000000    -0.002930   120.208346
	   49 B(8,4,14)       =    119.833761     0.000007     0.030156   119.863917
	   50 B(8,12,10)      =    119.578492    -0.000000     0.005051   119.583542
	   51 B(8,12,22)      =    120.211275     0.000000    -0.002946   120.208329
	   52 B(9,5,15)       =    119.833634     0.000007     0.030293   119.863927
	   53 B(9,11,21)      =    120.210222     0.000000    -0.002109   120.208113
	   54 B(10,6,16)      =    119.833593     0.000007     0.030313   119.863906
	   55 B(10,12,22)     =    120.210233     0.000000    -0.002105   120.208129
	   56 B(11,7,17)      =    120.055346     0.000001     0.004140   120.059486
	   57 B(11,9,19)      =    120.055339     0.000001     0.004067   120.059406
	   58 B(12,8,18)      =    120.055264     0.000001     0.004188   120.059453
	   59 B(12,10,20)     =    120.055371     0.000001     0.004057   120.059429
	   60 D(1,2,4,8)      =   -179.928153     0.000000     0.041956  -179.886197
	   61 D(1,2,4,14)     =      1.459347    -0.000001    -0.212865     1.246482
	   62 D(1,2,6,10)     =   -179.931716     0.000000     0.042774  -179.888942
	   63 D(1,2,6,16)     =      1.456519    -0.000001    -0.213586     1.242934
	   64 D(1,3,7,11)     =     -0.140360    -0.000000    -0.084976    -0.225336
	   65 D(1,3,7,17)     =   -179.596423    -0.000001    -0.149287  -179.745709
	   66 D(1,5,9,11)     =     -0.140593    -0.000000    -0.084848    -0.225441
	   67 D(1,5,9,19)     =   -179.597127    -0.000001    -0.148688  -179.745815
	   68 D(2,1,3,7)      =   -179.929805     0.000000     0.042185  -179.887621
	   69 D(2,1,3,13)     =      1.457773    -0.000001    -0.212916     1.244857
	   70 D(2,1,5,9)      =   -179.930059     0.000000     0.042538  -179.887521
	   71 D(2,1,5,15)     =      1.458109    -0.000001    -0.213559     1.244550
	   72 D(2,4,8,12)     =     -0.140107    -0.000000    -0.084821    -0.224928
	   73 D(2,4,8,18)     =   -179.596361    -0.000001    -0.149124  -179.745485
	   74 D(2,6,10,12)    =     -0.140836    -0.000000    -0.085017    -0.225853
	   75 D(2,6,10,20)    =   -179.597194    -0.000001    -0.148842  -179.746036
	   76 *D(3,1,2,4)     =     44.113082    -0.000000    -0.000000    44.113082
	   77 *D(3,1,2,6)     =   -135.884372     0.000000     0.000000  -135.884372
	   78 D(3,1,5,9)      =      0.070161     0.000000     0.042538     0.112700
	   79 D(3,1,5,15)     =   -178.541671    -0.000001    -0.213559  -178.755230
	   80 D(3,7,11,9)     =      0.069495     0.000000     0.042422     0.111918
	   81 D(3,7,11,21)    =   -179.930023     0.000000     0.041691  -179.888332
	   82 *D(4,2,1,5)     =   -135.886693    -0.000000    -0.000000  -135.886693
	   83 D(4,2,6,10)     =      0.070772     0.000000     0.042776     0.113548
	   84 D(4,2,6,16)     =   -178.540992    -0.000001    -0.213584  -178.754576
	   85 D(4,8,12,10)    =      0.069624     0.000000     0.042340     0.111964
	   86 D(4,8,12,22)    =   -179.930085     0.000000     0.041657  -179.888428
	   87 *D(5,1,2,6)     =     44.115853    -0.000000     0.000000    44.115853
	   88 D(5,1,3,7)      =      0.069975     0.000000     0.042185     0.112159
	   89 D(5,1,3,13)     =   -178.542447    -0.000001    -0.212917  -178.755363
	   90 D(5,9,11,7)     =      0.069769     0.000000     0.041808     0.111576
	   91 D(5,9,11,21)    =   -179.930713     0.000000     0.042539  -179.888173
	   92 D(6,2,4,8)      =      0.069359     0.000000     0.041954     0.111313
	   93 D(6,2,4,14)     =   -178.543141    -0.000001    -0.212867  -178.756008
	   94 D(6,10,12,8)    =      0.069635     0.000000     0.041897     0.111532
	   95 D(6,10,12,22)   =   -179.930656     0.000000     0.042580  -179.888076
	   96 D(7,11,9,19)    =    179.524599     0.000001     0.105833   179.630432
	   97 D(8,12,10,20)   =    179.524289     0.000001     0.105906   179.630195
	   98 D(9,11,7,17)    =    179.523851     0.000001     0.106920   179.630771
	   99 D(10,12,8,18)   =    179.524172     0.000001     0.106830   179.631002
	  100 D(11,7,3,13)    =    178.465647     0.000001     0.170933   178.636580
	  101 D(11,9,5,15)    =    178.464818     0.000001     0.172065   178.636883
	  102 D(12,8,4,14)    =    178.465977     0.000001     0.170808   178.636785
	  103 D(12,10,6,16)   =    178.464508     0.000001     0.172158   178.636667
	  104 D(13,3,7,17)    =     -0.990416     0.000001     0.106622    -0.883793
	  105 D(14,4,8,18)    =     -0.990277     0.000001     0.106505    -0.883772
	  106 D(15,5,9,19)    =     -0.991715     0.000001     0.108224    -0.883491
	  107 D(16,6,10,20)   =     -0.991850     0.000001     0.108334    -0.883516
	  108 D(17,7,11,21)   =     -0.475667     0.000001     0.106188    -0.369479
	  109 D(18,8,12,22)   =     -0.475537     0.000001     0.106146    -0.369390
	  110 D(19,9,11,21)   =     -0.475883     0.000001     0.106565    -0.369318
	  111 D(20,10,12,22)  =     -0.476003     0.000001     0.106590    -0.369413
	 ---------------------------------------------------------------------------
	Successfully symmetrized geometry.

  ==> Convergence Check <==

  Measures of convergence in internal coordinates in au.
  Criteria marked as inactive (o), active & met (*), and active & unmet ( ).
  ---------------------------------------------------------------------------------------------
   Step     Total Energy     Delta E     MAX Force     RMS Force      MAX Disp      RMS Disp   
  ---------------------------------------------------------------------------------------------
    Convergence Criteria             o    2.50e-03 *    1.70e-03 *    1.00e-02 *    6.70e-03 *
  ---------------------------------------------------------------------------------------------
      3    -463.13023532   -8.45e-05 o    3.03e-04 *    8.44e-05 *    3.73e-03 *    1.47e-03 *  ~
  ---------------------------------------------------------------------------------------------


  **** Optimization is complete! (in 3 steps) ****

  ==> Optimization Summary <==

  Measures of convergence in internal coordinates in au.
  --------------------------------------------------------------------------------------------------------------- ~
   Step         Total Energy             Delta E       MAX Force       RMS Force        MAX Disp        RMS Disp  ~
  --------------------------------------------------------------------------------------------------------------- ~
      1    -463.124516962310   -463.124516962310      0.02705303      0.00677322      0.06568765      0.01718481  ~
      2    -463.130150777490     -0.005633815179      0.00429241      0.00086652      0.01152707      0.00281456  ~
      3    -463.130235323989     -0.000084546500      0.00030279      0.00008439      0.00372778      0.00146841  ~
  --------------------------------------------------------------------------------------------------------------- ~

	Writing optimization data to binary file.
	Final energy is   -463.1302353239893
	Final (previous) structure:
	Cartesian Geometry (in Angstrom)
	    C     0.7408605831   0.0495856707  -0.0275070088
	    C    -0.7408616344  -0.0495987059   0.0274542808
	    C     1.4450313526   0.7987060454   0.9245881729
	    C    -1.5268343265   1.0849719283   0.2693685755
	    C     1.4663309535  -0.6038241597  -1.0326224994
	    C    -1.3845293076  -1.2798595783  -0.1613747679
	    C     2.8330674796   0.8929802135   0.8724779811
	    C    -2.9149275796   0.9920688661   0.3223848865
	    C     2.8545923163  -0.5122462510  -1.0834873131
	    C    -2.7727308171  -1.3727974668  -0.1113346928
	    C     3.5429811674   0.2371738069  -0.1314337212
	    C    -3.5429804564  -0.2371604651   0.1314784497
	    H     0.9015792761   1.2898927011   1.7211788000
	    H    -1.0464777067   2.0467183178   0.3937169435
	    H     0.9358379468  -1.1668954227  -1.7893882983
	    H    -0.7909406951  -2.1697251581  -0.3255649792
	    H     3.3602066640   1.4705464188   1.6200139888
	    H    -3.5057074209   1.8799614070   0.5037537829
	    H     3.3973447399  -1.0181969122  -1.8706969979
	    H    -3.2518419415  -2.3323033957  -0.2529903428
	    H     4.6212693837   0.3093484741  -0.1714304910
	    H    -4.6212670428  -0.3093452875   0.1714987611
	Saving final (previous) structure.
			--------------------------
			 OPTKING Finished Execution 
			--------------------------

    Final optimized geometry and variables:
    Molecular point group: c1
    Full point group: C1

    Geometry (in Angstrom), charge = 0, multiplicity = 1:

    C            0.740860586008     0.049585670900    -0.027507008934
    C           -0.740861637265    -0.049598706066     0.027454280888
    C            1.445031358294     0.798706048563     0.924588176495
    C           -1.526834332493     1.084971932601     0.269368576566
    C            1.466330959268    -0.603824162052    -1.032622503458
    C           -1.384529313058    -1.279859583348    -0.161374768569
    C            2.833067490750     0.892980216967     0.872477984556
    C           -2.914927591048     0.992068869991     0.322384887772
    C            2.854592327563    -0.512246253038    -1.083487317311
    C           -2.772730827989    -1.372797472234    -0.111334693265
    C            3.542981181292     0.237173807810    -0.131433721697
    C           -3.542980470363    -0.237160466053     0.131478450253
    H            0.901579279689     1.289892706155     1.721178806770
    H           -1.046477710830     2.046718325886     0.393716945059
    H            0.935837950432    -1.166895427317    -1.789388305286
    H           -0.790940698254    -2.169725166675    -0.325564980462
    H            3.360206677194     1.470546424579     1.620013995131
    H           -3.505707434636     1.879961414369     0.503753784842
    H            3.397344753233    -1.018196916156    -1.870697005272
    H           -3.251841954299    -2.332303404852    -0.252990343769
    H            4.621269401902     0.309348475318    -0.171430491710
    H           -4.621267060995    -0.309345288732     0.171498761763

	Removing binary optimization data file.
	Cleaning optimization helper files.

    Psi4 stopped on: Monday, 31 May 2021 05:22PM
    Psi4 wall time for execution: 0:02:18.08

*** Psi4 exiting successfully. Buy a developer a beer!
