
    -----------------------------------------------------------------------
          Psi4: An Open-Source Ab Initio Electronic Structure Package
                               Psi4 1.3.2 release

                         Git: Rev {HEAD} ecbda83 


    R. M. Parrish, L. A. Burns, D. G. A. Smith, A. C. Simmonett,
    A. E. DePrince III, E. G. Hohenstein, U. Bozkaya, A. Yu. Sokolov,
    R. Di Remigio, R. M. Richard, J. F. Gonthier, A. M. James,
    H. R. McAlexander, A. Kumar, M. Saitow, X. Wang, B. P. Pritchard,
    P. Verma, H. F. Schaefer III, K. Patkowski, R. A. King, E. F. Valeev,
    F. A. Evangelista, J. M. Turney, T. D. Crawford, and C. D. Sherrill,
    J. Chem. Theory Comput. 13(7) pp 3185--3197 (2017).
    (doi: 10.1021/acs.jctc.7b00174)


                         Additional Contributions by
    P. Kraus, H. Kruse, M. H. Lechner, M. C. Schieber, R. A. Shaw,
    A. Alenaizan, R. Galvelis, Z. L. Glick, S. Lehtola, and J. P. Misiewicz

    -----------------------------------------------------------------------


    Psi4 started on: Monday, 31 May 2021 05:46PM

    Process ID: 31138
    Host:       daniele-Precision-5750
    PSIDATADIR: /home/daniele/anaconda3/envs/poltype/share/psi4
    Memory:     500.0 MiB
    Threads:    1
    
  ==> Input File <==

--------------------------------------------------------------------------
molecule { 
0 1
 C    0.745973    0.049943   -0.027664
 C   -0.745973   -0.049928    0.027684
 C    1.441374    1.023998    0.706047
 C   -1.528549    0.983530    0.566433
 C    1.508762   -0.826472   -0.815545
 C   -1.421588   -1.181033   -0.456918
 C    2.828480    1.118094    0.655311
 C   -2.915757    0.891865    0.618703
 C    2.895972   -0.734829   -0.867829
 C   -2.808695   -1.275145   -0.406205
 C    3.565690    0.238727   -0.132376
 C   -3.565689   -0.238748    0.132362
 H    0.906091    1.703142    1.352902
 H   -1.062086    1.889387    0.924234
 H    1.022351   -1.574006   -1.424467
 H   -0.866359   -2.018478   -0.852639
 H    3.332813    1.875944    1.239570
 H   -3.488542    1.710305    1.033575
 H    3.452172   -1.421668   -1.491479
 H   -3.296444   -2.164609   -0.781706
 H    4.643795    0.310905   -0.172412
 H   -4.643794   -0.310938    0.172382
}
memory 700MB
set_num_threads(3)
psi4_io.set_default_path("/home/daniele/PSI4_sctatch/Psi4-biphenyl")
set freeze_core True
E, wfn = energy('wb97x-d/6-311+G*',return_wfn=True)
oeprop(wfn,"WIBERG_LOWDIN_INDICES")
clean()
--------------------------------------------------------------------------

  Memory set to 667.572 MiB by Python driver.
  Threads set to 3 by Python driver.

*** tstart() called on daniele-Precision-5750
*** at Mon May 31 17:46:49 2021

   => Loading Basis Set <=

    Name: 6-311+G*
    Role: ORBITAL
    Keyword: BASIS
    atoms 1-12  entry C          line   130 file /home/daniele/anaconda3/envs/poltype/share/psi4/basis/6-311pgs.gbs 
    atoms 13-22 entry H          line    47 file /home/daniele/anaconda3/envs/poltype/share/psi4/basis/6-311pgs.gbs 


         ---------------------------------------------------------
                                   SCF
               by Justin Turney, Rob Parrish, Andy Simmonett
                          and Daniel G. A. Smith
                              RKS Reference
                        3 Threads,    667 MiB Core
         ---------------------------------------------------------

  ==> Geometry <==

    Molecular point group: c1
    Full point group: C1

    Geometry (in Angstrom), charge = 0, multiplicity = 1:

       Center              X                  Y                   Z               Mass       
    ------------   -----------------  -----------------  -----------------  -----------------
         C            0.745973019623     0.049942948891    -0.027663972008    12.000000000000
         C           -0.745972980377    -0.049928051109     0.027684027992    12.000000000000
         C            1.441374019623     1.023997948891     0.706047027992    12.000000000000
         C           -1.528548980377     0.983529948891     0.566433027992    12.000000000000
         C            1.508762019623    -0.826472051109    -0.815544972008    12.000000000000
         C           -1.421587980377    -1.181033051109    -0.456917972008    12.000000000000
         C            2.828480019623     1.118093948891     0.655311027992    12.000000000000
         C           -2.915756980377     0.891864948891     0.618703027992    12.000000000000
         C            2.895972019623    -0.734829051109    -0.867828972008    12.000000000000
         C           -2.808694980377    -1.275145051109    -0.406204972008    12.000000000000
         C            3.565690019623     0.238726948891    -0.132375972008    12.000000000000
         C           -3.565688980377    -0.238748051109     0.132362027992    12.000000000000
         H            0.906091019623     1.703141948891     1.352902027992     1.007825032230
         H           -1.062085980377     1.889386948891     0.924234027992     1.007825032230
         H            1.022351019623    -1.574006051109    -1.424466972008     1.007825032230
         H           -0.866358980377    -2.018478051109    -0.852638972008     1.007825032230
         H            3.332813019623     1.875943948891     1.239570027992     1.007825032230
         H           -3.488541980377     1.710304948891     1.033575027992     1.007825032230
         H            3.452172019623    -1.421668051109    -1.491478972008     1.007825032230
         H           -3.296443980377    -2.164609051109    -0.781705972008     1.007825032230
         H            4.643795019623     0.310904948891    -0.172411972008     1.007825032230
         H           -4.643793980377    -0.310938051109     0.172382027992     1.007825032230

  Running in c1 symmetry.

  Rotational constants: A =      0.09626  B =      0.01837  C =      0.01550 [cm^-1]
  Rotational constants: A =   2885.82812  B =    550.61086  C =    464.71924 [MHz]
  Nuclear repulsion =  599.270042763919719

  Charge       = 0
  Multiplicity = 1
  Electrons    = 82
  Nalpha       = 41
  Nbeta        = 41

  ==> Algorithm <==

  SCF Algorithm Type is DF.
  DIIS enabled.
  MOM disabled.
  Fractional occupation disabled.
  Guess Type is SAD.
  Energy threshold   = 1.00e-06
  Density threshold  = 1.00e-06
  Integral threshold = 0.00e+00

  ==> Primary Basis <==

  Basis Set: 6-311+G*
    Blend: 6-311+G*
    Number of shells: 150
    Number of basis function: 294
    Number of Cartesian functions: 306
    Spherical Harmonics?: true
    Max angular momentum: 2

  ==> DFT Potential <==

   => Composite Functional: WB97X-D <= 

    wB97X-D Hyb-GGA Exchange-Correlation Functional

    J.-D. Chai and M. Head-Gordon, Phys. Chem. Chem. Phys. 10, 6615 (2008)

    Deriv               =              1
    GGA                 =           TRUE
    Meta                =          FALSE

    Exchange Hybrid     =           TRUE
    MP2 Hybrid          =          FALSE

   => Exchange-Correlation Functionals <=

    1.0000   wB97D range-separated functional

   => Exact (HF) Exchange <=

    0.7780            HF,LR [omega = 0.2000]
    0.2220               HF 

   => Molecular Quadrature <=

    Radial Scheme          =       TREUTLER
    Pruning Scheme         =           FLAT
    Nuclear Scheme         =       TREUTLER

    BS radius alpha        =              1
    Pruning alpha          =              1
    Radial Points          =             75
    Spherical Points       =            302
    Total Points           =         498300
    Total Blocks           =           3715
    Max Points             =            256
    Max Functions          =            264

   => WB97X-D: Empirical Dispersion <=

    Chai and Head-Gordon Dispersion Correction
    Chai, J.-D.; Head-Gordon, M. (2010), J. Chem. Phys., 132: 6615-6620

        s6 =       1.000000

   => Loading Basis Set <=

    Name: (6-311+G* AUX)
    Role: JKFIT
    Keyword: DF_BASIS_SCF
    atoms 1-12  entry C          line   200 file /home/daniele/anaconda3/envs/poltype/share/psi4/basis/heavy-aug-cc-pvtz-jkfit.gbs 
    atoms 13-22 entry H          line   116 file /home/daniele/anaconda3/envs/poltype/share/psi4/basis/heavy-aug-cc-pvtz-jkfit.gbs 

  ==> Pre-Iterations <==

   -------------------------------------------------------
    Irrep   Nso     Nmo     Nalpha   Nbeta   Ndocc  Nsocc
   -------------------------------------------------------
     A        294     294       0       0       0       0
   -------------------------------------------------------
    Total     294     294      41      41      41       0
   -------------------------------------------------------

  ==> Integral Setup <==

  ==> DiskDFJK: Density-Fitted J/K Matrices <==

    J tasked:                  Yes
    K tasked:                  Yes
    wK tasked:                 Yes
    Omega:               2.000E-01
    OpenMP threads:              3
    Integrals threads:           3
    Memory [MiB]:              450
    Algorithm:                Disk
    Integral Cache:           NONE
    Schwarz Cutoff:          1E-12
    Fitting Condition:       1E-10

   => Auxiliary Basis Set <=

  Basis Set: (6-311+G* AUX)
    Blend: HEAVY-AUG-CC-PVTZ-JKFIT
    Number of shells: 460
    Number of basis function: 1548
    Number of Cartesian functions: 1922
    Spherical Harmonics?: true
    Max angular momentum: 4

  Cached 1.8% of DFT collocation blocks in 0.045 [GiB].

  Minimum eigenvalue in the overlap matrix is 5.4255236339E-07.
  Using Symmetric Orthogonalization.

  SCF Guess: Superposition of Atomic Densities via on-the-fly atomic UHF.

  ==> Iterations <==

                           Total Energy        Delta E     RMS |[F,P]|

   @DF-RKS iter SAD:  -462.64830945161765   -4.62648e+02   0.00000e+00 
   @DF-RKS iter   1:  -462.71661248792532   -6.83030e-02   3.28233e-03 DIIS
   @DF-RKS iter   2:  -462.98429330473806   -2.67681e-01   2.37552e-03 DIIS
   @DF-RKS iter   3:  -463.22969418127229   -2.45401e-01   1.59002e-04 DIIS
   @DF-RKS iter   4:  -463.23091057004848   -1.21639e-03   3.34600e-05 DIIS
   @DF-RKS iter   5:  -463.23097501201596   -6.44420e-05   1.21330e-05 DIIS
   @DF-RKS iter   6:  -463.23098034365535   -5.33164e-06   5.24960e-06 DIIS
   @DF-RKS iter   7:  -463.23098162481710   -1.28116e-06   1.18011e-06 DIIS
   @DF-RKS iter   8:  -463.23098169550150   -7.06844e-08   4.43486e-07 DIIS
  Energy and wave function converged.


  ==> Post-Iterations <==

    Orbital Energies [Eh]
    ---------------------

    Doubly Occupied:                                                      

       1A    -10.306914     2A    -10.306640     3A    -10.292107  
       4A    -10.292097     5A    -10.292057     6A    -10.292054  
       7A    -10.291515     8A    -10.291507     9A    -10.291444  
      10A    -10.291441    11A    -10.290598    12A    -10.290597  
      13A     -0.977095    14A     -0.955409    15A     -0.883074  
      16A     -0.857207    17A     -0.847431    18A     -0.825839  
      19A     -0.725798    20A     -0.722019    21A     -0.686177  
      22A     -0.678080    23A     -0.633770    24A     -0.593665  
      25A     -0.569580    26A     -0.559135    27A     -0.532071  
      28A     -0.521627    29A     -0.520414    30A     -0.514347  
      31A     -0.503436    32A     -0.479253    33A     -0.452024  
      34A     -0.451318    35A     -0.443336    36A     -0.425798  
      37A     -0.416087    38A     -0.367968    39A     -0.337116  
      40A     -0.332111    41A     -0.298821  

    Virtual:                                                              

      42A      0.018134    43A      0.042679    44A      0.058536  
      45A      0.064821    46A      0.066702    47A      0.072605  
      48A      0.084306    49A      0.086143    50A      0.091070  
      51A      0.103576    52A      0.103966    53A      0.105079  
      54A      0.113983    55A      0.127229    56A      0.128487  
      57A      0.131409    58A      0.140140    59A      0.140879  
      60A      0.152514    61A      0.161634    62A      0.169798  
      63A      0.178110    64A      0.183119    65A      0.184083  
      66A      0.189981    67A      0.196925    68A      0.197231  
      69A      0.200028    70A      0.209498    71A      0.217558  
      72A      0.221083    73A      0.223502    74A      0.225234  
      75A      0.228975    76A      0.240362    77A      0.241842  
      78A      0.242968    79A      0.250497    80A      0.255147  
      81A      0.259856    82A      0.262714    83A      0.270286  
      84A      0.271778    85A      0.272606    86A      0.274495  
      87A      0.281951    88A      0.287253    89A      0.288882  
      90A      0.291471    91A      0.297402    92A      0.309859  
      93A      0.311543    94A      0.312744    95A      0.319957  
      96A      0.321335    97A      0.326154    98A      0.335627  
      99A      0.336758   100A      0.346834   101A      0.346899  
     102A      0.356881   103A      0.359104   104A      0.374171  
     105A      0.379852   106A      0.386750   107A      0.387220  
     108A      0.403418   109A      0.413017   110A      0.420693  
     111A      0.421907   112A      0.462361   113A      0.471407  
     114A      0.474237   115A      0.519038   116A      0.556247  
     117A      0.582585   118A      0.590601   119A      0.599166  
     120A      0.611457   121A      0.615316   122A      0.616767  
     123A      0.624100   124A      0.624418   125A      0.629005  
     126A      0.639864   127A      0.641148   128A      0.657230  
     129A      0.657742   130A      0.658906   131A      0.662898  
     132A      0.687627   133A      0.689314   134A      0.697448  
     135A      0.719936   136A      0.720551   137A      0.732657  
     138A      0.738212   139A      0.750421   140A      0.751292  
     141A      0.769607   142A      0.773485   143A      0.777773  
     144A      0.788034   145A      0.795499   146A      0.804243  
     147A      0.813922   148A      0.825163   149A      0.849763  
     150A      0.850162   151A      0.874195   152A      0.885717  
     153A      0.911559   154A      0.917410   155A      0.923139  
     156A      0.923154   157A      0.936075   158A      0.937575  
     159A      0.942792   160A      0.946499   161A      0.981305  
     162A      0.988399   163A      0.989746   164A      0.993909  
     165A      0.995711   166A      1.038093   167A      1.044592  
     168A      1.046285   169A      1.057301   170A      1.087690  
     171A      1.100042   172A      1.110757   173A      1.120319  
     174A      1.160810   175A      1.191630   176A      1.193059  
     177A      1.206690   178A      1.212241   179A      1.282211  
     180A      1.293478   181A      1.306278   182A      1.309926  
     183A      1.317683   184A      1.333038   185A      1.347308  
     186A      1.393965   187A      1.409467   188A      1.411877  
     189A      1.564565   190A      1.576260   191A      1.581267  
     192A      1.584564   193A      1.615733   194A      1.619122  
     195A      1.632033   196A      1.648447   197A      1.691248  
     198A      1.764126   199A      1.807259   200A      1.808281  
     201A      1.844560   202A      1.851608   203A      1.857666  
     204A      1.861120   205A      1.875157   206A      1.923931  
     207A      1.932395   208A      1.948362   209A      1.949940  
     210A      1.958969   211A      1.997905   212A      2.012069  
     213A      2.028728   214A      2.034819   215A      2.036384  
     216A      2.053694   217A      2.091460   218A      2.093790  
     219A      2.117244   220A      2.118296   221A      2.220042  
     222A      2.281111   223A      2.284593   224A      2.348003  
     225A      2.352495   226A      2.356071   227A      2.395626  
     228A      2.400831   229A      2.410133   230A      2.450981  
     231A      2.456867   232A      2.481013   233A      2.483081  
     234A      2.484704   235A      2.529298   236A      2.565200  
     237A      2.568085   238A      2.724521   239A      2.754360  
     240A      2.767905   241A      2.797118   242A      2.811720  
     243A      2.844205   244A      2.861944   245A      2.865341  
     246A      2.891107   247A      2.935658   248A      2.951319  
     249A      2.952186   250A      2.989387   251A      2.989705  
     252A      3.036902   253A      3.073222   254A      3.107224  
     255A      3.182914   256A      3.183769   257A      3.276621  
     258A      3.279821   259A      3.332741   260A      3.387741  
     261A      3.413832   262A      3.413991   263A      3.418472  
     264A      3.426451   265A      3.441300   266A      3.447687  
     267A      3.451734   268A      3.536439   269A      3.541289  
     270A      3.655485   271A      3.701424   272A      3.750019  
     273A      3.751098   274A      3.773418   275A      3.813759  
     276A      4.035327   277A      4.109196   278A      4.122503  
     279A      4.155198   280A      4.598134   281A      4.865846  
     282A      4.916856   283A     23.393551   284A     23.577407  
     285A     23.965471   286A     23.986544   287A     24.002895  
     288A     24.030674   289A     24.143479   290A     24.170678  
     291A     24.183689   292A     24.186872   293A     24.280546  
     294A     24.280815  

    Final Occupation by Irrep:
              A 
    DOCC [    41 ]

  @DF-RKS Final Energy:  -463.23098169550150

   => Energetics <=

    Nuclear Repulsion Energy =            599.2700427639197187
    One-Electron Energy =               -1811.6548428515159230
    Two-Electron Energy =                 796.4137556765221007
    DFT Exchange-Correlation Energy =     -47.2480364251007643
    Empirical Dispersion Energy =          -0.0119008593266115
    VV10 Nonlocal Energy =                  0.0000000000000000
    Total Energy =                       -463.2309816955014412

Computation Completed


Properties will be evaluated at   0.000000,   0.000000,   0.000000 [a0]

Properties computed using the SCF density matrix

  Nuclear Dipole Moment: [e a0]
     X:    -0.0000      Y:    -0.0000      Z:    -0.0000

  Electronic Dipole Moment: [e a0]
     X:    -0.0000      Y:     0.0000      Z:     0.0000

  Dipole Moment: [e a0]
     X:    -0.0000      Y:     0.0000      Z:     0.0000     Total:     0.0000

  Dipole Moment: [D]
     X:    -0.0000      Y:     0.0000      Z:     0.0000     Total:     0.0000


*** tstop() called on daniele-Precision-5750 at Mon May 31 17:47:49 2021
Module time:
	user time   =     170.60 seconds =       2.84 minutes
	system time =       6.66 seconds =       0.11 minutes
	total time  =         60 seconds =       1.00 minutes
Total time:
	user time   =     170.60 seconds =       2.84 minutes
	system time =       6.66 seconds =       0.11 minutes
	total time  =         60 seconds =       1.00 minutes


Properties will be evaluated at   0.000000,   0.000000,   0.000000 [a0]
OEProp: No title given, name of density matrix used for the following properties is 'SCF density'


  Wiberg Bond Indices using Orthogonal Lowdin Orbitals:

  Irrep: 1 Size: 22 x 22

                 1                   2                   3                   4                   5

    1     0.00000000000000     1.04241097913642     1.41069243711961     0.11137982453336     1.41068027022795
    2     1.04241097913642     0.00000000000000     0.11137473762363     1.41067442383979     0.11137692090913
    3     1.41069243711961     0.11137473762363     0.00000000000000     0.06150185770031     0.12862536574553
    4     0.11137982453336     1.41067442383979     0.06150185770031     0.00000000000000     0.02851196579591
    5     1.41068027022795     0.11137692090913     0.12862536574553     0.02851196579591     0.00000000000000
    6     0.11137714740317     1.41069753792916     0.02851517183294     0.12862256182480     0.06150954457670
    7     0.13146163667983     0.01651307064636     1.52964997260982     0.00595535468991     0.14335069645076
    8     0.01651280133244     0.13146361545947     0.00595476204067     1.52966060427210     0.00335361828476
    9     0.13146277114358     0.01651203107483     0.14335126321980     0.00335406419584     1.52966108702902
   10     0.01651361585342     0.13146057192006     0.00335362499273     0.14335184616379     0.00595575455632
   11     0.13633573588602     0.00783143323900     0.13772779952444     0.00868764523097     0.13772567535237
   12     0.00783184065227     0.13633427681764     0.00868797926794     0.13772689789324     0.00868762743932
   13     0.05386346006657     0.01541600403415     0.81439698353354     0.01659547834367     0.00994888419777
   14     0.01541806306190     0.05386038799965     0.01659523572150     0.81439929310030     0.00087389833284
   15     0.05386441311609     0.01541509659195     0.00994843000955     0.00087384095344     0.81439565461623
   16     0.01541636557968     0.05386506731383     0.00087363915310     0.00994907394506     0.01659885439124
   17     0.01058692495759     0.00107367333369     0.06030912432330     0.00023529357570     0.00250533733147
   18     0.00107360041649     0.01058687540848     0.00023525516141     0.06030866714237     0.00032905382602
   19     0.01058707169287     0.00107378050309     0.00250535462453     0.00032896228028     0.06031110662796
   20     0.00107354434500     0.01058696930242     0.00032903175743     0.00250512533592     0.00023531244989
   21     0.00263404994116     0.00031224005440     0.01113449788354     0.00013016223979     0.01113454815736
   22     0.00031240663430     0.00263415532846     0.00013010032903     0.01113481513864     0.00013017440586

                 6                   7                   8                   9                  10

    1     0.11137714740317     0.13146163667983     0.01651280133244     0.13146277114358     0.01651361585342
    2     1.41069753792916     0.01651307064636     0.13146361545947     0.01651203107483     0.13146057192006
    3     0.02851517183294     1.52964997260982     0.00595476204067     0.14335126321980     0.00335362499273
    4     0.12862256182480     0.00595535468991     1.52966060427210     0.00335406419584     0.14335184616379
    5     0.06150954457670     0.14335069645076     0.00335361828476     1.52966108702902     0.00595575455632
    6     0.00000000000000     0.00335372445710     0.14335263391039     0.00595592429672     1.52964714282541
    7     0.00335372445710     0.00000000000000     0.00059331528302     0.13820598404538     0.00098933188810
    8     0.14335263391039     0.00059331528302     0.00000000000000     0.00098934754010     0.13820512463547
    9     0.00595592429672     0.13820598404538     0.00098934754010     0.00000000000000     0.00059334236447
   10     1.52964714282541     0.00098933188810     0.13820512463547     0.00059334236447     0.00000000000000
   11     0.00868776486163     1.51710229728554     0.00072407555901     1.51709267564734     0.00072407179928
   12     0.13772956805738     0.00072402481564     1.51708937155296     0.00072394248529     1.51710497390211
   13     0.00087411382696     0.05649620963289     0.00142237127805     0.00222919074655     0.00024454859828
   14     0.00994778444870     0.00142250590661     0.05649667667835     0.00024469367760     0.00222939276793
   15     0.01659883573559     0.00222936451920     0.00024457949436     0.05649508052188     0.00142269626236
   16     0.81439324389060     0.00024457028239     0.00222939140327     0.00142294469392     0.05649561717632
   17     0.00032910199491     0.83396222649188     0.00004394867739     0.01139588252143     0.00006303547306
   18     0.00250478728914     0.00004398048445     0.83396352748938     0.00006307050456     0.01139604256632
   19     0.00023542215850     0.01139561116519     0.00006300673740     0.83396048020077     0.00004398647789
   20     0.06030919083182     0.00006304483680     0.01139632057405     0.00004400023354     0.83396221577317
   21     0.00013020025008     0.05928417270571     0.00003467859651     0.05928451856616     0.00003466866551
   22     0.01113456437022     0.00003469245720     0.05928368424623     0.00003473374235     0.05928416194384

                11                  12                  13                  14                  15

    1     0.13633573588602     0.00783184065227     0.05386346006657     0.01541806306190     0.05386441311609
    2     0.00783143323900     0.13633427681764     0.01541600403415     0.05386038799965     0.01541509659195
    3     0.13772779952444     0.00868797926794     0.81439698353354     0.01659523572150     0.00994843000955
    4     0.00868764523097     0.13772689789324     0.01659547834367     0.81439929310030     0.00087384095344
    5     0.13772567535237     0.00868762743932     0.00994888419777     0.00087389833284     0.81439565461623
    6     0.00868776486163     0.13772956805738     0.00087411382696     0.00994778444870     0.01659883573559
    7     1.51710229728554     0.00072402481564     0.05649620963289     0.00142250590661     0.00222936451920
    8     0.00072407555901     1.51708937155296     0.00142237127805     0.05649667667835     0.00024457949436
    9     1.51709267564734     0.00072394248529     0.00222919074655     0.00024469367760     0.05649508052188
   10     0.00072407179928     1.51710497390211     0.00024454859828     0.00222939276793     0.00142269626236
   11     0.00000000000000     0.00542622242104     0.01042293599248     0.00029772799703     0.01042264023135
   12     0.00542622242104     0.00000000000000     0.00029774217269     0.01042270770544     0.00029775464344
   13     0.01042293599248     0.00029774217269     0.00000000000000     0.00478405849926     0.00038507828915
   14     0.00029772799703     0.01042270770544     0.00478405849926     0.00000000000000     0.00009522581265
   15     0.01042264023135     0.00029775464344     0.00038507828915     0.00009522581265     0.00000000000000
   16     0.00029773450938     0.01042222074741     0.00009522625177     0.00038507237890     0.00478535139791
   17     0.05887245891006     0.00003117315027     0.00561069679993     0.00004691659017     0.00025618165891
   18     0.00003116053232     0.05887224885794     0.00004692545838     0.00561062013821     0.00006080664305
   19     0.05887248943000     0.00003117491169     0.00025619748460     0.00006079293120     0.00561068284069
   20     0.00003116112891     0.05887226811741     0.00006080225812     0.00025620015650     0.00004692876064
   21     0.83583216907294     0.00002263914417     0.00022248508318     0.00002430763676     0.00022249387719
   22     0.00002263740715     0.83583268046122     0.00002431032139     0.00022248625762     0.00002431153692

                16                  17                  18                  19                  20

    1     0.01541636557968     0.01058692495759     0.00107360041649     0.01058707169287     0.00107354434500
    2     0.05386506731383     0.00107367333369     0.01058687540848     0.00107378050309     0.01058696930242
    3     0.00087363915310     0.06030912432330     0.00023525516141     0.00250535462453     0.00032903175743
    4     0.00994907394506     0.00023529357570     0.06030866714237     0.00032896228028     0.00250512533592
    5     0.01659885439124     0.00250533733147     0.00032905382602     0.06031110662796     0.00023531244989
    6     0.81439324389060     0.00032910199491     0.00250478728914     0.00023542215850     0.06030919083182
    7     0.00024457028239     0.83396222649188     0.00004398048445     0.01139561116519     0.00006304483680
    8     0.00222939140327     0.00004394867739     0.83396352748938     0.00006300673740     0.01139632057405
    9     0.00142294469392     0.01139588252143     0.00006307050456     0.83396048020077     0.00004400023354
   10     0.05649561717632     0.00006303547306     0.01139604256632     0.00004398647789     0.83396221577317
   11     0.00029773450938     0.05887245891006     0.00003116053232     0.05887248943000     0.00003116112891
   12     0.01042222074741     0.00003117315027     0.05887224885794     0.00003117491169     0.05887226811741
   13     0.00009522625177     0.00561069679993     0.00004692545838     0.00025619748460     0.00006080225812
   14     0.00038507237890     0.00004691659017     0.00561062013821     0.00006079293120     0.00025620015650
   15     0.00478535139791     0.00025618165891     0.00006080664305     0.00561068284069     0.00004692876064
   16     0.00000000000000     0.00006080062195     0.00025619442268     0.00004691941537     0.00561061351563
   17     0.00006080062195     0.00000000000000     0.00000671584568     0.00026935025059     0.00001879732050
   18     0.00025619442268     0.00000671584568     0.00000000000000     0.00001879577950     0.00026935946716
   19     0.00004691941537     0.00026935025059     0.00001879577950     0.00000000000000     0.00000671655423
   20     0.00561061351563     0.00001879732050     0.00026935946716     0.00000671655423     0.00000000000000
   21     0.00002430910757     0.00514347594573     0.00000167252825     0.00514347849574     0.00000167267469
   22     0.00022248399384     0.00000167293748     0.00514342378315     0.00000167315551     0.00514338844424

                21                  22

    1     0.00263404994116     0.00031240663430
    2     0.00031224005440     0.00263415532846
    3     0.01113449788354     0.00013010032903
    4     0.00013016223979     0.01113481513864
    5     0.01113454815736     0.00013017440586
    6     0.00013020025008     0.01113456437022
    7     0.05928417270571     0.00003469245720
    8     0.00003467859651     0.05928368424623
    9     0.05928451856616     0.00003473374235
   10     0.00003466866551     0.05928416194384
   11     0.83583216907294     0.00002263740715
   12     0.00002263914417     0.83583268046122
   13     0.00022248508318     0.00002431032139
   14     0.00002430763676     0.00022248625762
   15     0.00022249387719     0.00002431153692
   16     0.00002430910757     0.00022248399384
   17     0.00514347594573     0.00000167293748
   18     0.00000167252825     0.00514342378315
   19     0.00514347849574     0.00000167315551
   20     0.00000167267469     0.00514338844424
   21     0.00000000000000     0.00000087675764
   22     0.00000087675764     0.00000000000000



  Atomic Valences: 

 #  #
 Irrep: 1
      1:  4.6914890
      2:  4.6914738
      3:  4.4858926
      4:  4.4858878
      5:  4.4859014
      6:  4.4859060
      7:  4.4530758
      8:  4.4530775
      9:  4.4530770
     10:  4.4530758
     11:  4.4531685
     12:  4.4531693
     13:  0.9936937
     14:  0.9936940
     15:  0.9936954
     16:  0.9936957
     17:  0.9908228
     18:  0.9908228
     19:  0.9908231
     20:  0.9908227
     21:  0.9907533
     22:  0.9907534


    Psi4 stopped on: Monday, 31 May 2021 05:47PM
    Psi4 wall time for execution: 0:01:00.06

*** Psi4 exiting successfully. Buy a developer a beer!
