
    -----------------------------------------------------------------------
          Psi4: An Open-Source Ab Initio Electronic Structure Package
                               Psi4 1.3.2 release

                         Git: Rev {HEAD} ecbda83 


    R. M. Parrish, L. A. Burns, D. G. A. Smith, A. C. Simmonett,
    A. E. DePrince III, E. G. Hohenstein, U. Bozkaya, A. Yu. Sokolov,
    R. Di Remigio, R. M. Richard, J. F. Gonthier, A. M. James,
    H. R. McAlexander, A. Kumar, M. Saitow, X. Wang, B. P. Pritchard,
    P. Verma, H. F. Schaefer III, K. Patkowski, R. A. King, E. F. Valeev,
    F. A. Evangelista, J. M. Turney, T. D. Crawford, and C. D. Sherrill,
    J. Chem. Theory Comput. 13(7) pp 3185--3197 (2017).
    (doi: 10.1021/acs.jctc.7b00174)


                         Additional Contributions by
    P. Kraus, H. Kruse, M. H. Lechner, M. C. Schieber, R. A. Shaw,
    A. Alenaizan, R. Galvelis, Z. L. Glick, S. Lehtola, and J. P. Misiewicz

    -----------------------------------------------------------------------


    Psi4 started on: Monday, 31 May 2021 05:23PM

    Process ID: 30045
    Host:       daniele-Precision-5750
    PSIDATADIR: /home/daniele/anaconda3/envs/poltype/share/psi4
    Memory:     500.0 MiB
    Threads:    1
    
  ==> Input File <==

--------------------------------------------------------------------------
molecule { 
0 1
 C    0.757271    0.050765   -0.028393
 C   -0.757367   -0.050521    0.027964
 C    1.420370    0.876469   -1.003254
 C   -1.431574   -0.620949    1.164569
 C    1.594511   -0.674593    0.890763
 C   -1.583532    0.419777   -1.052913
 C    2.825829    0.962444   -1.047696
 C   -2.836878   -0.711099    1.206168
 C    2.998385   -0.572830    0.830474
 C   -2.987541    0.322123   -0.990212
 C    3.613010    0.241599   -0.134709
 C   -3.613129   -0.241344    0.134079
 H    0.857631    1.464670   -1.723410
 H   -0.878582   -0.986871    2.025714
 H    1.169906   -1.328674    1.647751
 H   -1.149157    0.851531   -1.950730
 H    3.305882    1.594212   -1.793240
 H   -3.325650   -1.145573    2.076740
 H    3.612097   -1.131475    1.535284
 H   -3.592565    0.683465   -1.820134
 H    4.698363    0.314084   -0.175274
 H   -4.698481   -0.313770    0.174355
}
set optking { 
  frozen_dihedral = ("
    3 1 2 4
    3 1 2 6
    5 1 2 4
    5 1 2 6
  ")
}
set {
  geom_maxiter 400
  g_convergence GAU_LOOSE
  dynamic_level 1
}
memory 700MB
set_num_threads(3)
psi4_io.set_default_path("/home/daniele/PSI4_sctatch/Psi4-biphenyl")
for _ in range(1):
  try:
    set opt_coordinates both
    optimize('wb97x-d/6-311G')
    break
  except OptimizationConvergenceError:
    break
  else:
    try:
      set opt_coordinates cartesian
      optimize('wb97x-d/6-311G')
      break
    except OptimizationConvergenceError:
      pass
clean()
--------------------------------------------------------------------------

  Memory set to 667.572 MiB by Python driver.
  Threads set to 3 by Python driver.
gradient() will perform analytic gradient computation.

*** tstart() called on daniele-Precision-5750
*** at Mon May 31 17:23:16 2021

   => Loading Basis Set <=

    Name: 6-311G
    Role: ORBITAL
    Keyword: BASIS
    atoms 1-12  entry C          line    92 file /home/daniele/anaconda3/envs/poltype/share/psi4/basis/6-311g.gbs 
    atoms 13-22 entry H          line    21 file /home/daniele/anaconda3/envs/poltype/share/psi4/basis/6-311g.gbs 


         ---------------------------------------------------------
                                   SCF
               by Justin Turney, Rob Parrish, Andy Simmonett
                          and Daniel G. A. Smith
                              RKS Reference
                        3 Threads,    667 MiB Core
         ---------------------------------------------------------

  ==> Geometry <==

    Molecular point group: c1
    Full point group: C1

    Geometry (in Angstrom), charge = 0, multiplicity = 1:

       Center              X                  Y                   Z               Mass       
    ------------   -----------------  -----------------  -----------------  -----------------
         C            0.757324871008     0.050611159259    -0.028127634598    12.000000000000
         C           -0.757313128992    -0.050674840741     0.028229365402    12.000000000000
         C            1.420423871008     0.876315159259    -1.002988634598    12.000000000000
         C           -1.431520128992    -0.621102840741     1.164834365402    12.000000000000
         C            1.594564871008    -0.674746840741     0.891028365402    12.000000000000
         C           -1.583478128992     0.419623159259    -1.052647634598    12.000000000000
         C            2.825882871008     0.962290159259    -1.047430634598    12.000000000000
         C           -2.836824128992    -0.711252840741     1.206433365402    12.000000000000
         C            2.998438871008    -0.572983840741     0.830739365402    12.000000000000
         C           -2.987487128992     0.321969159259    -0.989946634598    12.000000000000
         C            3.613063871008     0.241445159259    -0.134443634598    12.000000000000
         C           -3.613075128992    -0.241497840741     0.134344365402    12.000000000000
         H            0.857684871008     1.464516159259    -1.723144634598     1.007825032230
         H           -0.878528128992    -0.987024840741     2.025979365402     1.007825032230
         H            1.169959871008    -1.328827840741     1.648016365402     1.007825032230
         H           -1.149103128992     0.851377159259    -1.950464634598     1.007825032230
         H            3.305935871008     1.594058159259    -1.792974634598     1.007825032230
         H           -3.325596128992    -1.145726840741     2.077005365402     1.007825032230
         H            3.612150871008    -1.131628840741     1.535549365402     1.007825032230
         H           -3.592511128992     0.683311159259    -1.819868634598     1.007825032230
         H            4.698416871008     0.313930159259    -0.175008634598     1.007825032230
         H           -4.698427128992    -0.313923840741     0.174620365402     1.007825032230

  Running in c1 symmetry.

  Rotational constants: A =      0.09292  B =      0.01778  C =      0.01499 [cm^-1]
  Rotational constants: A =   2785.73386  B =    532.89780  C =    449.52664 [MHz]
  Nuclear repulsion =  589.874528756749100

  Charge       = 0
  Multiplicity = 1
  Electrons    = 82
  Nalpha       = 41
  Nbeta        = 41

  ==> Algorithm <==

  SCF Algorithm Type is DF.
  DIIS enabled.
  MOM disabled.
  Fractional occupation disabled.
  Guess Type is SAD.
  Energy threshold   = 1.00e-08
  Density threshold  = 1.00e-08
  Integral threshold = 0.00e+00

  ==> Primary Basis <==

  Basis Set: 6-311G
    Blend: 6-311G
    Number of shells: 114
    Number of basis function: 186
    Number of Cartesian functions: 186
    Spherical Harmonics?: true
    Max angular momentum: 1

  ==> DFT Potential <==

   => Composite Functional: WB97X-D <= 

    wB97X-D Hyb-GGA Exchange-Correlation Functional

    J.-D. Chai and M. Head-Gordon, Phys. Chem. Chem. Phys. 10, 6615 (2008)

    Deriv               =              1
    GGA                 =           TRUE
    Meta                =          FALSE

    Exchange Hybrid     =           TRUE
    MP2 Hybrid          =          FALSE

   => Exchange-Correlation Functionals <=

    1.0000   wB97D range-separated functional

   => Exact (HF) Exchange <=

    0.7780            HF,LR [omega = 0.2000]
    0.2220               HF 

   => Molecular Quadrature <=

    Radial Scheme          =       TREUTLER
    Pruning Scheme         =           FLAT
    Nuclear Scheme         =       TREUTLER

    BS radius alpha        =              1
    Pruning alpha          =              1
    Radial Points          =             75
    Spherical Points       =            302
    Total Points           =         491184
    Total Blocks           =           3609
    Max Points             =            256
    Max Functions          =            152

   => WB97X-D: Empirical Dispersion <=

    Chai and Head-Gordon Dispersion Correction
    Chai, J.-D.; Head-Gordon, M. (2010), J. Chem. Phys., 132: 6615-6620

        s6 =       1.000000

   => Loading Basis Set <=

    Name: (6-311G AUX)
    Role: JKFIT
    Keyword: DF_BASIS_SCF
    atoms 1-12  entry C          line   125 file /home/daniele/anaconda3/envs/poltype/share/psi4/basis/cc-pvtz-jkfit.gbs 
    atoms 13-22 entry H          line    51 file /home/daniele/anaconda3/envs/poltype/share/psi4/basis/cc-pvtz-jkfit.gbs 

  ==> Pre-Iterations <==

   -------------------------------------------------------
    Irrep   Nso     Nmo     Nalpha   Nbeta   Ndocc  Nsocc
   -------------------------------------------------------
     A        186     186       0       0       0       0
   -------------------------------------------------------
    Total     186     186      41      41      41       0
   -------------------------------------------------------

  ==> Integral Setup <==

  ==> DiskDFJK: Density-Fitted J/K Matrices <==

    J tasked:                  Yes
    K tasked:                  Yes
    wK tasked:                 Yes
    Omega:               2.000E-01
    OpenMP threads:              3
    Integrals threads:           3
    Memory [MiB]:              171
    Algorithm:                Disk
    Integral Cache:           NONE
    Schwarz Cutoff:          1E-12
    Fitting Condition:       1E-10

   => Auxiliary Basis Set <=

  Basis Set: (6-311G AUX)
    Blend: CC-PVTZ-JKFIT
    Number of shells: 400
    Number of basis function: 1248
    Number of Cartesian functions: 1502
    Spherical Harmonics?: true
    Max angular momentum: 4

  Cached 25.0% of DFT collocation blocks in 0.382 [GiB].

  Minimum eigenvalue in the overlap matrix is 2.4458238747E-04.
  Using Symmetric Orthogonalization.

  SCF Guess: Superposition of Atomic Densities via on-the-fly atomic UHF.

  ==> Iterations <==

                           Total Energy        Delta E     RMS |[F,P]|

   @DF-RKS iter SAD:  -462.18759253977299   -4.62188e+02   0.00000e+00 
   @DF-RKS iter   1:  -462.81348005128820   -6.25888e-01   3.94911e-03 DIIS
   @DF-RKS iter   2:  -463.00797351828635   -1.94493e-01   2.47599e-03 DIIS
   @DF-RKS iter   3:  -463.11778971415526   -1.09816e-01   3.08645e-04 DIIS
   @DF-RKS iter   4:  -463.11887456133684   -1.08485e-03   2.19722e-04 DIIS
   @DF-RKS iter   5:  -463.11983304159287   -9.58480e-04   1.52210e-05 DIIS
   @DF-RKS iter   6:  -463.11983926447397   -6.22288e-06   5.66167e-06 DIIS
   @DF-RKS iter   7:  -463.11983984781352   -5.83340e-07   1.64624e-06 DIIS
   @DF-RKS iter   8:  -463.11983992720576   -7.93922e-08   2.33093e-07 DIIS
   @DF-RKS iter   9:  -463.11983993168593   -4.48017e-09   1.27747e-07 DIIS
   @DF-RKS iter  10:  -463.11983993210515   -4.19220e-10   2.90588e-08 DIIS
   @DF-RKS iter  11:  -463.11983993214784   -4.26894e-11   1.79923e-09 DIIS
  Energy and wave function converged.


  ==> Post-Iterations <==

    Orbital Energies [Eh]
    ---------------------

    Doubly Occupied:                                                      

       1A    -10.322322     2A    -10.322099     3A    -10.302004  
       4A    -10.302000     5A    -10.301994     6A    -10.301989  
       7A    -10.299153     8A    -10.299150     9A    -10.299091  
      10A    -10.299089    11A    -10.296893    12A    -10.296892  
      13A     -0.969001    14A     -0.950523    15A     -0.878618  
      16A     -0.855325    17A     -0.847204    18A     -0.823036  
      19A     -0.725929    20A     -0.718226    21A     -0.686703  
      22A     -0.677549    23A     -0.629256    24A     -0.592769  
      25A     -0.569887    26A     -0.557617    27A     -0.534690  
      28A     -0.521561    29A     -0.520977    30A     -0.513072  
      31A     -0.505428    32A     -0.473076    33A     -0.450771  
      34A     -0.447167    35A     -0.443575    36A     -0.425671  
      37A     -0.417648    38A     -0.364354    39A     -0.335068  
      40A     -0.330956    41A     -0.294955  

    Virtual:                                                              

      42A      0.020336    43A      0.049636    44A      0.067390  
      45A      0.098641    46A      0.119850    47A      0.132325  
      48A      0.142292    49A      0.159392    50A      0.166780  
      51A      0.186355    52A      0.187159    53A      0.204275  
      54A      0.205336    55A      0.250395    56A      0.254228  
      57A      0.258760    58A      0.293531    59A      0.308739  
      60A      0.323989    61A      0.333522    62A      0.358912  
      63A      0.363613    64A      0.371171    65A      0.402955  
      66A      0.408355    67A      0.409739    68A      0.425933  
      69A      0.455362    70A      0.456488    71A      0.467547  
      72A      0.468106    73A      0.478406    74A      0.489437  
      75A      0.504842    76A      0.505093    77A      0.513478  
      78A      0.513535    79A      0.520578    80A      0.522770  
      81A      0.542459    82A      0.547665    83A      0.551021  
      84A      0.564096    85A      0.569733    86A      0.579278  
      87A      0.582126    88A      0.597145    89A      0.617603  
      90A      0.650510    91A      0.667441    92A      0.674821  
      93A      0.676517    94A      0.690112    95A      0.695828  
      96A      0.697322    97A      0.700772    98A      0.710574  
      99A      0.722687   100A      0.731676   101A      0.735844  
     102A      0.735984   103A      0.754898   104A      0.781154  
     105A      0.840939   106A      0.845884   107A      0.849760  
     108A      0.850163   109A      0.861200   110A      0.866701  
     111A      0.872274   112A      0.905720   113A      0.908396  
     114A      0.915419   115A      0.949474   116A      0.952194  
     117A      0.997706   118A      1.005400   119A      1.008059  
     120A      1.015450   121A      1.096016   122A      1.096143  
     123A      1.154800   124A      1.172895   125A      1.193521  
     126A      1.216711   127A      1.349854   128A      1.379074  
     129A      2.272067   130A      2.304083   131A      2.311098  
     132A      2.365410   133A      2.367894   134A      2.411121  
     135A      2.451085   136A      2.504166   137A      2.592813  
     138A      2.608678   139A      2.630083   140A      2.630767  
     141A      2.648331   142A      2.659864   143A      2.668929  
     144A      2.706914   145A      2.759355   146A      2.800256  
     147A      2.812085   148A      2.822410   149A      2.825349  
     150A      2.839288   151A      2.859605   152A      2.882642  
     153A      2.957701   154A      2.958741   155A      2.979056  
     156A      2.988199   157A      2.995335   158A      3.043901  
     159A      3.071734   160A      3.146457   161A      3.171963  
     162A      3.224163   163A      3.233090   164A      3.248733  
     165A      3.264584   166A      3.290222   167A      3.320961  
     168A      3.333676   169A      3.342893   170A      3.344497  
     171A      3.377313   172A      3.435855   173A      3.459151  
     174A      3.618465   175A     23.212779   176A     23.311720  
     177A     23.454313   178A     23.463738   179A     23.483454  
     180A     23.535649   181A     23.689418   182A     23.754771  
     183A     23.756037   184A     23.758555   185A     23.967271  
     186A     23.975919  

    Final Occupation by Irrep:
              A 
    DOCC [    41 ]

  @DF-RKS Final Energy:  -463.11983993214784

   => Energetics <=

    Nuclear Repulsion Energy =            589.8745287567491005
    One-Electron Energy =               -1792.6154170865381730
    Two-Electron Energy =                 786.7254633990270349
    DFT Exchange-Correlation Energy =     -47.0925795880012998
    Empirical Dispersion Energy =          -0.0118354133845866
    VV10 Nonlocal Energy =                  0.0000000000000000
    Total Energy =                       -463.1198399321477837

Computation Completed


Properties will be evaluated at   0.000000,   0.000000,   0.000000 [a0]

Properties computed using the SCF density matrix

  Nuclear Dipole Moment: [e a0]
     X:    -0.0000      Y:     0.0001      Z:    -0.0003

  Electronic Dipole Moment: [e a0]
     X:     0.0000      Y:    -0.0001      Z:     0.0002

  Dipole Moment: [e a0]
     X:     0.0000      Y:    -0.0000      Z:    -0.0001     Total:     0.0001

  Dipole Moment: [D]
     X:     0.0000      Y:    -0.0000      Z:    -0.0002     Total:     0.0002


*** tstop() called on daniele-Precision-5750 at Mon May 31 17:23:44 2021
Module time:
	user time   =      77.60 seconds =       1.29 minutes
	system time =       3.39 seconds =       0.06 minutes
	total time  =         28 seconds =       0.47 minutes
Total time:
	user time   =      77.60 seconds =       1.29 minutes
	system time =       3.39 seconds =       0.06 minutes
	total time  =         28 seconds =       0.47 minutes

*** tstart() called on daniele-Precision-5750
*** at Mon May 31 17:23:44 2021


         ------------------------------------------------------------
                                   SCF GRAD                          
                          Rob Parrish, Justin Turney,                
                       Andy Simmonett, and Alex Sokolov              
         ------------------------------------------------------------

  ==> Geometry <==

    Molecular point group: c1
    Full point group: C1

    Geometry (in Angstrom), charge = 0, multiplicity = 1:

       Center              X                  Y                   Z               Mass       
    ------------   -----------------  -----------------  -----------------  -----------------
         C            0.757324871008     0.050611159259    -0.028127634598    12.000000000000
         C           -0.757313128992    -0.050674840741     0.028229365402    12.000000000000
         C            1.420423871008     0.876315159259    -1.002988634598    12.000000000000
         C           -1.431520128992    -0.621102840741     1.164834365402    12.000000000000
         C            1.594564871008    -0.674746840741     0.891028365402    12.000000000000
         C           -1.583478128992     0.419623159259    -1.052647634598    12.000000000000
         C            2.825882871008     0.962290159259    -1.047430634598    12.000000000000
         C           -2.836824128992    -0.711252840741     1.206433365402    12.000000000000
         C            2.998438871008    -0.572983840741     0.830739365402    12.000000000000
         C           -2.987487128992     0.321969159259    -0.989946634598    12.000000000000
         C            3.613063871008     0.241445159259    -0.134443634598    12.000000000000
         C           -3.613075128992    -0.241497840741     0.134344365402    12.000000000000
         H            0.857684871008     1.464516159259    -1.723144634598     1.007825032230
         H           -0.878528128992    -0.987024840741     2.025979365402     1.007825032230
         H            1.169959871008    -1.328827840741     1.648016365402     1.007825032230
         H           -1.149103128992     0.851377159259    -1.950464634598     1.007825032230
         H            3.305935871008     1.594058159259    -1.792974634598     1.007825032230
         H           -3.325596128992    -1.145726840741     2.077005365402     1.007825032230
         H            3.612150871008    -1.131628840741     1.535549365402     1.007825032230
         H           -3.592511128992     0.683311159259    -1.819868634598     1.007825032230
         H            4.698416871008     0.313930159259    -0.175008634598     1.007825032230
         H           -4.698427128992    -0.313923840741     0.174620365402     1.007825032230

  Nuclear repulsion =  589.874528756749100

  ==> Basis Set <==

  Basis Set: 6-311G
    Blend: 6-311G
    Number of shells: 114
    Number of basis function: 186
    Number of Cartesian functions: 186
    Spherical Harmonics?: true
    Max angular momentum: 1

  ==> DFJKGrad: Density-Fitted SCF Gradients <==

    Gradient:                    1
    J tasked:                  Yes
    K tasked:                  Yes
    wK tasked:                 Yes
    Omega:               2.000E-01
    OpenMP threads:              3
    Integrals threads:           3
    Memory [MiB]:              500
    Schwarz Cutoff:          0E+00
    Fitting Condition:       1E-10

   => Auxiliary Basis Set <=

  Basis Set: (6-311G AUX)
    Blend: CC-PVTZ-JKFIT
    Number of shells: 400
    Number of basis function: 1248
    Number of Cartesian functions: 1502
    Spherical Harmonics?: true
    Max angular momentum: 4

  ==> DFT Potential <==

   => Composite Functional: WB97X-D <= 

    wB97X-D Hyb-GGA Exchange-Correlation Functional

    J.-D. Chai and M. Head-Gordon, Phys. Chem. Chem. Phys. 10, 6615 (2008)

    Deriv               =              1
    GGA                 =           TRUE
    Meta                =          FALSE

    Exchange Hybrid     =           TRUE
    MP2 Hybrid          =          FALSE

   => Exchange-Correlation Functionals <=

    1.0000   wB97D range-separated functional

   => Exact (HF) Exchange <=

    0.7780            HF,LR [omega = 0.2000]
    0.2220               HF 

   => Molecular Quadrature <=

    Radial Scheme          =       TREUTLER
    Pruning Scheme         =           FLAT
    Nuclear Scheme         =       TREUTLER

    BS radius alpha        =              1
    Pruning alpha          =              1
    Radial Points          =             75
    Spherical Points       =            302
    Total Points           =         491184
    Total Blocks           =           3609
    Max Points             =            256
    Max Functions          =            152


  -Total Gradient:
     Atom            X                  Y                   Z
    ------   -----------------  -----------------  -----------------
       1       -0.012339542375    -0.000804244894     0.000413645103
       2        0.012345731584     0.000789187757    -0.000433282888
       3       -0.001943344203     0.012211594121    -0.015614141127
       4        0.001802472617    -0.008789648028     0.017800227825
       5        0.000801112076    -0.012327313314     0.015728652764
       6       -0.000691120785     0.008918835843    -0.017871566938
       7        0.007444815064     0.006113797870    -0.006831120355
       8       -0.007510315566    -0.003994780108     0.008073438094
       9        0.008694898661    -0.005001837409     0.006177817335
      10       -0.008593799509     0.002947647264    -0.007567860065
      11        0.005393347901     0.000334796776    -0.000157595416
      12       -0.005408577235    -0.000393541579     0.000262438088
      13        0.000467266307     0.003042284567    -0.004391612862
      14       -0.000488752466    -0.002707456700     0.004604832850
      15        0.001215714358    -0.002905819612     0.004307055561
      16       -0.001190900243     0.002577438341    -0.004519603101
      17        0.002988629938     0.002534648893    -0.003084760881
      18       -0.003046700038    -0.001908307147     0.003517546558
      19        0.003537654447    -0.002104837363     0.002849538779
      20       -0.003486382519     0.001454796125    -0.003243382110
      21        0.004668598505     0.000314469738    -0.000184738937
      22       -0.004660774607    -0.000301710671     0.000164729677


*** tstop() called on daniele-Precision-5750 at Mon May 31 17:23:58 2021
Module time:
	user time   =      41.20 seconds =       0.69 minutes
	system time =       0.55 seconds =       0.01 minutes
	total time  =         14 seconds =       0.23 minutes
Total time:
	user time   =     118.81 seconds =       1.98 minutes
	system time =       3.94 seconds =       0.07 minutes
	total time  =         42 seconds =       0.70 minutes

			-----------------------------------------
			 OPTKING 2.0: for geometry optimizations 
			  - R.A. King,  Bethel University        
			-----------------------------------------
	At level 1: Red. Int., RFO, no backsteps, dynamic trust

	Internal coordinates to be generated automatically.
	Detected frag 1 with atoms:  1 2 3 4 5 6 7 8 9 10 11 12 13 14 15 16 17 18 19 20
	 21 22
	---Fragment 1 Bond Connectivity---
	 1 : 2 3 5
	 2 : 1 4 6
	 3 : 1 7 13
	 4 : 2 8 14
	 5 : 1 9 15
	 6 : 2 10 16
	 7 : 3 11 17
	 8 : 4 12 18
	 9 : 5 11 19
	 10 : 6 12 20
	 11 : 7 9 21
	 12 : 8 10 22
	 13 : 3
	 14 : 4
	 15 : 5
	 16 : 6
	 17 : 7
	 18 : 8
	 19 : 9
	 20 : 10
	 21 : 11
	 22 : 12

	Assuming in current code that numbering for constraints corresponds to unified fragment.
	Frozen dihedral atom list: 
	     3     1     2     4
	     3     1     2     6
	     5     1     2     4
	     5     1     2     6
	---Fragment 1 Geometry and Gradient---
	 C           1.4311365942        0.0956412299       -0.0531535259
	 C          -1.4311144050       -0.0957615705        0.0533457693
	 C           2.6842120983        1.6559956506       -1.8953738263
	 C          -2.7051809869       -1.1737142647        2.2012179321
	 C           3.0132908955       -1.2750867330        1.6837995806
	 C          -2.9923399894        0.7929728469       -1.9892157360
	 C           5.3401446888        1.8184648542       -1.9793570348
	 C          -5.3608206699       -1.3440730750        2.2798286492
	 C           5.6662282701       -1.0827825333        1.5698698822
	 C          -5.6455324771        0.6084335318       -1.8707280182
	 C           6.8277011900        0.4562652253       -0.2540616487
	 C          -6.8277224645       -0.4563647789        0.2538740571
	 H           1.6207895082        2.7675344473       -3.2562714339
	 H          -1.6601775573       -1.8652066280        3.8285461364
	 H           2.2109037340       -2.5111206869        3.1142995809
	 H          -2.1714902037        1.6088696605       -3.6858439768
	 H           6.2473133845        3.0123333491       -3.3882310093
	 H          -6.2844658877       -2.1651099436        3.9249713017
	 H           6.8259758700       -2.1384685847        2.9017677527
	 H          -6.7888621365        1.2912709495       -3.4390533037
	 H           8.8787211094        0.5932420235       -0.3307183890
	 H          -8.8787404942       -0.5932300833        0.3299846665
	            -0.0123395424       -0.0008042449        0.0004136451
	             0.0123457316        0.0007891878       -0.0004332829
	            -0.0019433442        0.0122115941       -0.0156141411
	             0.0018024726       -0.0087896480        0.0178002278
	             0.0008011121       -0.0123273133        0.0157286528
	            -0.0006911208        0.0089188358       -0.0178715669
	             0.0074448151        0.0061137979       -0.0068311204
	            -0.0075103156       -0.0039947801        0.0080734381
	             0.0086948987       -0.0050018374        0.0061778173
	            -0.0085937995        0.0029476473       -0.0075678601
	             0.0053933479        0.0003347968       -0.0001575954
	            -0.0054085772       -0.0003935416        0.0002624381
	             0.0004672663        0.0030422846       -0.0043916129
	            -0.0004887525       -0.0027074567        0.0046048328
	             0.0012157144       -0.0029058196        0.0043070556
	            -0.0011909002        0.0025774383       -0.0045196031
	             0.0029886299        0.0025346489       -0.0030847609
	            -0.0030467000       -0.0019083071        0.0035175466
	             0.0035376544       -0.0021048374        0.0028495388
	            -0.0034863825        0.0014547961       -0.0032433821
	             0.0046685985        0.0003144697       -0.0001847389
	            -0.0046607746       -0.0003017107        0.0001647297

	Previous optimization step data not found.  Starting new optimization.

	---Fragment 1 Intrafragment Coordinates---
	 - Coordinate -           - BOHR/RAD -       - ANG/DEG -
	 R(1,2)           =         2.870620	       1.519067
	 R(1,3)           =         2.720051	       1.439389
	 R(1,5)           =         2.720131	       1.439431
	 R(2,4)           =         2.720034	       1.439380
	 R(2,6)           =         2.720171	       1.439453
	 R(3,7)           =         2.662222	       1.408787
	 R(3,13)          =         2.053881	       1.086867
	 R(4,8)           =         2.662259	       1.408807
	 R(4,14)          =         2.053872	       1.086862
	 R(5,9)           =         2.662337	       1.408848
	 R(5,15)          =         2.053761	       1.086804
	 R(6,10)          =         2.662240	       1.408797
	 R(6,16)          =         2.053784	       1.086816
	 R(7,11)          =         2.654253	       1.404570
	 R(7,17)          =         2.057475	       1.088769
	 R(8,12)          =         2.654114	       1.404496
	 R(8,18)          =         2.057600	       1.088835
	 R(9,11)          =         2.654131	       1.404506
	 R(9,19)          =         2.057532	       1.088799
	 R(10,12)         =         2.654299	       1.404594
	 R(10,20)         =         2.057453	       1.088757
	 R(11,21)         =         2.057018	       1.088527
	 R(12,22)         =         2.056988	       1.088511
	 B(1,2,4)         =         2.120876	     121.517252
	 B(1,2,6)         =         2.120727	     121.508704
	 B(1,3,7)         =         2.112932	     121.062069
	 B(1,3,13)        =         2.118455	     121.378540
	 B(1,5,9)         =         2.112817	     121.055507
	 B(1,5,15)        =         2.118590	     121.386268
	 B(2,1,3)         =         2.120827	     121.514435
	 B(2,1,5)         =         2.120765	     121.510904
	 B(2,4,8)         =         2.112869	     121.058466
	 B(2,4,14)        =         2.118539	     121.383324
	 B(2,6,10)        =         2.112885	     121.059370
	 B(2,6,16)        =         2.118485	     121.380246
	 B(3,1,5)         =         2.041593	     116.974661
	 B(3,7,11)        =         2.102837	     120.483681
	 B(3,7,17)        =         2.090802	     119.794151
	 B(4,2,6)         =         2.041582	     116.974044
	 B(4,8,12)        =         2.102931	     120.489058
	 B(4,8,18)        =         2.090843	     119.796505
	 B(5,9,11)        =         2.102911	     120.487925
	 B(5,9,19)        =         2.090828	     119.795615
	 B(6,10,12)       =         2.102851	     120.484512
	 B(6,10,20)       =         2.090798	     119.793892
	 B(7,3,13)        =         2.051732	     117.555601
	 B(7,11,9)        =         2.093279	     119.936036
	 B(7,11,21)       =         2.094869	     120.027154
	 B(8,4,14)        =         2.051713	     117.554491
	 B(8,12,10)       =         2.093251	     119.934430
	 B(8,12,22)       =         2.095074	     120.038894
	 B(9,5,15)        =         2.051711	     117.554389
	 B(9,11,21)       =         2.095038	     120.036809
	 B(10,6,16)       =         2.051748	     117.556477
	 B(10,12,22)      =         2.094861	     120.026675
	 B(11,7,17)       =         2.089542	     119.721959
	 B(11,9,19)       =         2.089443	     119.716256
	 B(12,8,18)       =         2.089407	     119.714227
	 B(12,10,20)      =         2.089533	     119.721395
	 D(1,2,4,8)       =        -3.140674	    -179.947354
	 D(1,2,4,14)      =         0.013464	       0.771419
	 D(1,2,6,10)      =        -3.140710	    -179.949426
	 D(1,2,6,16)      =         0.013742	       0.787381
	 D(1,3,7,11)      =        -0.001888	      -0.108164
	 D(1,3,7,17)      =        -3.140575	    -179.941687
	 D(1,5,9,11)      =        -0.001745	      -0.100007
	 D(1,5,9,19)      =        -3.140458	    -179.934994
	 D(2,1,3,7)       =        -3.140599	    -179.943085
	 D(2,1,3,13)      =         0.013657	       0.782504
	 D(2,1,5,9)       =        -3.140785	    -179.953723
	 D(2,1,5,15)      =         0.013549	       0.776300
	 D(2,4,8,12)      =        -0.001912	      -0.109560
	 D(2,4,8,18)      =        -3.140585	    -179.942283
	 D(2,6,10,12)     =        -0.001722	      -0.098670
	 D(2,6,10,20)     =        -3.140460	    -179.935092
	*D(3,1,2,4)       =        -2.894518	    -165.843642
	*D(3,1,2,6)       =         0.246961	      14.149796
	 D(3,1,5,9)       =         0.000739	       0.042317
	 D(3,1,5,15)      =        -3.128113	    -179.227660
	 D(3,7,11,9)      =         0.000876	       0.050216
	 D(3,7,11,21)     =        -3.140796	    -179.954366
	*D(4,2,1,5)       =         0.247003	      14.152218
	 D(4,2,6,10)      =         0.000773	       0.044297
	 D(4,2,6,16)      =        -3.127960	    -179.218896
	 D(4,8,12,10)     =         0.000960	       0.055014
	 D(4,8,12,22)     =        -3.140573	    -179.941558
	*D(5,1,2,6)       =        -2.894704	    -165.854344
	 D(5,1,3,7)       =         0.001062	       0.060875
	 D(5,1,3,13)      =        -3.127866	    -179.213535
	 D(5,9,11,7)      =         0.000930	       0.053304
	 D(5,9,11,21)     =        -3.140582	    -179.942114
	 D(6,2,4,8)       =         0.001028	       0.058923
	 D(6,2,4,14)      =        -3.128019	    -179.222304
	 D(6,10,12,8)     =         0.000847	       0.048536
	 D(6,10,12,22)    =        -3.140805	    -179.954892
	 D(7,11,9,19)     =         3.139645	     179.888422
	 D(8,12,10,20)    =         3.139587	     179.885077
	 D(9,11,7,17)     =         3.139566	     179.883859
	 D(10,12,8,18)    =         3.139636	     179.887875
	 D(11,7,3,13)     =         3.127510	     179.193106
	 D(11,9,5,15)     =         3.127579	     179.197059
	 D(12,8,4,14)     =         3.127601	     179.198316
	 D(12,10,6,16)    =         3.127487	     179.191805
	 D(13,3,7,17)     =        -0.011177	      -0.640417
	 D(14,4,8,18)     =        -0.011073	      -0.634408
	 D(15,5,9,19)     =        -0.011134	      -0.637928
	 D(16,6,10,20)    =        -0.011251	      -0.644618
	 D(17,7,11,21)    =        -0.002107	      -0.120723
	 D(18,8,12,22)    =        -0.001897	      -0.108697
	 D(19,9,11,21)    =        -0.001867	      -0.106996
	 D(20,10,12,22)   =        -0.002066	      -0.118351

	Current energy   :      -463.1198399321

	Generating empirical Hessian (Schlegel '84) for each fragment.
	Taking RFO optimization step.
	Going to follow RFO solution 1.
	Using RFO vector 1.
	Norm of target step-size    0.20407
	Projected energy change by RFO approximation:        -0.0144336401

	Back-transformation to cartesian coordinates...
	The INTCO_EXCEPTion handler:
	TORS::compute_val: unable to compute torsion value
	Dynamic level is 1.
	exc.g_really_quit() is 0.
	Raising dynamic level to 2. ~
	Removing binary optimization data file.

    Structure for next step:
    Molecular point group: c1
    Full point group: C1

    Geometry (in Angstrom), charge = 0, multiplicity = 1:

    C            0.757324871008     0.050611159259    -0.028127634598
    C           -0.757313128992    -0.050674840741     0.028229365402
    C            1.420423871008     0.876315159259    -1.002988634598
    C           -1.431520128992    -0.621102840741     1.164834365402
    C            1.594564871008    -0.674746840741     0.891028365402
    C           -1.583478128992     0.419623159259    -1.052647634598
    C            2.825882871008     0.962290159259    -1.047430634598
    C           -2.836824128992    -0.711252840741     1.206433365402
    C            2.998438871008    -0.572983840741     0.830739365402
    C           -2.987487128992     0.321969159259    -0.989946634598
    C            3.613063871008     0.241445159259    -0.134443634598
    C           -3.613075128992    -0.241497840741     0.134344365402
    H            0.857684871008     1.464516159259    -1.723144634598
    H           -0.878528128992    -0.987024840741     2.025979365402
    H            1.169959871008    -1.328827840741     1.648016365402
    H           -1.149103128992     0.851377159259    -1.950464634598
    H            3.305935871008     1.594058159259    -1.792974634598
    H           -3.325596128992    -1.145726840741     2.077005365402
    H            3.612150871008    -1.131628840741     1.535549365402
    H           -3.592511128992     0.683311159259    -1.819868634598
    H            4.698416871008     0.313930159259    -0.175008634598
    H           -4.698427128992    -0.313923840741     0.174620365402

gradient() will perform analytic gradient computation.

*** tstart() called on daniele-Precision-5750
*** at Mon May 31 17:23:58 2021

   => Loading Basis Set <=

    Name: 6-311G
    Role: ORBITAL
    Keyword: BASIS
    atoms 1-12  entry C          line    92 file /home/daniele/anaconda3/envs/poltype/share/psi4/basis/6-311g.gbs 
    atoms 13-22 entry H          line    21 file /home/daniele/anaconda3/envs/poltype/share/psi4/basis/6-311g.gbs 


         ---------------------------------------------------------
                                   SCF
               by Justin Turney, Rob Parrish, Andy Simmonett
                          and Daniel G. A. Smith
                              RKS Reference
                        3 Threads,    667 MiB Core
         ---------------------------------------------------------

  ==> Geometry <==

    Molecular point group: c1
    Full point group: C1

    Geometry (in Angstrom), charge = 0, multiplicity = 1:

       Center              X                  Y                   Z               Mass       
    ------------   -----------------  -----------------  -----------------  -----------------
         C            0.757324871008     0.050611159259    -0.028127634598    12.000000000000
         C           -0.757313128992    -0.050674840741     0.028229365402    12.000000000000
         C            1.420423871008     0.876315159259    -1.002988634598    12.000000000000
         C           -1.431520128992    -0.621102840741     1.164834365402    12.000000000000
         C            1.594564871008    -0.674746840741     0.891028365402    12.000000000000
         C           -1.583478128992     0.419623159259    -1.052647634598    12.000000000000
         C            2.825882871008     0.962290159259    -1.047430634598    12.000000000000
         C           -2.836824128992    -0.711252840741     1.206433365402    12.000000000000
         C            2.998438871008    -0.572983840741     0.830739365402    12.000000000000
         C           -2.987487128992     0.321969159259    -0.989946634598    12.000000000000
         C            3.613063871008     0.241445159259    -0.134443634598    12.000000000000
         C           -3.613075128992    -0.241497840741     0.134344365402    12.000000000000
         H            0.857684871008     1.464516159259    -1.723144634598     1.007825032230
         H           -0.878528128992    -0.987024840741     2.025979365402     1.007825032230
         H            1.169959871008    -1.328827840741     1.648016365402     1.007825032230
         H           -1.149103128992     0.851377159259    -1.950464634598     1.007825032230
         H            3.305935871008     1.594058159259    -1.792974634598     1.007825032230
         H           -3.325596128992    -1.145726840741     2.077005365402     1.007825032230
         H            3.612150871008    -1.131628840741     1.535549365402     1.007825032230
         H           -3.592511128992     0.683311159259    -1.819868634598     1.007825032230
         H            4.698416871008     0.313930159259    -0.175008634598     1.007825032230
         H           -4.698427128992    -0.313923840741     0.174620365402     1.007825032230

  Running in c1 symmetry.

  Rotational constants: A =      0.09292  B =      0.01778  C =      0.01499 [cm^-1]
  Rotational constants: A =   2785.73386  B =    532.89780  C =    449.52664 [MHz]
  Nuclear repulsion =  589.874528756749100

  Charge       = 0
  Multiplicity = 1
  Electrons    = 82
  Nalpha       = 41
  Nbeta        = 41

  ==> Algorithm <==

  SCF Algorithm Type is DF.
  DIIS enabled.
  MOM disabled.
  Fractional occupation disabled.
  Guess Type is READ.
  Energy threshold   = 1.00e-08
  Density threshold  = 1.00e-08
  Integral threshold = 0.00e+00

  ==> Primary Basis <==

  Basis Set: 6-311G
    Blend: 6-311G
    Number of shells: 114
    Number of basis function: 186
    Number of Cartesian functions: 186
    Spherical Harmonics?: true
    Max angular momentum: 1

  ==> DFT Potential <==

   => Composite Functional: WB97X-D <= 

    wB97X-D Hyb-GGA Exchange-Correlation Functional

    J.-D. Chai and M. Head-Gordon, Phys. Chem. Chem. Phys. 10, 6615 (2008)

    Deriv               =              1
    GGA                 =           TRUE
    Meta                =          FALSE

    Exchange Hybrid     =           TRUE
    MP2 Hybrid          =          FALSE

   => Exchange-Correlation Functionals <=

    1.0000   wB97D range-separated functional

   => Exact (HF) Exchange <=

    0.7780            HF,LR [omega = 0.2000]
    0.2220               HF 

   => Molecular Quadrature <=

    Radial Scheme          =       TREUTLER
    Pruning Scheme         =           FLAT
    Nuclear Scheme         =       TREUTLER

    BS radius alpha        =              1
    Pruning alpha          =              1
    Radial Points          =             75
    Spherical Points       =            302
    Total Points           =         491184
    Total Blocks           =           3609
    Max Points             =            256
    Max Functions          =            152

   => WB97X-D: Empirical Dispersion <=

    Chai and Head-Gordon Dispersion Correction
    Chai, J.-D.; Head-Gordon, M. (2010), J. Chem. Phys., 132: 6615-6620

        s6 =       1.000000

   => Loading Basis Set <=

    Name: (6-311G AUX)
    Role: JKFIT
    Keyword: DF_BASIS_SCF
    atoms 1-12  entry C          line   125 file /home/daniele/anaconda3/envs/poltype/share/psi4/basis/cc-pvtz-jkfit.gbs 
    atoms 13-22 entry H          line    51 file /home/daniele/anaconda3/envs/poltype/share/psi4/basis/cc-pvtz-jkfit.gbs 

   => Loading Basis Set <=

    Name: 6-311G
    Role: ORBITAL
    Keyword: BASIS
    atoms 1-12  entry C          line    92 file /home/daniele/anaconda3/envs/poltype/share/psi4/basis/6-311g.gbs 
    atoms 13-22 entry H          line    21 file /home/daniele/anaconda3/envs/poltype/share/psi4/basis/6-311g.gbs 

  Reading orbitals from file 180, no projection.

  ==> Pre-Iterations <==

   -------------------------------------------------------
    Irrep   Nso     Nmo     Nalpha   Nbeta   Ndocc  Nsocc
   -------------------------------------------------------
     A        186     186       0       0       0       0
   -------------------------------------------------------
    Total     186     186      41      41      41       0
   -------------------------------------------------------

  ==> Integral Setup <==

  ==> DiskDFJK: Density-Fitted J/K Matrices <==

    J tasked:                  Yes
    K tasked:                  Yes
    wK tasked:                 Yes
    Omega:               2.000E-01
    OpenMP threads:              3
    Integrals threads:           3
    Memory [MiB]:              171
    Algorithm:                Disk
    Integral Cache:           NONE
    Schwarz Cutoff:          1E-12
    Fitting Condition:       1E-10

   => Auxiliary Basis Set <=

  Basis Set: (6-311G AUX)
    Blend: CC-PVTZ-JKFIT
    Number of shells: 400
    Number of basis function: 1248
    Number of Cartesian functions: 1502
    Spherical Harmonics?: true
    Max angular momentum: 4

  Cached 25.0% of DFT collocation blocks in 0.382 [GiB].

  Minimum eigenvalue in the overlap matrix is 2.4458238747E-04.
  Using Symmetric Orthogonalization.

  SCF Guess: Orbitals guess was supplied from a previous computation.

  ==> Iterations <==

                           Total Energy        Delta E     RMS |[F,P]|

   @DF-RKS iter   0:  -463.11983994182759   -4.63120e+02   4.71201e-10 
   @DF-RKS iter   1:  -463.11983994182935   -1.76215e-12   3.74967e-10 DIIS
  Energy and wave function converged.


  ==> Post-Iterations <==

    Orbital Energies [Eh]
    ---------------------

    Doubly Occupied:                                                      

       1A    -10.322322     2A    -10.322099     3A    -10.302004  
       4A    -10.302000     5A    -10.301994     6A    -10.301989  
       7A    -10.299154     8A    -10.299150     9A    -10.299091  
      10A    -10.299089    11A    -10.296893    12A    -10.296892  
      13A     -0.969001    14A     -0.950523    15A     -0.878618  
      16A     -0.855325    17A     -0.847204    18A     -0.823036  
      19A     -0.725929    20A     -0.718226    21A     -0.686703  
      22A     -0.677549    23A     -0.629256    24A     -0.592769  
      25A     -0.569887    26A     -0.557617    27A     -0.534690  
      28A     -0.521561    29A     -0.520977    30A     -0.513072  
      31A     -0.505428    32A     -0.473076    33A     -0.450771  
      34A     -0.447167    35A     -0.443575    36A     -0.425671  
      37A     -0.417648    38A     -0.364354    39A     -0.335068  
      40A     -0.330956    41A     -0.294955  

    Virtual:                                                              

      42A      0.020336    43A      0.049636    44A      0.067390  
      45A      0.098641    46A      0.119850    47A      0.132325  
      48A      0.142292    49A      0.159392    50A      0.166780  
      51A      0.186355    52A      0.187159    53A      0.204275  
      54A      0.205336    55A      0.250395    56A      0.254228  
      57A      0.258760    58A      0.293531    59A      0.308739  
      60A      0.323989    61A      0.333522    62A      0.358912  
      63A      0.363613    64A      0.371171    65A      0.402955  
      66A      0.408355    67A      0.409739    68A      0.425933  
      69A      0.455362    70A      0.456488    71A      0.467547  
      72A      0.468106    73A      0.478406    74A      0.489437  
      75A      0.504842    76A      0.505093    77A      0.513478  
      78A      0.513535    79A      0.520578    80A      0.522770  
      81A      0.542459    82A      0.547665    83A      0.551021  
      84A      0.564096    85A      0.569733    86A      0.579278  
      87A      0.582126    88A      0.597145    89A      0.617603  
      90A      0.650510    91A      0.667441    92A      0.674821  
      93A      0.676517    94A      0.690112    95A      0.695828  
      96A      0.697322    97A      0.700772    98A      0.710574  
      99A      0.722687   100A      0.731676   101A      0.735844  
     102A      0.735984   103A      0.754898   104A      0.781154  
     105A      0.840939   106A      0.845884   107A      0.849760  
     108A      0.850163   109A      0.861200   110A      0.866701  
     111A      0.872274   112A      0.905720   113A      0.908396  
     114A      0.915419   115A      0.949474   116A      0.952194  
     117A      0.997706   118A      1.005400   119A      1.008059  
     120A      1.015450   121A      1.096016   122A      1.096143  
     123A      1.154800   124A      1.172895   125A      1.193521  
     126A      1.216711   127A      1.349854   128A      1.379074  
     129A      2.272067   130A      2.304083   131A      2.311098  
     132A      2.365410   133A      2.367894   134A      2.411121  
     135A      2.451085   136A      2.504166   137A      2.592813  
     138A      2.608678   139A      2.630083   140A      2.630767  
     141A      2.648331   142A      2.659864   143A      2.668929  
     144A      2.706914   145A      2.759355   146A      2.800256  
     147A      2.812085   148A      2.822410   149A      2.825349  
     150A      2.839288   151A      2.859605   152A      2.882642  
     153A      2.957701   154A      2.958741   155A      2.979056  
     156A      2.988199   157A      2.995335   158A      3.043901  
     159A      3.071734   160A      3.146457   161A      3.171963  
     162A      3.224163   163A      3.233090   164A      3.248733  
     165A      3.264584   166A      3.290222   167A      3.320961  
     168A      3.333676   169A      3.342893   170A      3.344497  
     171A      3.377313   172A      3.435855   173A      3.459151  
     174A      3.618465   175A     23.212779   176A     23.311720  
     177A     23.454313   178A     23.463738   179A     23.483454  
     180A     23.535649   181A     23.689418   182A     23.754771  
     183A     23.756037   184A     23.758555   185A     23.967271  
     186A     23.975919  

    Final Occupation by Irrep:
              A 
    DOCC [    41 ]

  @DF-RKS Final Energy:  -463.11983994182935

   => Energetics <=

    Nuclear Repulsion Energy =            589.8745287567491005
    One-Electron Energy =               -1792.6154158086760617
    Two-Electron Energy =                 786.7254620404706884
    DFT Exchange-Correlation Energy =     -47.0925795169883870
    Empirical Dispersion Energy =          -0.0118354133845866
    VV10 Nonlocal Energy =                  0.0000000000000000
    Total Energy =                       -463.1198399418293548

Computation Completed


Properties will be evaluated at   0.000000,   0.000000,   0.000000 [a0]

Properties computed using the SCF density matrix

  Nuclear Dipole Moment: [e a0]
     X:    -0.0000      Y:     0.0001      Z:    -0.0003

  Electronic Dipole Moment: [e a0]
     X:     0.0000      Y:    -0.0001      Z:     0.0002

  Dipole Moment: [e a0]
     X:     0.0000      Y:    -0.0000      Z:    -0.0001     Total:     0.0001

  Dipole Moment: [D]
     X:     0.0000      Y:    -0.0000      Z:    -0.0002     Total:     0.0002


*** tstop() called on daniele-Precision-5750 at Mon May 31 17:24:07 2021
Module time:
	user time   =      26.76 seconds =       0.45 minutes
	system time =       0.92 seconds =       0.02 minutes
	total time  =          9 seconds =       0.15 minutes
Total time:
	user time   =     145.78 seconds =       2.43 minutes
	system time =       4.93 seconds =       0.08 minutes
	total time  =         51 seconds =       0.85 minutes

*** tstart() called on daniele-Precision-5750
*** at Mon May 31 17:24:07 2021


         ------------------------------------------------------------
                                   SCF GRAD                          
                          Rob Parrish, Justin Turney,                
                       Andy Simmonett, and Alex Sokolov              
         ------------------------------------------------------------

  ==> Geometry <==

    Molecular point group: c1
    Full point group: C1

    Geometry (in Angstrom), charge = 0, multiplicity = 1:

       Center              X                  Y                   Z               Mass       
    ------------   -----------------  -----------------  -----------------  -----------------
         C            0.757324871008     0.050611159259    -0.028127634598    12.000000000000
         C           -0.757313128992    -0.050674840741     0.028229365402    12.000000000000
         C            1.420423871008     0.876315159259    -1.002988634598    12.000000000000
         C           -1.431520128992    -0.621102840741     1.164834365402    12.000000000000
         C            1.594564871008    -0.674746840741     0.891028365402    12.000000000000
         C           -1.583478128992     0.419623159259    -1.052647634598    12.000000000000
         C            2.825882871008     0.962290159259    -1.047430634598    12.000000000000
         C           -2.836824128992    -0.711252840741     1.206433365402    12.000000000000
         C            2.998438871008    -0.572983840741     0.830739365402    12.000000000000
         C           -2.987487128992     0.321969159259    -0.989946634598    12.000000000000
         C            3.613063871008     0.241445159259    -0.134443634598    12.000000000000
         C           -3.613075128992    -0.241497840741     0.134344365402    12.000000000000
         H            0.857684871008     1.464516159259    -1.723144634598     1.007825032230
         H           -0.878528128992    -0.987024840741     2.025979365402     1.007825032230
         H            1.169959871008    -1.328827840741     1.648016365402     1.007825032230
         H           -1.149103128992     0.851377159259    -1.950464634598     1.007825032230
         H            3.305935871008     1.594058159259    -1.792974634598     1.007825032230
         H           -3.325596128992    -1.145726840741     2.077005365402     1.007825032230
         H            3.612150871008    -1.131628840741     1.535549365402     1.007825032230
         H           -3.592511128992     0.683311159259    -1.819868634598     1.007825032230
         H            4.698416871008     0.313930159259    -0.175008634598     1.007825032230
         H           -4.698427128992    -0.313923840741     0.174620365402     1.007825032230

  Nuclear repulsion =  589.874528756749100

  ==> Basis Set <==

  Basis Set: 6-311G
    Blend: 6-311G
    Number of shells: 114
    Number of basis function: 186
    Number of Cartesian functions: 186
    Spherical Harmonics?: true
    Max angular momentum: 1

  ==> DFJKGrad: Density-Fitted SCF Gradients <==

    Gradient:                    1
    J tasked:                  Yes
    K tasked:                  Yes
    wK tasked:                 Yes
    Omega:               2.000E-01
    OpenMP threads:              3
    Integrals threads:           3
    Memory [MiB]:              500
    Schwarz Cutoff:          0E+00
    Fitting Condition:       1E-10

   => Auxiliary Basis Set <=

  Basis Set: (6-311G AUX)
    Blend: CC-PVTZ-JKFIT
    Number of shells: 400
    Number of basis function: 1248
    Number of Cartesian functions: 1502
    Spherical Harmonics?: true
    Max angular momentum: 4

  ==> DFT Potential <==

   => Composite Functional: WB97X-D <= 

    wB97X-D Hyb-GGA Exchange-Correlation Functional

    J.-D. Chai and M. Head-Gordon, Phys. Chem. Chem. Phys. 10, 6615 (2008)

    Deriv               =              1
    GGA                 =           TRUE
    Meta                =          FALSE

    Exchange Hybrid     =           TRUE
    MP2 Hybrid          =          FALSE

   => Exchange-Correlation Functionals <=

    1.0000   wB97D range-separated functional

   => Exact (HF) Exchange <=

    0.7780            HF,LR [omega = 0.2000]
    0.2220               HF 

   => Molecular Quadrature <=

    Radial Scheme          =       TREUTLER
    Pruning Scheme         =           FLAT
    Nuclear Scheme         =       TREUTLER

    BS radius alpha        =              1
    Pruning alpha          =              1
    Radial Points          =             75
    Spherical Points       =            302
    Total Points           =         491184
    Total Blocks           =           3609
    Max Points             =            256
    Max Functions          =            152


  -Total Gradient:
     Atom            X                  Y                   Z
    ------   -----------------  -----------------  -----------------
       1       -0.012339524949    -0.000804239514     0.000413642977
       2        0.012345722170     0.000789190017    -0.000433286110
       3       -0.001943348308     0.012211602946    -0.015614154510
       4        0.001802467138    -0.008789654056     0.017800239381
       5        0.000801113537    -0.012327324299     0.015728664584
       6       -0.000691117643     0.008918842343    -0.017871579634
       7        0.007444816831     0.006113786499    -0.006831108668
       8       -0.007510311898    -0.003994780107     0.008073436351
       9        0.008694898999    -0.005001832316     0.006177810074
      10       -0.008593794597     0.002947643799    -0.007567852397
      11        0.005393341002     0.000334795786    -0.000157593016
      12       -0.005408570360    -0.000393543319     0.000262442363
      13        0.000467270922     0.003042278615    -0.004391604543
      14       -0.000488758571    -0.002707451098     0.004604821494
      15        0.001215719335    -0.002905810206     0.004307043920
      16       -0.001190904336     0.002577433171    -0.004519593232
      17        0.002988624980     0.002534641998    -0.003084753210
      18       -0.003046694667    -0.001908302809     0.003517537770
      19        0.003537645697    -0.002104829858     0.002849530005
      20       -0.003486379779     0.001454794858    -0.003243378317
      21        0.004668586604     0.000314468736    -0.000184737593
      22       -0.004660770194    -0.000301710719     0.000164730263


*** tstop() called on daniele-Precision-5750 at Mon May 31 17:24:21 2021
Module time:
	user time   =      41.05 seconds =       0.68 minutes
	system time =       0.48 seconds =       0.01 minutes
	total time  =         14 seconds =       0.23 minutes
Total time:
	user time   =     186.84 seconds =       3.11 minutes
	system time =       5.41 seconds =       0.09 minutes
	total time  =         65 seconds =       1.08 minutes

			-----------------------------------------
			 OPTKING 2.0: for geometry optimizations 
			  - R.A. King,  Bethel University        
			-----------------------------------------
	At level 2: Red. Int., RFO, backsteps, smaller trust.

	Internal coordinates to be generated automatically.
	Detected frag 1 with atoms:  1 2 3 4 5 6 7 8 9 10 11 12 13 14 15 16 17 18 19 20
	 21 22
	---Fragment 1 Bond Connectivity---
	 1 : 2 3 5
	 2 : 1 4 6
	 3 : 1 7 13
	 4 : 2 8 14
	 5 : 1 9 15
	 6 : 2 10 16
	 7 : 3 11 17
	 8 : 4 12 18
	 9 : 5 11 19
	 10 : 6 12 20
	 11 : 7 9 21
	 12 : 8 10 22
	 13 : 3
	 14 : 4
	 15 : 5
	 16 : 6
	 17 : 7
	 18 : 8
	 19 : 9
	 20 : 10
	 21 : 11
	 22 : 12

	Assuming in current code that numbering for constraints corresponds to unified fragment.
	Frozen dihedral atom list: 
	     3     1     2     4
	     3     1     2     6
	     5     1     2     4
	     5     1     2     6
	---Fragment 1 Geometry and Gradient---
	 C           1.4311365942        0.0956412299       -0.0531535259
	 C          -1.4311144050       -0.0957615705        0.0533457693
	 C           2.6842120983        1.6559956506       -1.8953738263
	 C          -2.7051809869       -1.1737142647        2.2012179321
	 C           3.0132908955       -1.2750867330        1.6837995806
	 C          -2.9923399894        0.7929728469       -1.9892157360
	 C           5.3401446888        1.8184648542       -1.9793570348
	 C          -5.3608206699       -1.3440730750        2.2798286492
	 C           5.6662282701       -1.0827825333        1.5698698822
	 C          -5.6455324771        0.6084335318       -1.8707280182
	 C           6.8277011900        0.4562652253       -0.2540616487
	 C          -6.8277224645       -0.4563647789        0.2538740571
	 H           1.6207895082        2.7675344473       -3.2562714339
	 H          -1.6601775573       -1.8652066280        3.8285461364
	 H           2.2109037340       -2.5111206869        3.1142995809
	 H          -2.1714902037        1.6088696605       -3.6858439768
	 H           6.2473133845        3.0123333491       -3.3882310093
	 H          -6.2844658877       -2.1651099436        3.9249713017
	 H           6.8259758700       -2.1384685847        2.9017677527
	 H          -6.7888621365        1.2912709495       -3.4390533037
	 H           8.8787211094        0.5932420235       -0.3307183890
	 H          -8.8787404942       -0.5932300833        0.3299846665
	            -0.0123395249       -0.0008042395        0.0004136430
	             0.0123457222        0.0007891900       -0.0004332861
	            -0.0019433483        0.0122116029       -0.0156141545
	             0.0018024671       -0.0087896541        0.0178002394
	             0.0008011135       -0.0123273243        0.0157286646
	            -0.0006911176        0.0089188423       -0.0178715796
	             0.0074448168        0.0061137865       -0.0068311087
	            -0.0075103119       -0.0039947801        0.0080734364
	             0.0086948990       -0.0050018323        0.0061778101
	            -0.0085937946        0.0029476438       -0.0075678524
	             0.0053933410        0.0003347958       -0.0001575930
	            -0.0054085704       -0.0003935433        0.0002624424
	             0.0004672709        0.0030422786       -0.0043916045
	            -0.0004887586       -0.0027074511        0.0046048215
	             0.0012157193       -0.0029058102        0.0043070439
	            -0.0011909043        0.0025774332       -0.0045195932
	             0.0029886250        0.0025346420       -0.0030847532
	            -0.0030466947       -0.0019083028        0.0035175378
	             0.0035376457       -0.0021048299        0.0028495300
	            -0.0034863798        0.0014547949       -0.0032433783
	             0.0046685866        0.0003144687       -0.0001847376
	            -0.0046607702       -0.0003017107        0.0001647303

	Previous optimization step data not found.  Starting new optimization.

	---Fragment 1 Intrafragment Coordinates---
	 - Coordinate -           - BOHR/RAD -       - ANG/DEG -
	 R(1,2)           =         2.870620	       1.519067
	 R(1,3)           =         2.720051	       1.439389
	 R(1,5)           =         2.720131	       1.439431
	 R(2,4)           =         2.720034	       1.439380
	 R(2,6)           =         2.720171	       1.439453
	 R(3,7)           =         2.662222	       1.408787
	 R(3,13)          =         2.053881	       1.086867
	 R(4,8)           =         2.662259	       1.408807
	 R(4,14)          =         2.053872	       1.086862
	 R(5,9)           =         2.662337	       1.408848
	 R(5,15)          =         2.053761	       1.086804
	 R(6,10)          =         2.662240	       1.408797
	 R(6,16)          =         2.053784	       1.086816
	 R(7,11)          =         2.654253	       1.404570
	 R(7,17)          =         2.057475	       1.088769
	 R(8,12)          =         2.654114	       1.404496
	 R(8,18)          =         2.057600	       1.088835
	 R(9,11)          =         2.654131	       1.404506
	 R(9,19)          =         2.057532	       1.088799
	 R(10,12)         =         2.654299	       1.404594
	 R(10,20)         =         2.057453	       1.088757
	 R(11,21)         =         2.057018	       1.088527
	 R(12,22)         =         2.056988	       1.088511
	 B(1,2,4)         =         2.120876	     121.517252
	 B(1,2,6)         =         2.120727	     121.508704
	 B(1,3,7)         =         2.112932	     121.062069
	 B(1,3,13)        =         2.118455	     121.378540
	 B(1,5,9)         =         2.112817	     121.055507
	 B(1,5,15)        =         2.118590	     121.386268
	 B(2,1,3)         =         2.120827	     121.514435
	 B(2,1,5)         =         2.120765	     121.510904
	 B(2,4,8)         =         2.112869	     121.058466
	 B(2,4,14)        =         2.118539	     121.383324
	 B(2,6,10)        =         2.112885	     121.059370
	 B(2,6,16)        =         2.118485	     121.380246
	 B(3,1,5)         =         2.041593	     116.974661
	 B(3,7,11)        =         2.102837	     120.483681
	 B(3,7,17)        =         2.090802	     119.794151
	 B(4,2,6)         =         2.041582	     116.974044
	 B(4,8,12)        =         2.102931	     120.489058
	 B(4,8,18)        =         2.090843	     119.796505
	 B(5,9,11)        =         2.102911	     120.487925
	 B(5,9,19)        =         2.090828	     119.795615
	 B(6,10,12)       =         2.102851	     120.484512
	 B(6,10,20)       =         2.090798	     119.793892
	 B(7,3,13)        =         2.051732	     117.555601
	 B(7,11,9)        =         2.093279	     119.936036
	 B(7,11,21)       =         2.094869	     120.027154
	 B(8,4,14)        =         2.051713	     117.554491
	 B(8,12,10)       =         2.093251	     119.934430
	 B(8,12,22)       =         2.095074	     120.038894
	 B(9,5,15)        =         2.051711	     117.554389
	 B(9,11,21)       =         2.095038	     120.036809
	 B(10,6,16)       =         2.051748	     117.556477
	 B(10,12,22)      =         2.094861	     120.026675
	 B(11,7,17)       =         2.089542	     119.721959
	 B(11,9,19)       =         2.089443	     119.716256
	 B(12,8,18)       =         2.089407	     119.714227
	 B(12,10,20)      =         2.089533	     119.721395
	 D(1,2,4,8)       =        -3.140674	    -179.947354
	 D(1,2,4,14)      =         0.013464	       0.771419
	 D(1,2,6,10)      =        -3.140710	    -179.949426
	 D(1,2,6,16)      =         0.013742	       0.787381
	 D(1,3,7,11)      =        -0.001888	      -0.108164
	 D(1,3,7,17)      =        -3.140575	    -179.941687
	 D(1,5,9,11)      =        -0.001745	      -0.100007
	 D(1,5,9,19)      =        -3.140458	    -179.934994
	 D(2,1,3,7)       =        -3.140599	    -179.943085
	 D(2,1,3,13)      =         0.013657	       0.782504
	 D(2,1,5,9)       =        -3.140785	    -179.953723
	 D(2,1,5,15)      =         0.013549	       0.776300
	 D(2,4,8,12)      =        -0.001912	      -0.109560
	 D(2,4,8,18)      =        -3.140585	    -179.942283
	 D(2,6,10,12)     =        -0.001722	      -0.098670
	 D(2,6,10,20)     =        -3.140460	    -179.935092
	*D(3,1,2,4)       =        -2.894518	    -165.843642
	*D(3,1,2,6)       =         0.246961	      14.149796
	 D(3,1,5,9)       =         0.000739	       0.042317
	 D(3,1,5,15)      =        -3.128113	    -179.227660
	 D(3,7,11,9)      =         0.000876	       0.050216
	 D(3,7,11,21)     =        -3.140796	    -179.954366
	*D(4,2,1,5)       =         0.247003	      14.152218
	 D(4,2,6,10)      =         0.000773	       0.044297
	 D(4,2,6,16)      =        -3.127960	    -179.218896
	 D(4,8,12,10)     =         0.000960	       0.055014
	 D(4,8,12,22)     =        -3.140573	    -179.941558
	*D(5,1,2,6)       =        -2.894704	    -165.854344
	 D(5,1,3,7)       =         0.001062	       0.060875
	 D(5,1,3,13)      =        -3.127866	    -179.213535
	 D(5,9,11,7)      =         0.000930	       0.053304
	 D(5,9,11,21)     =        -3.140582	    -179.942114
	 D(6,2,4,8)       =         0.001028	       0.058923
	 D(6,2,4,14)      =        -3.128019	    -179.222304
	 D(6,10,12,8)     =         0.000847	       0.048536
	 D(6,10,12,22)    =        -3.140805	    -179.954892
	 D(7,11,9,19)     =         3.139645	     179.888422
	 D(8,12,10,20)    =         3.139587	     179.885077
	 D(9,11,7,17)     =         3.139566	     179.883859
	 D(10,12,8,18)    =         3.139636	     179.887875
	 D(11,7,3,13)     =         3.127510	     179.193106
	 D(11,9,5,15)     =         3.127579	     179.197059
	 D(12,8,4,14)     =         3.127601	     179.198316
	 D(12,10,6,16)    =         3.127487	     179.191805
	 D(13,3,7,17)     =        -0.011177	      -0.640417
	 D(14,4,8,18)     =        -0.011073	      -0.634408
	 D(15,5,9,19)     =        -0.011134	      -0.637928
	 D(16,6,10,20)    =        -0.011251	      -0.644618
	 D(17,7,11,21)    =        -0.002107	      -0.120723
	 D(18,8,12,22)    =        -0.001897	      -0.108697
	 D(19,9,11,21)    =        -0.001867	      -0.106996
	 D(20,10,12,22)   =        -0.002066	      -0.118351

	Current energy   :      -463.1198399418

	Generating empirical Hessian (Schlegel '84) for each fragment.
	Taking RFO optimization step.
	Going to follow RFO solution 1.
	Using RFO vector 1.

	Determining step-restricting scale parameter for RS-RFO.
	Maximum step size allowed    0.20000

	 Iter      |step|        alpha        rfo_root  
	------------------------------------------------
	    0     0.20407       1.00000           1
	    1     0.20031       1.37989           1
	    2     0.20000       1.41289           1
	------------------------------------------------
	Norm of target step-size    0.20000
	Projected energy change by RFO approximation:        -0.0152170406

	Back-transformation to cartesian coordinates...
	The INTCO_EXCEPTion handler:
	TORS::compute_val: unable to compute torsion value
	Dynamic level is 2.
	exc.g_really_quit() is 0.
	Raising dynamic level to 3. ~
	Removing binary optimization data file.

    Structure for next step:
    Molecular point group: c1
    Full point group: C1

    Geometry (in Angstrom), charge = 0, multiplicity = 1:

    C            0.757324871008     0.050611159259    -0.028127634598
    C           -0.757313128992    -0.050674840741     0.028229365402
    C            1.420423871008     0.876315159259    -1.002988634598
    C           -1.431520128992    -0.621102840741     1.164834365402
    C            1.594564871008    -0.674746840741     0.891028365402
    C           -1.583478128992     0.419623159259    -1.052647634598
    C            2.825882871008     0.962290159259    -1.047430634598
    C           -2.836824128992    -0.711252840741     1.206433365402
    C            2.998438871008    -0.572983840741     0.830739365402
    C           -2.987487128992     0.321969159259    -0.989946634598
    C            3.613063871008     0.241445159259    -0.134443634598
    C           -3.613075128992    -0.241497840741     0.134344365402
    H            0.857684871008     1.464516159259    -1.723144634598
    H           -0.878528128992    -0.987024840741     2.025979365402
    H            1.169959871008    -1.328827840741     1.648016365402
    H           -1.149103128992     0.851377159259    -1.950464634598
    H            3.305935871008     1.594058159259    -1.792974634598
    H           -3.325596128992    -1.145726840741     2.077005365402
    H            3.612150871008    -1.131628840741     1.535549365402
    H           -3.592511128992     0.683311159259    -1.819868634598
    H            4.698416871008     0.313930159259    -0.175008634598
    H           -4.698427128992    -0.313923840741     0.174620365402

gradient() will perform analytic gradient computation.

*** tstart() called on daniele-Precision-5750
*** at Mon May 31 17:24:21 2021

   => Loading Basis Set <=

    Name: 6-311G
    Role: ORBITAL
    Keyword: BASIS
    atoms 1-12  entry C          line    92 file /home/daniele/anaconda3/envs/poltype/share/psi4/basis/6-311g.gbs 
    atoms 13-22 entry H          line    21 file /home/daniele/anaconda3/envs/poltype/share/psi4/basis/6-311g.gbs 


         ---------------------------------------------------------
                                   SCF
               by Justin Turney, Rob Parrish, Andy Simmonett
                          and Daniel G. A. Smith
                              RKS Reference
                        3 Threads,    667 MiB Core
         ---------------------------------------------------------

  ==> Geometry <==

    Molecular point group: c1
    Full point group: C1

    Geometry (in Angstrom), charge = 0, multiplicity = 1:

       Center              X                  Y                   Z               Mass       
    ------------   -----------------  -----------------  -----------------  -----------------
         C            0.757324871008     0.050611159259    -0.028127634598    12.000000000000
         C           -0.757313128992    -0.050674840741     0.028229365402    12.000000000000
         C            1.420423871008     0.876315159259    -1.002988634598    12.000000000000
         C           -1.431520128992    -0.621102840741     1.164834365402    12.000000000000
         C            1.594564871008    -0.674746840741     0.891028365402    12.000000000000
         C           -1.583478128992     0.419623159259    -1.052647634598    12.000000000000
         C            2.825882871008     0.962290159259    -1.047430634598    12.000000000000
         C           -2.836824128992    -0.711252840741     1.206433365402    12.000000000000
         C            2.998438871008    -0.572983840741     0.830739365402    12.000000000000
         C           -2.987487128992     0.321969159259    -0.989946634598    12.000000000000
         C            3.613063871008     0.241445159259    -0.134443634598    12.000000000000
         C           -3.613075128992    -0.241497840741     0.134344365402    12.000000000000
         H            0.857684871008     1.464516159259    -1.723144634598     1.007825032230
         H           -0.878528128992    -0.987024840741     2.025979365402     1.007825032230
         H            1.169959871008    -1.328827840741     1.648016365402     1.007825032230
         H           -1.149103128992     0.851377159259    -1.950464634598     1.007825032230
         H            3.305935871008     1.594058159259    -1.792974634598     1.007825032230
         H           -3.325596128992    -1.145726840741     2.077005365402     1.007825032230
         H            3.612150871008    -1.131628840741     1.535549365402     1.007825032230
         H           -3.592511128992     0.683311159259    -1.819868634598     1.007825032230
         H            4.698416871008     0.313930159259    -0.175008634598     1.007825032230
         H           -4.698427128992    -0.313923840741     0.174620365402     1.007825032230

  Running in c1 symmetry.

  Rotational constants: A =      0.09292  B =      0.01778  C =      0.01499 [cm^-1]
  Rotational constants: A =   2785.73386  B =    532.89780  C =    449.52664 [MHz]
  Nuclear repulsion =  589.874528756749100

  Charge       = 0
  Multiplicity = 1
  Electrons    = 82
  Nalpha       = 41
  Nbeta        = 41

  ==> Algorithm <==

  SCF Algorithm Type is DF.
  DIIS enabled.
  MOM disabled.
  Fractional occupation disabled.
  Guess Type is READ.
  Energy threshold   = 1.00e-08
  Density threshold  = 1.00e-08
  Integral threshold = 0.00e+00

  ==> Primary Basis <==

  Basis Set: 6-311G
    Blend: 6-311G
    Number of shells: 114
    Number of basis function: 186
    Number of Cartesian functions: 186
    Spherical Harmonics?: true
    Max angular momentum: 1

  ==> DFT Potential <==

   => Composite Functional: WB97X-D <= 

    wB97X-D Hyb-GGA Exchange-Correlation Functional

    J.-D. Chai and M. Head-Gordon, Phys. Chem. Chem. Phys. 10, 6615 (2008)

    Deriv               =              1
    GGA                 =           TRUE
    Meta                =          FALSE

    Exchange Hybrid     =           TRUE
    MP2 Hybrid          =          FALSE

   => Exchange-Correlation Functionals <=

    1.0000   wB97D range-separated functional

   => Exact (HF) Exchange <=

    0.7780            HF,LR [omega = 0.2000]
    0.2220               HF 

   => Molecular Quadrature <=

    Radial Scheme          =       TREUTLER
    Pruning Scheme         =           FLAT
    Nuclear Scheme         =       TREUTLER

    BS radius alpha        =              1
    Pruning alpha          =              1
    Radial Points          =             75
    Spherical Points       =            302
    Total Points           =         491184
    Total Blocks           =           3609
    Max Points             =            256
    Max Functions          =            152

   => WB97X-D: Empirical Dispersion <=

    Chai and Head-Gordon Dispersion Correction
    Chai, J.-D.; Head-Gordon, M. (2010), J. Chem. Phys., 132: 6615-6620

        s6 =       1.000000

   => Loading Basis Set <=

    Name: (6-311G AUX)
    Role: JKFIT
    Keyword: DF_BASIS_SCF
    atoms 1-12  entry C          line   125 file /home/daniele/anaconda3/envs/poltype/share/psi4/basis/cc-pvtz-jkfit.gbs 
    atoms 13-22 entry H          line    51 file /home/daniele/anaconda3/envs/poltype/share/psi4/basis/cc-pvtz-jkfit.gbs 

   => Loading Basis Set <=

    Name: 6-311G
    Role: ORBITAL
    Keyword: BASIS
    atoms 1-12  entry C          line    92 file /home/daniele/anaconda3/envs/poltype/share/psi4/basis/6-311g.gbs 
    atoms 13-22 entry H          line    21 file /home/daniele/anaconda3/envs/poltype/share/psi4/basis/6-311g.gbs 

  Reading orbitals from file 180, no projection.

  ==> Pre-Iterations <==

   -------------------------------------------------------
    Irrep   Nso     Nmo     Nalpha   Nbeta   Ndocc  Nsocc
   -------------------------------------------------------
     A        186     186       0       0       0       0
   -------------------------------------------------------
    Total     186     186      41      41      41       0
   -------------------------------------------------------

  ==> Integral Setup <==

  ==> DiskDFJK: Density-Fitted J/K Matrices <==

    J tasked:                  Yes
    K tasked:                  Yes
    wK tasked:                 Yes
    Omega:               2.000E-01
    OpenMP threads:              3
    Integrals threads:           3
    Memory [MiB]:              171
    Algorithm:                Disk
    Integral Cache:           NONE
    Schwarz Cutoff:          1E-12
    Fitting Condition:       1E-10

   => Auxiliary Basis Set <=

  Basis Set: (6-311G AUX)
    Blend: CC-PVTZ-JKFIT
    Number of shells: 400
    Number of basis function: 1248
    Number of Cartesian functions: 1502
    Spherical Harmonics?: true
    Max angular momentum: 4

  Cached 25.0% of DFT collocation blocks in 0.382 [GiB].

  Minimum eigenvalue in the overlap matrix is 2.4458238747E-04.
  Using Symmetric Orthogonalization.

  SCF Guess: Orbitals guess was supplied from a previous computation.

  ==> Iterations <==

                           Total Energy        Delta E     RMS |[F,P]|

   @DF-RKS iter   0:  -463.11983993939049   -4.63120e+02   4.60994e-10 
   @DF-RKS iter   1:  -463.11983993938998    5.11591e-13   5.46373e-10 DIIS
  Energy and wave function converged.


  ==> Post-Iterations <==

    Orbital Energies [Eh]
    ---------------------

    Doubly Occupied:                                                      

       1A    -10.322322     2A    -10.322099     3A    -10.302004  
       4A    -10.302000     5A    -10.301994     6A    -10.301989  
       7A    -10.299154     8A    -10.299150     9A    -10.299091  
      10A    -10.299089    11A    -10.296893    12A    -10.296892  
      13A     -0.969001    14A     -0.950523    15A     -0.878618  
      16A     -0.855325    17A     -0.847204    18A     -0.823036  
      19A     -0.725929    20A     -0.718226    21A     -0.686703  
      22A     -0.677549    23A     -0.629256    24A     -0.592769  
      25A     -0.569887    26A     -0.557617    27A     -0.534690  
      28A     -0.521561    29A     -0.520977    30A     -0.513072  
      31A     -0.505428    32A     -0.473076    33A     -0.450771  
      34A     -0.447167    35A     -0.443575    36A     -0.425671  
      37A     -0.417648    38A     -0.364354    39A     -0.335068  
      40A     -0.330956    41A     -0.294955  

    Virtual:                                                              

      42A      0.020336    43A      0.049636    44A      0.067390  
      45A      0.098641    46A      0.119850    47A      0.132325  
      48A      0.142292    49A      0.159392    50A      0.166780  
      51A      0.186355    52A      0.187159    53A      0.204275  
      54A      0.205336    55A      0.250395    56A      0.254228  
      57A      0.258760    58A      0.293531    59A      0.308739  
      60A      0.323989    61A      0.333522    62A      0.358912  
      63A      0.363613    64A      0.371171    65A      0.402955  
      66A      0.408355    67A      0.409739    68A      0.425933  
      69A      0.455362    70A      0.456488    71A      0.467547  
      72A      0.468106    73A      0.478406    74A      0.489437  
      75A      0.504842    76A      0.505093    77A      0.513478  
      78A      0.513535    79A      0.520578    80A      0.522770  
      81A      0.542459    82A      0.547665    83A      0.551021  
      84A      0.564096    85A      0.569733    86A      0.579278  
      87A      0.582126    88A      0.597145    89A      0.617603  
      90A      0.650510    91A      0.667441    92A      0.674821  
      93A      0.676517    94A      0.690112    95A      0.695828  
      96A      0.697322    97A      0.700772    98A      0.710574  
      99A      0.722687   100A      0.731676   101A      0.735844  
     102A      0.735984   103A      0.754898   104A      0.781154  
     105A      0.840939   106A      0.845884   107A      0.849760  
     108A      0.850163   109A      0.861200   110A      0.866701  
[...]

	Back-transformation to cartesian coordinates to adjust frozen coordinates...
	Successfully converged to displaced geometry.

	--- Internal Coordinate Step in ANG or DEG, aJ/ANG or AJ/DEG ---
	 ---------------------------------------------------------------------------
	   Coordinate                Previous        Force       Change         New 
	   ----------                --------       ------       ------       ------
	    1 R(1,2)          =      1.493101     0.004669     0.000004     1.493105
	    2 R(1,3)          =      1.403765    -0.000719    -0.000106     1.403659
	    3 R(1,5)          =      1.403765    -0.000723    -0.000107     1.403658
	    4 R(2,4)          =      1.403766    -0.000721    -0.000107     1.403658
	    5 R(2,6)          =      1.403765    -0.000722    -0.000106     1.403659
	    6 R(3,7)          =      1.391249     0.000685    -0.000009     1.391240
	    7 R(3,13)         =      1.079750     0.001433     0.000546     1.080296
	    8 R(4,8)          =      1.391253     0.000690    -0.000008     1.391245
	    9 R(4,14)         =      1.079752     0.001434     0.000547     1.080299
	   10 R(5,9)          =      1.391254     0.000684    -0.000009     1.391245
	   11 R(5,15)         =      1.079751     0.001439     0.000547     1.080298
	   12 R(6,10)         =      1.391249     0.000682    -0.000010     1.391239
	   13 R(6,16)         =      1.079749     0.001437     0.000547     1.080296
	   14 R(7,11)         =      1.392118     0.000088     0.000279     1.392397
	   15 R(7,17)         =      1.081162     0.001263     0.000451     1.081613
	   16 R(8,12)         =      1.392119     0.000088     0.000278     1.392397
	   17 R(8,18)         =      1.081164     0.001258     0.000451     1.081614
	   18 R(9,11)         =      1.392118     0.000092     0.000279     1.392397
	   19 R(9,19)         =      1.081163     0.001261     0.000451     1.081614
	   20 R(10,12)        =      1.392117     0.000090     0.000280     1.392397
	   21 R(10,20)        =      1.081162     0.001264     0.000452     1.081613
	   22 R(11,21)        =      1.081587     0.000059    -0.000095     1.081492
	   23 R(12,22)        =      1.081586     0.000060    -0.000095     1.081492
	   24 B(1,2,4)        =    121.445672    -0.000011    -0.089802   121.355870
	   25 B(1,2,6)        =    121.441784    -0.000011    -0.089400   121.352383
	   26 B(1,3,7)        =    121.499418    -0.000010    -0.089579   121.409839
	   27 B(1,3,13)       =    120.246691     0.000008    -0.004028   120.242663
	   28 B(1,5,9)        =    121.498856    -0.000010    -0.089627   121.409229
	   29 B(1,5,15)       =    120.246647     0.000008    -0.003763   120.242883
	   30 B(2,1,3)        =    121.442368    -0.000011    -0.089447   121.352921
	   31 B(2,1,5)        =    121.445097    -0.000011    -0.089771   121.355326
	   32 B(2,4,8)        =    121.498757    -0.000010    -0.089618   121.409138
	   33 B(2,4,14)       =    120.246908     0.000008    -0.003792   120.243115
	   34 B(2,6,10)       =    121.499513    -0.000010    -0.089577   121.409936
	   35 B(2,6,16)       =    120.246433     0.000008    -0.004001   120.242432
	   36 B(3,1,5)        =    117.112535     0.000022     0.179218   117.291752
	   37 B(3,7,11)       =    120.486080    -0.000009    -0.065853   120.420226
	   38 B(3,7,17)       =    119.460099     0.000001    -0.031952   119.428147
	   39 B(4,2,6)        =    117.112544     0.000022     0.179202   117.291747
	   40 B(4,8,12)       =    120.486492    -0.000009    -0.065810   120.420682
	   41 B(4,8,18)       =    119.460108     0.000001    -0.031737   119.428371
	   42 B(5,9,11)       =    120.486396    -0.000009    -0.065806   120.420590
	   43 B(5,9,19)       =    119.460038     0.000001    -0.031688   119.428349
	   44 B(6,10,12)      =    120.485963    -0.000009    -0.065822   120.420142
	   45 B(6,10,20)      =    119.459987     0.000001    -0.031898   119.428089
	   46 B(7,3,13)       =    118.242257     0.000002     0.091457   118.333714
	   47 B(7,11,9)       =    118.916398     0.000017     0.131672   119.048071
	   48 B(7,11,21)      =    120.541963    -0.000008    -0.066028   120.475935
	   49 B(8,4,14)       =    118.242693     0.000002     0.091268   118.333961
	   50 B(8,12,10)      =    118.916413     0.000017     0.131649   119.048062
	   51 B(8,12,22)      =    120.541645    -0.000008    -0.065652   120.475993
	   52 B(9,5,15)       =    118.242785     0.000002     0.091243   118.334028
	   53 B(9,11,21)      =    120.541639    -0.000008    -0.065645   120.475994
	   54 B(10,6,16)      =    118.242350     0.000002     0.091423   118.333773
	   55 B(10,12,22)     =    120.541942    -0.000008    -0.065997   120.475945
	   56 B(11,7,17)      =    120.052788     0.000008     0.097767   120.150555
	   57 B(11,9,19)      =    120.052527     0.000008     0.097458   120.149985
	   58 B(12,8,18)      =    120.052367     0.000008     0.097508   120.149875
	   59 B(12,10,20)     =    120.053010     0.000008     0.097684   120.150694
	   60 D(1,2,4,8)      =   -179.918461    -0.000000    -0.003178  -179.921638
	   61 D(1,2,4,14)     =      1.344747     0.000001     0.106870     1.451617
	   62 D(1,2,6,10)     =   -179.912996    -0.000000    -0.003491  -179.916487
	   63 D(1,2,6,16)     =      1.353510     0.000001     0.106883     1.460392
	   64 D(1,3,7,11)     =     -0.172014     0.000000     0.006911    -0.165103
	   65 D(1,3,7,17)     =   -179.802532     0.000000     0.013397  -179.789135
	   66 D(1,5,9,11)     =     -0.167176     0.000000     0.006808    -0.160369
	   67 D(1,5,9,19)     =   -179.796460     0.000000     0.012942  -179.783518
	   68 D(2,1,3,7)      =   -179.911358    -0.000000    -0.003761  -179.915119
	   69 D(2,1,3,13)     =      1.351375     0.000001     0.106680     1.458055
	   70 D(2,1,5,9)      =   -179.920165    -0.000000    -0.002884  -179.923050
	   71 D(2,1,5,15)     =      1.346796     0.000001     0.107095     1.453891
	   72 D(2,4,8,12)     =     -0.171261     0.000000     0.006813    -0.164447
	   73 D(2,4,8,18)     =   -179.801709     0.000000     0.013494  -179.788215
	   74 D(2,6,10,12)    =     -0.168064     0.000000     0.006952    -0.161112
	   75 D(2,6,10,20)    =   -179.797365     0.000000     0.012861  -179.784504
	   76 *D(3,1,2,4)     =   -165.843642     0.000000    -0.000000  -165.843642
	   77 *D(3,1,2,6)     =     14.149796     0.000000    -0.000000    14.149796
	   78 D(3,1,5,9)      =      0.075867    -0.000000    -0.002895     0.072972
	   79 D(3,1,5,15)     =   -178.657172     0.000001     0.107085  -178.550087
	   80 D(3,7,11,9)     =      0.079421    -0.000000    -0.002910     0.076511
	   81 D(3,7,11,21)    =   -179.919836    -0.000000    -0.003161  -179.922997
	   82 *D(4,2,1,5)     =     14.152218     0.000000    -0.000000    14.152218
	   83 D(4,2,6,10)     =      0.080714    -0.000000    -0.003507     0.077208
	   84 D(4,2,6,16)     =   -178.652779     0.000001     0.106867  -178.545913
	   85 D(4,8,12,10)    =      0.082782    -0.000000    -0.003305     0.079477
	   86 D(4,8,12,22)    =   -179.917486    -0.000000    -0.003179  -179.920665
	   87 *D(5,1,2,6)     =   -165.854344    -0.000000    -0.000000  -165.854344
	   88 D(5,1,3,7)      =      0.092610    -0.000000    -0.003751     0.088859
	   89 D(5,1,3,13)     =   -178.644657     0.000001     0.106690  -178.537967
	   90 D(5,9,11,7)     =      0.087089    -0.000000    -0.003613     0.083476
	   91 D(5,9,11,21)    =   -179.913655    -0.000000    -0.003361  -179.917016
	   92 D(6,2,4,8)      =      0.087829    -0.000000    -0.003162     0.084667
	   93 D(6,2,4,14)     =   -178.648964     0.000001     0.106886  -178.542077
	   94 D(6,10,12,8)    =      0.083793    -0.000000    -0.003240     0.080553
	   95 D(6,10,12,22)   =   -179.915939    -0.000000    -0.003366  -179.919305
	   96 D(7,11,9,19)    =    179.714174    -0.000000    -0.010276   179.703899
	   97 D(8,12,10,20)   =    179.710894    -0.000000    -0.009678   179.701216
	   98 D(9,11,7,17)    =    179.707747    -0.000000    -0.009927   179.697819
	   99 D(10,12,8,18)   =    179.711040    -0.000000    -0.010518   179.700523
	  100 D(11,7,3,13)    =    178.589753    -0.000001    -0.102599   178.487154
	  101 D(11,9,5,15)    =    178.590438    -0.000001    -0.102247   178.488190
	  102 D(12,8,4,14)    =    178.590038    -0.000001    -0.102306   178.487732
	  103 D(12,10,6,16)   =    178.589999    -0.000001    -0.102495   178.487504
	  104 D(13,3,7,17)    =     -1.040765    -0.000001    -0.096113    -1.136878
	  105 D(14,4,8,18)    =     -1.040410    -0.000001    -0.095625    -1.136035
	  106 D(15,5,9,19)    =     -1.038846    -0.000001    -0.096113    -1.134959
	  107 D(16,6,10,20)   =     -1.039302    -0.000001    -0.096586    -1.135888
	  108 D(17,7,11,21)   =     -0.291510    -0.000000    -0.010179    -0.301688
	  109 D(18,8,12,22)   =     -0.289228    -0.000000    -0.010391    -0.299619
	  110 D(19,9,11,21)   =     -0.286569    -0.000000    -0.010024    -0.296594
	  111 D(20,10,12,22)  =     -0.288837    -0.000000    -0.009805    -0.298642
	  112 R(1,X)          =      0.744380     0.002328     0.000002     0.744382
	  113 R(1,Y)          =      0.049716     0.000155    -0.000001     0.049715
	  114 R(1,Z)          =     -0.027649    -0.000092    -0.000006    -0.027655
	  115 R(2,X)          =     -0.744371    -0.002328    -0.000002    -0.744373
	  116 R(2,Y)          =     -0.049827    -0.000154     0.000001    -0.049825
	  117 R(2,Z)          =      0.027704     0.000080    -0.000005     0.027700
	  118 R(3,X)          =      1.389533    -0.000858    -0.001992     1.387541
	  119 R(3,Y)          =      0.855463     0.000619     0.000534     0.855997
	  120 R(3,Z)          =     -0.979019    -0.000798    -0.000746    -0.979766
	  121 R(4,X)          =     -1.400382     0.000861     0.001991    -1.398391
	  122 R(4,Y)          =     -0.606426    -0.000397    -0.000316    -0.606742
	  123 R(4,Z)          =      1.136940     0.000931     0.000877     1.137817
	  124 R(5,X)          =      1.559534    -0.000717    -0.001851     1.557683
	  125 R(5,Y)          =     -0.658301    -0.000728    -0.000797    -0.659099
	  126 R(5,Z)          =      0.869454     0.000846     0.000879     0.870333
	  127 R(6,X)          =     -1.548680     0.000716     0.001852    -1.546828
	  128 R(6,Y)          =      0.409276     0.000505     0.000576     0.409853
	  129 R(6,Z)          =     -1.027222    -0.000993    -0.001024    -1.028246
	  130 R(7,X)          =      2.776679    -0.000192    -0.002003     2.774676
	  131 R(7,Y)          =      0.947675     0.000858     0.000588     0.948262
	  132 R(7,Z)          =     -1.032831    -0.000930    -0.000696    -1.033528
	  133 R(8,X)          =     -2.787425     0.000183     0.001996    -2.785429
	  134 R(8,Y)          =     -0.701250    -0.000465    -0.000257    -0.701507
	  135 R(8,Z)          =      1.188962     0.001185     0.000910     1.189871
	  136 R(9,X)          =      2.946778    -0.000018    -0.001857     2.944921
	  137 R(9,Y)          =     -0.565098    -0.000875    -0.000847    -0.565945
	  138 R(9,Z)          =      0.819934     0.000943     0.000844     0.820777
	  139 R(10,X)         =     -2.936040     0.000026     0.001865    -2.934176
	  140 R(10,Y)         =      0.318746     0.000477     0.000514     0.319260
	  141 R(10,Z)         =     -0.976142    -0.001187    -0.001050    -0.977192
	  142 R(11,X)         =      3.567097    -0.002086    -0.003163     3.563934
	  143 R(11,Y)         =      0.238396    -0.000137    -0.000208     0.238188
	  144 R(11,Z)         =     -0.132744     0.000084     0.000126    -0.132619
	  145 R(12,X)         =     -3.567102     0.002086     0.003163    -3.563939
	  146 R(12,Y)         =     -0.238383     0.000137     0.000209    -0.238174
	  147 R(12,Z)         =      0.132622    -0.000073    -0.000113     0.132509
	  148 R(13,X)         =      0.811115    -0.002192    -0.003782     0.807332
	  149 R(13,Y)         =      1.439029     0.001794     0.001528     1.440557
	  150 R(13,Z)         =     -1.679550    -0.000927     0.000722    -1.678828
	  151 R(14,X)         =     -0.832169     0.002124     0.003661    -0.828508
	  152 R(14,Y)         =     -0.955539     0.000068     0.001545    -0.953994
	  153 R(14,Z)         =      1.986126     0.002100     0.001217     1.987343
	  154 R(15,X)         =      1.117261    -0.001871    -0.003599     1.113663
	  155 R(15,Y)         =     -1.310020    -0.002076    -0.002032    -1.312052
	  156 R(15,Z)         =      1.608046     0.001069    -0.000461     1.607585
	  157 R(16,X)         =     -1.096201     0.001940     0.003720    -1.092481
	  158 R(16,Y)         =      0.826588     0.000205    -0.001049     0.825539
	  159 R(16,Z)         =     -1.914336    -0.002259    -0.001498    -1.915834
	  160 R(17,X)         =      3.239013     0.000343    -0.002358     3.236654
	  161 R(17,Y)         =      1.580899     0.001739     0.001170     1.582069
	  162 R(17,Z)         =     -1.777267    -0.001682    -0.001077    -1.778344
	  163 R(18,X)         =     -3.258550    -0.000375     0.002332    -3.256218
	  164 R(18,Y)         =     -1.132990    -0.000800    -0.000328    -1.133318
	  165 R(18,Z)         =      2.061061     0.002278     0.001614     2.062675
	  166 R(19,X)         =      3.543005     0.000687    -0.002104     3.540901
	  167 R(19,Y)         =     -1.127545    -0.001669    -0.001466    -1.129011
	  168 R(19,Z)         =      1.524972     0.001648     0.001250     1.526222
	  169 R(20,X)         =     -3.523480    -0.000655     0.002130    -3.521350
	  170 R(20,Y)         =      0.679754     0.000736     0.000636     0.680390
	  171 R(20,Z)         =     -1.808907    -0.002235    -0.001770    -1.810678
	  172 R(21,X)         =      4.645533    -0.002027    -0.003258     4.642276
	  173 R(21,Y)         =      0.310426    -0.000128    -0.000209     0.310217
	  174 R(21,Z)         =     -0.172938     0.000083     0.000133    -0.172805
	  175 R(22,X)         =     -4.645540     0.002026     0.003258    -4.642283
	  176 R(22,Y)         =     -0.310447     0.000136     0.000216    -0.310231
	  177 R(22,Z)         =      0.172701    -0.000072    -0.000116     0.172585
	 ---------------------------------------------------------------------------
	Successfully symmetrized geometry.

  ==> Convergence Check <==

  Measures of convergence in internal coordinates in au.
  Criteria marked as inactive (o), active & met (*), and active & unmet ( ).
  ---------------------------------------------------------------------------------------------
   Step     Total Energy     Delta E     MAX Force     RMS Force      MAX Disp      RMS Disp   
  ---------------------------------------------------------------------------------------------
    Convergence Criteria             o    2.50e-03 *    1.70e-03 *    1.00e-02 *    6.70e-03 *
  ---------------------------------------------------------------------------------------------
      7    -463.12706451   -1.95e-04 o    5.67e-04 *    1.25e-04 *    7.15e-03 *    2.12e-03 *  ~
  ---------------------------------------------------------------------------------------------


  **** Optimization is complete! (in 7 steps) ****

  ==> Optimization Summary <==

  Measures of convergence in internal coordinates in au.
  --------------------------------------------------------------------------------------------------------------- ~
   Step         Total Energy             Delta E       MAX Force       RMS Force        MAX Disp        RMS Disp  ~
  --------------------------------------------------------------------------------------------------------------- ~
      1    -463.119839939390   -463.119839939390      0.00859122      0.00280509      0.02141747      0.00751647  ~
      2    -463.122912946941     -0.003073007551      0.00523041      0.00183748      0.01993104      0.00751700  ~
      3    -463.124833499768     -0.001920552827      0.00314750      0.00107731      0.02349303      0.00751646  ~
      4    -463.125901127120     -0.001067627352      0.00210741      0.00060031      0.02619713      0.00751646  ~
      5    -463.126490186981     -0.000589059862      0.00146777      0.00042133      0.02590283      0.00751694  ~
      6    -463.126869288492     -0.000379101511      0.00100440      0.00028419      0.02724712      0.00751639  ~
      7    -463.127064508253     -0.000195219761      0.00056666      0.00012503      0.00714738      0.00211618  ~
  --------------------------------------------------------------------------------------------------------------- ~

	Writing optimization data to binary file.
	Final energy is   -463.1270645082532
	Final (previous) structure:
	Cartesian Geometry (in Angstrom)
	    C     0.7443798529   0.0497160359  -0.0276489032
	    C    -0.7443706125  -0.0498266829   0.0277043297
	    C     1.3895329528   0.8554632926  -0.9790192979
	    C    -1.4003823842  -0.6064261431   1.1369397572
	    C     1.5595335381  -0.6583012248   0.8694537427
	    C    -1.5486796831   0.4092764764  -1.0272215011
	    C     2.7766789472   0.9476745836  -1.0328313036
	    C    -2.7874247511  -0.7012502736   1.1889617122
	    C     2.9467784818  -0.5650976601   0.8199335284
	    C    -2.9360401032   0.3187458553  -0.9761422644
	    C     3.5670967646   0.2383958218  -0.1327444768
	    C    -3.5671019356  -0.2383831434   0.1326224252
	    H     0.8111146237   1.4390290994  -1.6795501179
	    H    -0.8321687768  -0.9555388911   1.9861261570
	    H     1.1172613878  -1.3100200273   1.6080464108
	    H    -1.0962007426   0.8265879877  -1.9143357643
	    H     3.2390126299   1.5808994445  -1.7772672530
	    H    -3.2585497449  -1.1329898264   2.0610607556
	    H     3.5430049505  -1.1275451089   1.5249722170
	    H    -3.5234802328   0.6797541808  -1.8089072858
	    H     4.6455334343   0.3104258120  -0.1729379581
	    H    -4.6455402408  -0.3104471395   0.1727005792
	Saving final (previous) structure.
			--------------------------
			 OPTKING Finished Execution 
			--------------------------

    Final optimized geometry and variables:
    Molecular point group: c1
    Full point group: C1

    Geometry (in Angstrom), charge = 0, multiplicity = 1:

    C            0.744379855807     0.049716036128    -0.027648903301
    C           -0.744370615436    -0.049826683067     0.027704329774
    C            1.389532958215     0.855463295985    -0.979019301724
    C           -1.400382389700    -0.606426145505     1.136939761679
    C            1.559533544216    -0.658301227371     0.869453746158
    C           -1.548679689220     0.409276477972    -1.027221505099
    C            2.776678958144     0.947674587288    -1.032831307690
    C           -2.787424762068    -0.701250276307     1.188961716881
    C            2.946778493344    -0.565097662350     0.819933531619
    C           -2.936040114726     0.318745856507    -0.976142268240
    C            3.567096778625     0.238395822719    -0.132744477313
    C           -3.567101949605    -0.238383144348     0.132622425705
    H            0.811114626899     1.439029105041    -1.679550124551
    H           -0.832168780070    -0.955538894876     1.986126164784
    H            1.117261392192    -1.310020032449     1.608046417147
    H           -1.096200746909     0.826587990910    -1.914335771860
    H            3.239012642655     1.580899450736    -1.777267259951
    H           -3.258549757671    -1.132989830855     2.061060763736
    H            3.543004964379    -1.127545113353     1.524972222948
    H           -3.523480246681     0.679754183457    -1.808907292866
    H            4.645533452573     0.310425813258    -0.172937958733
    H           -4.645540259047    -0.310447140731     0.172700579912

	Removing binary optimization data file.
	Cleaning optimization helper files.

    Psi4 stopped on: Monday, 31 May 2021 05:28PM
    Psi4 wall time for execution: 0:05:03.63

*** Psi4 exiting successfully. Buy a developer a beer!
