
Host: daniele-Precision-5750

Timers On : Mon May 31 17:05:43 2021
Timers Off: Mon May 31 17:07:45 2021

Wall Time:      122.74 seconds

                                                       Time (seconds)
Module                                       User      System        Wall        Calls
V: Grid                             :     14.400u      0.067s      2.910w      3 calls
JK: (A|Q)^-1                        :      6.317u      0.483s      1.279w      3 calls
JK: (A|mn)                          :     11.017u      0.000s      2.204w      3 calls
JK: (Q|mn)                          :      7.400u      0.000s      1.487w      3 calls
JK: (Q|mn) Write                    :      0.450u      0.217s      0.133w      3 calls
JK: (A|mn)^L                        :     11.100u      0.000s      2.220w      3 calls
JK: (Q|mn)^L                        :      7.300u      0.000s      1.462w      3 calls
JK: (Q|mn)^L Write                  :      0.500u      0.250s      0.148w      3 calls
JK: (Q|mn)^R                        :     14.150u      0.000s      2.831w      3 calls
JK: (Q|mn)^R Write                  :      0.883u      0.450s      0.267w      3 calls
HF: Form core H                     :      0.033u      0.017s      0.004w      3 calls
HF: Form S/X                        :      0.067u      0.000s      0.015w      3 calls
HF: Guess                           :      1.083u      0.000s      0.216w      3 calls
SAD Guess                           :      1.017u      0.000s      0.202w      1 calls
HF: Form G                          :    267.333u     11.450s     55.783w     31 calls
RV: Form V                          :    155.817u      0.267s     31.234w     31 calls
Properties                          :     52.027p                         123331 calls
Functional                          :     20.914p                         123331 calls
V_xc                                :     32.464p                         112449 calls
JK: D                               :      0.017u      0.000s      0.002w     31 calls
JK: USO2AO                          :      0.017u      0.000s      0.002w     31 calls
JK: JK                              :    111.367u     11.183s     24.537w     31 calls
JK: (Q|mn) Read                     :      3.100u      1.517s      0.876w     62 calls
JK: J                               :      1.933u      0.033s      0.389w     62 calls
JK: J1                              :      0.750u      0.017s      0.196w     62 calls
JK: J2                              :      0.967u      0.000s      0.183w     62 calls
JK: K                               :     37.417u      0.017s      7.565w     62 calls
JK: K1                              :     30.533u      0.000s      6.147w     62 calls
JK: K2                              :      6.867u      0.017s      1.416w     62 calls
JK: (Q|mn)^L Read                   :      3.233u      1.350s      0.901w     94 calls
JK: (Q|mn)^R Read                   :      2.917u      1.650s      0.895w     94 calls
JK: wK                              :     46.533u      0.117s      9.391w     94 calls
JK: wK1                             :     39.300u      0.067s      7.909w    188 calls
JK: wK2                             :      7.133u      0.050s      1.478w     94 calls
JK: AO2USO                          :      0.000u      0.000s      0.000w     31 calls
HF: Form F                          :      0.000u      0.000s      0.002w     31 calls
HF: Form D                          :      0.000u      0.000s      0.002w     31 calls
HF: DIIS                            :      0.400u      0.017s      0.080w     30 calls
DIISManager::add_entry              :      0.033u      0.000s      0.012w     28 calls
DIISManager::extrapolate            :      0.133u      0.000s      0.027w     28 calls
bMatrix setup                       :      0.083u      0.000s      0.012w     28 calls
bMatrix pseudoinverse               :      0.000u      0.000s      0.002w     28 calls
New vector                          :      0.050u      0.000s      0.013w     28 calls
HF: Form C                          :      0.733u      0.017s      0.151w     30 calls
Grad: V T Perturb                   :      3.033u      0.000s      0.608w      3 calls
Grad: S                             :      0.000u      0.000s      0.008w      3 calls
Grad: JK                            :    186.350u      2.883s     38.139w      3 calls
JKGrad: Amn                         :     21.150u      0.800s      4.543w      3 calls
JKGrad: Awmn                        :     22.650u      0.783s      4.731w      3 calls
JKGrad: AB                          :      8.067u      0.150s      1.643w      3 calls
JKGrad: UV                          :      1.900u      0.183s      0.410w      3 calls
JKGrad: ABx                         :      1.867u      0.000s      0.382w      3 calls
JKGrad: Amnx                        :    129.667u      0.933s     26.213w      3 calls
Grad: XC                            :     34.300u      0.017s      6.870w      3 calls
V_xc gradient                       :      8.519p                          10882 calls

--------------------------------------------------------------------------------------
V: Grid                             :     14.400u      0.067s      2.910w      3 calls
JK: (A|Q)^-1                        :      6.317u      0.483s      1.279w      3 calls
JK: (A|mn)                          :     11.017u      0.000s      2.204w      3 calls
JK: (Q|mn)                          :      7.400u      0.000s      1.487w      3 calls
JK: (Q|mn) Write                    :      0.450u      0.217s      0.133w      3 calls
JK: (A|mn)^L                        :     11.100u      0.000s      2.220w      3 calls
JK: (Q|mn)^L                        :      7.300u      0.000s      1.462w      3 calls
JK: (Q|mn)^L Write                  :      0.500u      0.250s      0.148w      3 calls
JK: (Q|mn)^R                        :     14.150u      0.000s      2.831w      3 calls
JK: (Q|mn)^R Write                  :      0.883u      0.450s      0.267w      3 calls
HF: Form core H                     :      0.033u      0.017s      0.004w      3 calls
HF: Form S/X                        :      0.067u      0.000s      0.015w      3 calls
HF: Guess                           :      1.083u      0.000s      0.216w      3 calls
| SAD Guess                         :      1.017u      0.000s      0.202w      1 calls
HF: Form G                          :    267.333u     11.450s     55.783w     31 calls
| RV: Form V                        :    155.817u      0.267s     31.234w     31 calls
| | Properties                      :     41.978p                         112449 calls
| | Functional                      :     18.941p                         112449 calls
| | V_xc                            :     32.464p                         112449 calls
| JK: D                             :      0.017u      0.000s      0.002w     31 calls
| JK: USO2AO                        :      0.017u      0.000s      0.002w     31 calls
| JK: JK                            :    111.367u     11.183s     24.537w     31 calls
| | JK: (Q|mn) Read                 :      3.100u      1.517s      0.876w     62 calls
| | JK: J                           :      1.933u      0.033s      0.389w     62 calls
| | | JK: J1                        :      0.750u      0.017s      0.196w     62 calls
| | | JK: J2                        :      0.967u      0.000s      0.183w     62 calls
| | JK: K                           :     37.417u      0.017s      7.565w     62 calls
| | | JK: K1                        :     30.533u      0.000s      6.147w     62 calls
| | | JK: K2                        :      6.867u      0.017s      1.416w     62 calls
| | JK: (Q|mn)^L Read               :      3.233u      1.350s      0.901w     94 calls
| | JK: (Q|mn)^R Read               :      2.917u      1.650s      0.895w     94 calls
| | JK: wK                          :     46.533u      0.117s      9.391w     94 calls
| | | JK: wK1                       :     39.300u      0.067s      7.909w    188 calls
| | | JK: wK2                       :      7.133u      0.050s      1.478w     94 calls
| JK: AO2USO                        :      0.000u      0.000s      0.000w     31 calls
HF: Form F                          :      0.000u      0.000s      0.002w     31 calls
HF: Form D                          :      0.000u      0.000s      0.002w     31 calls
HF: DIIS                            :      0.400u      0.017s      0.080w     30 calls
| DIISManager::add_entry            :      0.033u      0.000s      0.012w     28 calls
| DIISManager::extrapolate          :      0.133u      0.000s      0.027w     28 calls
| | bMatrix setup                   :      0.083u      0.000s      0.012w     28 calls
| | bMatrix pseudoinverse           :      0.000u      0.000s      0.002w     28 calls
| | New vector                      :      0.050u      0.000s      0.013w     28 calls
HF: Form C                          :      0.733u      0.017s      0.151w     30 calls
Grad: V T Perturb                   :      3.033u      0.000s      0.608w      3 calls
Grad: S                             :      0.000u      0.000s      0.008w      3 calls
Grad: JK                            :    186.350u      2.883s     38.139w      3 calls
| JKGrad: Amn                       :     21.150u      0.800s      4.543w      3 calls
| JKGrad: Awmn                      :     22.650u      0.783s      4.731w      3 calls
| JKGrad: AB                        :      8.067u      0.150s      1.643w      3 calls
| JKGrad: UV                        :      1.900u      0.183s      0.410w      3 calls
| JKGrad: ABx                       :      1.867u      0.000s      0.382w      3 calls
| JKGrad: Amnx                      :    129.667u      0.933s     26.213w      3 calls
Grad: XC                            :     34.300u      0.017s      6.870w      3 calls
| Properties                        :     10.049p                          10882 calls
| Functional                        :      1.973p                          10882 calls
| V_xc gradient                     :      8.519p                          10882 calls

**************************************************************************************

Host: daniele-Precision-5750

Timers On : Mon May 31 17:08:16 2021
Timers Off: Mon May 31 17:10:15 2021

Wall Time:      119.42 seconds

                                                       Time (seconds)
Module                                       User      System        Wall        Calls
V: Grid                             :     14.750u      0.067s      2.999w      3 calls
JK: (A|Q)^-1                        :      6.067u      0.433s      1.225w      3 calls
JK: (A|mn)                          :     11.417u      0.000s      2.283w      3 calls
JK: (Q|mn)                          :      7.367u      0.000s      1.477w      3 calls
JK: (Q|mn) Write                    :      0.467u      0.233s      0.134w      3 calls
JK: (A|mn)^L                        :     11.217u      0.017s      2.245w      3 calls
JK: (Q|mn)^L                        :      7.250u      0.000s      1.456w      3 calls
JK: (Q|mn)^L Write                  :      0.533u      0.250s      0.149w      3 calls
JK: (Q|mn)^R                        :     14.400u      0.000s      2.886w      3 calls
JK: (Q|mn)^R Write                  :      0.933u      0.467s      0.274w      3 calls
HF: Form core H                     :      0.017u      0.000s      0.004w      3 calls
HF: Form S/X                        :      0.083u      0.000s      0.016w      3 calls
HF: Guess                           :      1.050u      0.017s      0.215w      3 calls
SAD Guess                           :      0.983u      0.017s      0.202w      1 calls
HF: Form G                          :    254.583u     11.133s     53.183w     30 calls
RV: Form V                          :    149.650u      0.217s     29.997w     30 calls
Properties                          :     50.265p                         120440 calls
Functional                          :     20.347p                         120440 calls
V_xc                                :     31.134p                         109492 calls
JK: D                               :      0.000u      0.000s      0.002w     30 calls
JK: USO2AO                          :      0.017u      0.000s      0.002w     30 calls
JK: JK                              :    104.883u     10.917s     23.175w     30 calls
JK: (Q|mn) Read                     :      2.900u      1.417s      0.835w     60 calls
JK: J                               :      1.883u      0.067s      0.378w     60 calls
JK: J1                              :      0.700u      0.033s      0.185w     60 calls
JK: J2                              :      1.017u      0.000s      0.184w     60 calls
JK: K                               :     35.033u      0.017s      7.093w     60 calls
JK: K1                              :     28.567u      0.000s      5.750w     60 calls
JK: K2                              :      6.467u      0.017s      1.341w     60 calls
JK: (Q|mn)^L Read                   :      3.150u      1.433s      0.869w     91 calls
JK: (Q|mn)^R Read                   :      2.800u      1.483s      0.846w     91 calls
JK: wK                              :     43.550u      0.050s      8.812w     91 calls
JK: wK1                             :     36.783u      0.000s      7.422w    182 calls
JK: wK2                             :      6.750u      0.050s      1.385w     91 calls
JK: AO2USO                          :      0.000u      0.000s      0.000w     30 calls
HF: Form F                          :      0.017u      0.000s      0.002w     30 calls
HF: Form D                          :      0.000u      0.000s      0.002w     30 calls
HF: DIIS                            :      0.400u      0.000s      0.076w     29 calls
DIISManager::add_entry              :      0.050u      0.000s      0.012w     27 calls
DIISManager::extrapolate            :      0.217u      0.000s      0.025w     27 calls
bMatrix setup                       :      0.100u      0.000s      0.011w     27 calls
bMatrix pseudoinverse               :      0.017u      0.000s      0.001w     27 calls
New vector                          :      0.100u      0.000s      0.013w     27 calls
HF: Form C                          :      0.650u      0.000s      0.144w     29 calls
Grad: V T Perturb                   :      2.967u      0.000s      0.595w      3 calls
Grad: S                             :      0.050u      0.000s      0.007w      3 calls
Grad: JK                            :    181.617u      2.883s     37.195w      3 calls
JKGrad: Amn                         :     20.783u      0.783s      4.462w      3 calls
JKGrad: Awmn                        :     22.317u      0.767s      4.656w      3 calls
JKGrad: AB                          :      7.633u      0.100s      1.547w      3 calls
JKGrad: UV                          :      1.900u      0.167s      0.411w      3 calls
JKGrad: ABx                         :      1.867u      0.017s      0.380w      3 calls
JKGrad: Amnx                        :    126.150u      0.967s     25.529w      3 calls
Grad: XC                            :     35.033u      0.033s      7.010w      3 calls
V_xc gradient                       :      8.896p                          10948 calls

--------------------------------------------------------------------------------------
V: Grid                             :     14.750u      0.067s      2.999w      3 calls
JK: (A|Q)^-1                        :      6.067u      0.433s      1.225w      3 calls
JK: (A|mn)                          :     11.417u      0.000s      2.283w      3 calls
JK: (Q|mn)                          :      7.367u      0.000s      1.477w      3 calls
JK: (Q|mn) Write                    :      0.467u      0.233s      0.134w      3 calls
JK: (A|mn)^L                        :     11.217u      0.017s      2.245w      3 calls
JK: (Q|mn)^L                        :      7.250u      0.000s      1.456w      3 calls
JK: (Q|mn)^L Write                  :      0.533u      0.250s      0.149w      3 calls
JK: (Q|mn)^R                        :     14.400u      0.000s      2.886w      3 calls
JK: (Q|mn)^R Write                  :      0.933u      0.467s      0.274w      3 calls
HF: Form core H                     :      0.017u      0.000s      0.004w      3 calls
HF: Form S/X                        :      0.083u      0.000s      0.016w      3 calls
HF: Guess                           :      1.050u      0.017s      0.215w      3 calls
| SAD Guess                         :      0.983u      0.017s      0.202w      1 calls
HF: Form G                          :    254.583u     11.133s     53.183w     30 calls
| RV: Form V                        :    149.650u      0.217s     29.997w     30 calls
| | Properties                      :     40.212p                         109492 calls
| | Functional                      :     18.335p                         109492 calls
| | V_xc                            :     31.134p                         109492 calls
| JK: D                             :      0.000u      0.000s      0.002w     30 calls
| JK: USO2AO                        :      0.017u      0.000s      0.002w     30 calls
| JK: JK                            :    104.883u     10.917s     23.175w     30 calls
| | JK: (Q|mn) Read                 :      2.900u      1.417s      0.835w     60 calls
| | JK: J                           :      1.883u      0.067s      0.378w     60 calls
| | | JK: J1                        :      0.700u      0.033s      0.185w     60 calls
| | | JK: J2                        :      1.017u      0.000s      0.184w     60 calls
| | JK: K                           :     35.033u      0.017s      7.093w     60 calls
| | | JK: K1                        :     28.567u      0.000s      5.750w     60 calls
| | | JK: K2                        :      6.467u      0.017s      1.341w     60 calls
| | JK: (Q|mn)^L Read               :      3.150u      1.433s      0.869w     91 calls
| | JK: (Q|mn)^R Read               :      2.800u      1.483s      0.846w     91 calls
| | JK: wK                          :     43.550u      0.050s      8.812w     91 calls
| | | JK: wK1                       :     36.783u      0.000s      7.422w    182 calls
| | | JK: wK2                       :      6.750u      0.050s      1.385w     91 calls
| JK: AO2USO                        :      0.000u      0.000s      0.000w     30 calls
HF: Form F                          :      0.017u      0.000s      0.002w     30 calls
HF: Form D                          :      0.000u      0.000s      0.002w     30 calls
HF: DIIS                            :      0.400u      0.000s      0.076w     29 calls
| DIISManager::add_entry            :      0.050u      0.000s      0.012w     27 calls
| DIISManager::extrapolate          :      0.217u      0.000s      0.025w     27 calls
| | bMatrix setup                   :      0.100u      0.000s      0.011w     27 calls
| | bMatrix pseudoinverse           :      0.017u      0.000s      0.001w     27 calls
| | New vector                      :      0.100u      0.000s      0.013w     27 calls
HF: Form C                          :      0.650u      0.000s      0.144w     29 calls
Grad: V T Perturb                   :      2.967u      0.000s      0.595w      3 calls
Grad: S                             :      0.050u      0.000s      0.007w      3 calls
Grad: JK                            :    181.617u      2.883s     37.195w      3 calls
| JKGrad: Amn                       :     20.783u      0.783s      4.462w      3 calls
| JKGrad: Awmn                      :     22.317u      0.767s      4.656w      3 calls
| JKGrad: AB                        :      7.633u      0.100s      1.547w      3 calls
| JKGrad: UV                        :      1.900u      0.167s      0.411w      3 calls
| JKGrad: ABx                       :      1.867u      0.017s      0.380w      3 calls
| JKGrad: Amnx                      :    126.150u      0.967s     25.529w      3 calls
Grad: XC                            :     35.033u      0.033s      7.010w      3 calls
| Properties                        :     10.054p                          10948 calls
| Functional                        :      2.012p                          10948 calls
| V_xc gradient                     :      8.896p                          10948 calls

**************************************************************************************

Host: daniele-Precision-5750

Timers On : Mon May 31 17:10:45 2021
Timers Off: Mon May 31 17:12:41 2021

Wall Time:      115.78 seconds

                                                       Time (seconds)
Module                                       User      System        Wall        Calls
V: Grid                             :     13.883u      0.083s      2.809w      3 calls
JK: (A|Q)^-1                        :      5.983u      0.450s      1.203w      3 calls
JK: (A|mn)                          :     10.683u      0.000s      2.136w      3 calls
JK: (Q|mn)                          :      7.200u      0.017s      1.442w      3 calls
JK: (Q|mn) Write                    :      0.450u      0.200s      0.130w      3 calls
JK: (A|mn)^L                        :     10.650u      0.000s      2.136w      3 calls
JK: (Q|mn)^L                        :      7.250u      0.000s      1.453w      3 calls
JK: (Q|mn)^L Write                  :      0.450u      0.217s      0.131w      3 calls
JK: (Q|mn)^R                        :     14.117u      0.000s      2.826w      3 calls
JK: (Q|mn)^R Write                  :      0.867u      0.450s      0.259w      3 calls
HF: Form core H                     :      0.000u      0.000s      0.004w      3 calls
HF: Form S/X                        :      0.083u      0.000s      0.016w      3 calls
HF: Guess                           :      1.017u      0.017s      0.207w      3 calls
SAD Guess                           :      0.950u      0.017s      0.193w      1 calls
HF: Form G                          :    244.967u     10.500s     51.109w     29 calls
RV: Form V                          :    141.517u      0.167s     28.360w     29 calls
Properties                          :     46.178p                         116554 calls
Functional                          :     19.622p                         116554 calls
V_xc                                :     29.731p                         105628 calls
JK: D                               :      0.017u      0.000s      0.002w     29 calls
JK: USO2AO                          :      0.000u      0.000s      0.002w     29 calls
JK: JK                              :    103.333u     10.333s     22.739w     29 calls
JK: (Q|mn) Read                     :      2.717u      1.350s      0.781w     58 calls
JK: J                               :      1.767u      0.033s      0.334w     58 calls
JK: J1                              :      0.633u      0.000s      0.164w     58 calls
JK: J2                              :      0.750u      0.000s      0.162w     58 calls
JK: K                               :     35.717u      0.017s      7.225w     58 calls
JK: K1                              :     29.233u      0.000s      5.916w     58 calls
JK: K2                              :      6.483u      0.017s      1.307w     58 calls
JK: (Q|mn)^L Read                   :      3.067u      1.383s      0.815w     88 calls
JK: (Q|mn)^R Read                   :      2.600u      1.383s      0.808w     88 calls
JK: wK                              :     42.583u      0.017s      8.619w     88 calls
JK: wK1                             :     35.933u      0.017s      7.247w    176 calls
JK: wK2                             :      6.650u      0.000s      1.368w     88 calls
JK: AO2USO                          :      0.000u      0.000s      0.000w     29 calls
HF: Form F                          :      0.000u      0.000s      0.002w     29 calls
HF: Form D                          :      0.033u      0.000s      0.002w     29 calls
HF: DIIS                            :      0.217u      0.033s      0.071w     28 calls
DIISManager::add_entry              :      0.033u      0.017s      0.011w     26 calls
DIISManager::extrapolate            :      0.033u      0.017s      0.023w     26 calls
bMatrix setup                       :      0.000u      0.017s      0.010w     26 calls
bMatrix pseudoinverse               :      0.000u      0.000s      0.001w     26 calls
New vector                          :      0.033u      0.000s      0.011w     26 calls
HF: Form C                          :      0.800u      0.000s      0.138w     28 calls
Grad: V T Perturb                   :      2.900u      0.000s      0.581w      3 calls
Grad: S                             :      0.017u      0.000s      0.007w      3 calls
Grad: JK                            :    181.683u      2.950s     37.194w      3 calls
JKGrad: Amn                         :     20.417u      0.800s      4.385w      3 calls
JKGrad: Awmn                        :     22.367u      0.817s      4.663w      3 calls
JKGrad: AB                          :      7.750u      0.150s      1.583w      3 calls
JKGrad: UV                          :      1.917u      0.117s      0.408w      3 calls
JKGrad: ABx                         :      1.850u      0.033s      0.378w      3 calls
JKGrad: Amnx                        :    126.400u      0.967s     25.573w      3 calls
Grad: XC                            :     31.133u      0.017s      6.237w      3 calls
V_xc gradient                       :      7.940p                          10926 calls

--------------------------------------------------------------------------------------
V: Grid                             :     13.883u      0.083s      2.809w      3 calls
JK: (A|Q)^-1                        :      5.983u      0.450s      1.203w      3 calls
JK: (A|mn)                          :     10.683u      0.000s      2.136w      3 calls
JK: (Q|mn)                          :      7.200u      0.017s      1.442w      3 calls
JK: (Q|mn) Write                    :      0.450u      0.200s      0.130w      3 calls
JK: (A|mn)^L                        :     10.650u      0.000s      2.136w      3 calls
JK: (Q|mn)^L                        :      7.250u      0.000s      1.453w      3 calls
JK: (Q|mn)^L Write                  :      0.450u      0.217s      0.131w      3 calls
JK: (Q|mn)^R                        :     14.117u      0.000s      2.826w      3 calls
JK: (Q|mn)^R Write                  :      0.867u      0.450s      0.259w      3 calls
HF: Form core H                     :      0.000u      0.000s      0.004w      3 calls
HF: Form S/X                        :      0.083u      0.000s      0.016w      3 calls
HF: Guess                           :      1.017u      0.017s      0.207w      3 calls
| SAD Guess                         :      0.950u      0.017s      0.193w      1 calls
HF: Form G                          :    244.967u     10.500s     51.109w     29 calls
| RV: Form V                        :    141.517u      0.167s     28.360w     29 calls
| | Properties                      :     37.372p                         105628 calls
| | Functional                      :     17.714p                         105628 calls
| | V_xc                            :     29.731p                         105628 calls
| JK: D                             :      0.017u      0.000s      0.002w     29 calls
| JK: USO2AO                        :      0.000u      0.000s      0.002w     29 calls
| JK: JK                            :    103.333u     10.333s     22.739w     29 calls
| | JK: (Q|mn) Read                 :      2.717u      1.350s      0.781w     58 calls
| | JK: J                           :      1.767u      0.033s      0.334w     58 calls
| | | JK: J1                        :      0.633u      0.000s      0.164w     58 calls
| | | JK: J2                        :      0.750u      0.000s      0.162w     58 calls
| | JK: K                           :     35.717u      0.017s      7.225w     58 calls
| | | JK: K1                        :     29.233u      0.000s      5.916w     58 calls
| | | JK: K2                        :      6.483u      0.017s      1.307w     58 calls
| | JK: (Q|mn)^L Read               :      3.067u      1.383s      0.815w     88 calls
| | JK: (Q|mn)^R Read               :      2.600u      1.383s      0.808w     88 calls
| | JK: wK                          :     42.583u      0.017s      8.619w     88 calls
| | | JK: wK1                       :     35.933u      0.017s      7.247w    176 calls
| | | JK: wK2                       :      6.650u      0.000s      1.368w     88 calls
| JK: AO2USO                        :      0.000u      0.000s      0.000w     29 calls
HF: Form F                          :      0.000u      0.000s      0.002w     29 calls
HF: Form D                          :      0.033u      0.000s      0.002w     29 calls
HF: DIIS                            :      0.217u      0.033s      0.071w     28 calls
| DIISManager::add_entry            :      0.033u      0.017s      0.011w     26 calls
| DIISManager::extrapolate          :      0.033u      0.017s      0.023w     26 calls
| | bMatrix setup                   :      0.000u      0.017s      0.010w     26 calls
| | bMatrix pseudoinverse           :      0.000u      0.000s      0.001w     26 calls
| | New vector                      :      0.033u      0.000s      0.011w     26 calls
HF: Form C                          :      0.800u      0.000s      0.138w     28 calls
Grad: V T Perturb                   :      2.900u      0.000s      0.581w      3 calls
Grad: S                             :      0.017u      0.000s      0.007w      3 calls
Grad: JK                            :    181.683u      2.950s     37.194w      3 calls
| JKGrad: Amn                       :     20.417u      0.800s      4.385w      3 calls
| JKGrad: Awmn                      :     22.367u      0.817s      4.663w      3 calls
| JKGrad: AB                        :      7.750u      0.150s      1.583w      3 calls
| JKGrad: UV                        :      1.917u      0.117s      0.408w      3 calls
| JKGrad: ABx                       :      1.850u      0.033s      0.378w      3 calls
| JKGrad: Amnx                      :    126.400u      0.967s     25.573w      3 calls
Grad: XC                            :     31.133u      0.017s      6.237w      3 calls
| Properties                        :      8.807p                          10926 calls
| Functional                        :      1.908p                          10926 calls
| V_xc gradient                     :      7.940p                          10926 calls

**************************************************************************************

Host: daniele-Precision-5750

Timers On : Mon May 31 17:13:11 2021
Timers Off: Mon May 31 17:15:09 2021

Wall Time:      117.51 seconds

                                                       Time (seconds)
Module                                       User      System        Wall        Calls
V: Grid                             :     13.967u      0.100s      2.831w      3 calls
JK: (A|Q)^-1                        :      5.967u      0.467s      1.211w      3 calls
JK: (A|mn)                          :     10.733u      0.000s      2.152w      3 calls
JK: (Q|mn)                          :      7.133u      0.000s      1.426w      3 calls
JK: (Q|mn) Write                    :      0.433u      0.250s      0.128w      3 calls
JK: (A|mn)^L                        :     10.500u      0.000s      2.101w      3 calls
JK: (Q|mn)^L                        :      7.183u      0.017s      1.435w      3 calls
JK: (Q|mn)^L Write                  :      0.467u      0.233s      0.144w      3 calls
JK: (Q|mn)^R                        :     13.700u      0.000s      2.742w      3 calls
JK: (Q|mn)^R Write                  :      0.833u      0.433s      0.250w      3 calls
HF: Form core H                     :      0.017u      0.000s      0.004w      3 calls
HF: Form S/X                        :      0.083u      0.017s      0.016w      3 calls
HF: Guess                           :      1.017u      0.017s      0.208w      3 calls
SAD Guess                           :      0.950u      0.017s      0.194w      1 calls
HF: Form G                          :    253.967u     11.400s     53.112w     31 calls
RV: Form V                          :    151.467u      0.367s     30.384w     31 calls
Properties                          :     48.943p                         123015 calls
Functional                          :     20.765p                         123015 calls
V_xc                                :     31.917p                         112160 calls
JK: D                               :      0.000u      0.000s      0.002w     31 calls
JK: USO2AO                          :      0.017u      0.000s      0.002w     31 calls
JK: JK                              :    102.450u     11.033s     22.716w     31 calls
JK: (Q|mn) Read                     :      2.833u      1.383s      0.832w     62 calls
JK: J                               :      1.667u      0.000s      0.358w     62 calls
JK: J1                              :      0.817u      0.000s      0.177w     62 calls
JK: J2                              :      0.767u      0.000s      0.172w     62 calls
JK: K                               :     34.517u      0.033s      6.963w     62 calls
JK: K1                              :     28.000u      0.000s      5.633w     62 calls
JK: K2                              :      6.517u      0.033s      1.328w     62 calls
JK: (Q|mn)^L Read                   :      3.067u      1.550s      0.869w     94 calls
JK: (Q|mn)^R Read                   :      2.817u      1.350s      0.851w     94 calls
JK: wK                              :     41.517u      0.050s      8.394w     94 calls
JK: wK1                             :     34.867u      0.017s      7.030w    188 calls
JK: wK2                             :      6.650u      0.033s      1.359w     94 calls
JK: AO2USO                          :      0.000u      0.000s      0.000w     31 calls
HF: Form F                          :      0.000u      0.000s      0.002w     31 calls
HF: Form D                          :      0.000u      0.000s      0.002w     31 calls
HF: DIIS                            :      0.433u      0.017s      0.077w     30 calls
DIISManager::add_entry              :      0.133u      0.000s      0.012w     28 calls
DIISManager::extrapolate            :      0.150u      0.017s      0.026w     28 calls
bMatrix setup                       :      0.050u      0.017s      0.011w     28 calls
bMatrix pseudoinverse               :      0.033u      0.000s      0.001w     28 calls
New vector                          :      0.067u      0.000s      0.013w     28 calls
HF: Form C                          :      0.683u      0.000s      0.147w     30 calls
Grad: V T Perturb                   :      2.883u      0.000s      0.574w      3 calls
Grad: S                             :      0.033u      0.000s      0.008w      3 calls
Grad: JK                            :    180.850u      2.967s     37.068w      3 calls
JKGrad: Amn                         :     20.417u      0.800s      4.380w      3 calls
JKGrad: Awmn                        :     21.950u      0.850s      4.603w      3 calls
JKGrad: AB                          :      7.917u      0.083s      1.604w      3 calls
JKGrad: UV                          :      1.917u      0.150s      0.413w      3 calls
JKGrad: ABx                         :      1.900u      0.033s      0.382w      3 calls
JKGrad: Amnx                        :    125.783u      0.983s     25.478w      3 calls
Grad: XC                            :     31.050u      0.017s      6.213w      3 calls
V_xc gradient                       :      7.817p                          10855 calls

--------------------------------------------------------------------------------------
V: Grid                             :     13.967u      0.100s      2.831w      3 calls
JK: (A|Q)^-1                        :      5.967u      0.467s      1.211w      3 calls
JK: (A|mn)                          :     10.733u      0.000s      2.152w      3 calls
JK: (Q|mn)                          :      7.133u      0.000s      1.426w      3 calls
JK: (Q|mn) Write                    :      0.433u      0.250s      0.128w      3 calls
JK: (A|mn)^L                        :     10.500u      0.000s      2.101w      3 calls
JK: (Q|mn)^L                        :      7.183u      0.017s      1.435w      3 calls
JK: (Q|mn)^L Write                  :      0.467u      0.233s      0.144w      3 calls
JK: (Q|mn)^R                        :     13.700u      0.000s      2.742w      3 calls
JK: (Q|mn)^R Write                  :      0.833u      0.433s      0.250w      3 calls
HF: Form core H                     :      0.017u      0.000s      0.004w      3 calls
HF: Form S/X                        :      0.083u      0.017s      0.016w      3 calls
HF: Guess                           :      1.017u      0.017s      0.208w      3 calls
| SAD Guess                         :      0.950u      0.017s      0.194w      1 calls
HF: Form G                          :    253.967u     11.400s     53.112w     31 calls
| RV: Form V                        :    151.467u      0.367s     30.384w     31 calls
| | Properties                      :     40.064p                         112160 calls
| | Functional                      :     18.879p                         112160 calls
| | V_xc                            :     31.917p                         112160 calls
| JK: D                             :      0.000u      0.000s      0.002w     31 calls
| JK: USO2AO                        :      0.017u      0.000s      0.002w     31 calls
| JK: JK                            :    102.450u     11.033s     22.716w     31 calls
| | JK: (Q|mn) Read                 :      2.833u      1.383s      0.832w     62 calls
| | JK: J                           :      1.667u      0.000s      0.358w     62 calls
| | | JK: J1                        :      0.817u      0.000s      0.177w     62 calls
| | | JK: J2                        :      0.767u      0.000s      0.172w     62 calls
| | JK: K                           :     34.517u      0.033s      6.963w     62 calls
| | | JK: K1                        :     28.000u      0.000s      5.633w     62 calls
| | | JK: K2                        :      6.517u      0.033s      1.328w     62 calls
| | JK: (Q|mn)^L Read               :      3.067u      1.550s      0.869w     94 calls
| | JK: (Q|mn)^R Read               :      2.817u      1.350s      0.851w     94 calls
| | JK: wK                          :     41.517u      0.050s      8.394w     94 calls
| | | JK: wK1                       :     34.867u      0.017s      7.030w    188 calls
| | | JK: wK2                       :      6.650u      0.033s      1.359w     94 calls
| JK: AO2USO                        :      0.000u      0.000s      0.000w     31 calls
HF: Form F                          :      0.000u      0.000s      0.002w     31 calls
HF: Form D                          :      0.000u      0.000s      0.002w     31 calls
HF: DIIS                            :      0.433u      0.017s      0.077w     30 calls
| DIISManager::add_entry            :      0.133u      0.000s      0.012w     28 calls
| DIISManager::extrapolate          :      0.150u      0.017s      0.026w     28 calls
| | bMatrix setup                   :      0.050u      0.017s      0.011w     28 calls
| | bMatrix pseudoinverse           :      0.033u      0.000s      0.001w     28 calls
| | New vector                      :      0.067u      0.000s      0.013w     28 calls
HF: Form C                          :      0.683u      0.000s      0.147w     30 calls
Grad: V T Perturb                   :      2.883u      0.000s      0.574w      3 calls
Grad: S                             :      0.033u      0.000s      0.008w      3 calls
Grad: JK                            :    180.850u      2.967s     37.068w      3 calls
| JKGrad: Amn                       :     20.417u      0.800s      4.380w      3 calls
| JKGrad: Awmn                      :     21.950u      0.850s      4.603w      3 calls
| JKGrad: AB                        :      7.917u      0.083s      1.604w      3 calls
| JKGrad: UV                        :      1.917u      0.150s      0.413w      3 calls
| JKGrad: ABx                       :      1.900u      0.033s      0.382w      3 calls
| JKGrad: Amnx                      :    125.783u      0.983s     25.478w      3 calls
Grad: XC                            :     31.050u      0.017s      6.213w      3 calls
| Properties                        :      8.879p                          10855 calls
| Functional                        :      1.886p                          10855 calls
| V_xc gradient                     :      7.817p                          10855 calls

**************************************************************************************

Host: daniele-Precision-5750

Timers On : Mon May 31 17:15:39 2021
Timers Off: Mon May 31 17:17:32 2021

Wall Time:      112.87 seconds

                                                       Time (seconds)
Module                                       User      System        Wall        Calls
V: Grid                             :     13.850u      0.100s      2.812w      3 calls
JK: (A|Q)^-1                        :      6.017u      0.433s      1.212w      3 calls
JK: (A|mn)                          :     10.150u      0.000s      2.031w      3 calls
JK: (Q|mn)                          :      7.167u      0.017s      1.435w      3 calls
JK: (Q|mn) Write                    :      0.450u      0.217s      0.131w      3 calls
JK: (A|mn)^L                        :     10.283u      0.000s      2.059w      3 calls
JK: (Q|mn)^L                        :      7.183u      0.000s      1.436w      3 calls
JK: (Q|mn)^L Write                  :      0.483u      0.233s      0.144w      3 calls
JK: (Q|mn)^R                        :     13.383u      0.000s      2.680w      3 calls
JK: (Q|mn)^R Write                  :      0.883u      0.450s      0.262w      3 calls
HF: Form core H                     :      0.017u      0.000s      0.004w      3 calls
HF: Form S/X                        :      0.067u      0.000s      0.015w      3 calls
HF: Guess                           :      1.017u      0.033s      0.209w      3 calls
SAD Guess                           :      0.950u      0.033s      0.195w      1 calls
HF: Form G                          :    241.733u     11.317s     50.615w     31 calls
RV: Form V                          :    146.417u      0.217s     29.332w     31 calls
Properties                          :     45.948p                         124231 calls
Functional                          :     20.661p                         124231 calls
V_xc                                :     31.134p                         113270 calls
JK: D                               :      0.017u      0.000s      0.002w     31 calls
JK: USO2AO                          :      0.033u      0.000s      0.002w     31 calls
JK: JK                              :     95.217u     11.100s     21.272w     31 calls
JK: (Q|mn) Read                     :      2.733u      1.367s      0.830w     62 calls
JK: J                               :      1.750u      0.000s      0.335w     62 calls
JK: J1                              :      0.700u      0.000s      0.160w     62 calls
JK: J2                              :      0.650u      0.000s      0.167w     62 calls
JK: K                               :     31.483u      0.067s      6.347w     62 calls
JK: K1                              :     25.050u      0.000s      5.045w     62 calls
JK: K2                              :      6.433u      0.067s      1.300w     62 calls
JK: (Q|mn)^L Read                   :      3.067u      1.450s      0.852w     94 calls
JK: (Q|mn)^R Read                   :      2.783u      1.467s      0.841w     94 calls
JK: wK                              :     38.183u      0.017s      7.729w     94 calls
JK: wK1                             :     31.950u      0.000s      6.418w    188 calls
JK: wK2                             :      6.200u      0.017s      1.307w     94 calls
JK: AO2USO                          :      0.000u      0.000s      0.000w     31 calls
HF: Form F                          :      0.000u      0.000s      0.002w     31 calls
HF: Form D                          :      0.000u      0.000s      0.002w     31 calls
HF: DIIS                            :      0.383u      0.000s      0.075w     30 calls
DIISManager::add_entry              :      0.050u      0.000s      0.012w     28 calls
DIISManager::extrapolate            :      0.083u      0.000s      0.025w     28 calls
bMatrix setup                       :      0.050u      0.000s      0.011w     28 calls
bMatrix pseudoinverse               :      0.000u      0.000s      0.001w     28 calls
New vector                          :      0.033u      0.000s      0.012w     28 calls
HF: Form C                          :      0.717u      0.000s      0.143w     30 calls
Grad: V T Perturb                   :      2.767u      0.000s      0.553w      3 calls
Grad: S                             :      0.017u      0.000s      0.007w      3 calls
Grad: JK                            :    174.333u      2.683s     35.602w      3 calls
JKGrad: Amn                         :     19.317u      0.733s      4.113w      3 calls
JKGrad: Awmn                        :     21.217u      0.800s      4.422w      3 calls
JKGrad: AB                          :      7.667u      0.117s      1.559w      3 calls
JKGrad: UV                          :      1.900u      0.133s      0.406w      3 calls
JKGrad: ABx                         :      1.783u      0.017s      0.366w      3 calls
JKGrad: Amnx                        :    121.483u      0.833s     24.535w      3 calls
Grad: XC                            :     28.850u      0.017s      5.777w      3 calls
V_xc gradient                       :      7.257p                          10961 calls

--------------------------------------------------------------------------------------
V: Grid                             :     13.850u      0.100s      2.812w      3 calls
JK: (A|Q)^-1                        :      6.017u      0.433s      1.212w      3 calls
JK: (A|mn)                          :     10.150u      0.000s      2.031w      3 calls
JK: (Q|mn)                          :      7.167u      0.017s      1.435w      3 calls
JK: (Q|mn) Write                    :      0.450u      0.217s      0.131w      3 calls
JK: (A|mn)^L                        :     10.283u      0.000s      2.059w      3 calls
JK: (Q|mn)^L                        :      7.183u      0.000s      1.436w      3 calls
JK: (Q|mn)^L Write                  :      0.483u      0.233s      0.144w      3 calls
JK: (Q|mn)^R                        :     13.383u      0.000s      2.680w      3 calls
JK: (Q|mn)^R Write                  :      0.883u      0.450s      0.262w      3 calls
HF: Form core H                     :      0.017u      0.000s      0.004w      3 calls
HF: Form S/X                        :      0.067u      0.000s      0.015w      3 calls
HF: Guess                           :      1.017u      0.033s      0.209w      3 calls
| SAD Guess                         :      0.950u      0.033s      0.195w      1 calls
HF: Form G                          :    241.733u     11.317s     50.615w     31 calls
| RV: Form V                        :    146.417u      0.217s     29.332w     31 calls
| | Properties                      :     37.791p                         113270 calls
| | Functional                      :     18.798p                         113270 calls
| | V_xc                            :     31.134p                         113270 calls
| JK: D                             :      0.017u      0.000s      0.002w     31 calls
| JK: USO2AO                        :      0.033u      0.000s      0.002w     31 calls
| JK: JK                            :     95.217u     11.100s     21.272w     31 calls
| | JK: (Q|mn) Read                 :      2.733u      1.367s      0.830w     62 calls
| | JK: J                           :      1.750u      0.000s      0.335w     62 calls
| | | JK: J1                        :      0.700u      0.000s      0.160w     62 calls
| | | JK: J2                        :      0.650u      0.000s      0.167w     62 calls
| | JK: K                           :     31.483u      0.067s      6.347w     62 calls
| | | JK: K1                        :     25.050u      0.000s      5.045w     62 calls
| | | JK: K2                        :      6.433u      0.067s      1.300w     62 calls
| | JK: (Q|mn)^L Read               :      3.067u      1.450s      0.852w     94 calls
| | JK: (Q|mn)^R Read               :      2.783u      1.467s      0.841w     94 calls
| | JK: wK                          :     38.183u      0.017s      7.729w     94 calls
| | | JK: wK1                       :     31.950u      0.000s      6.418w    188 calls
| | | JK: wK2                       :      6.200u      0.017s      1.307w     94 calls
| JK: AO2USO                        :      0.000u      0.000s      0.000w     31 calls
HF: Form F                          :      0.000u      0.000s      0.002w     31 calls
HF: Form D                          :      0.000u      0.000s      0.002w     31 calls
HF: DIIS                            :      0.383u      0.000s      0.075w     30 calls
| DIISManager::add_entry            :      0.050u      0.000s      0.012w     28 calls
| DIISManager::extrapolate          :      0.083u      0.000s      0.025w     28 calls
| | bMatrix setup                   :      0.050u      0.000s      0.011w     28 calls
| | bMatrix pseudoinverse           :      0.000u      0.000s      0.001w     28 calls
| | New vector                      :      0.033u      0.000s      0.012w     28 calls
HF: Form C                          :      0.717u      0.000s      0.143w     30 calls
Grad: V T Perturb                   :      2.767u      0.000s      0.553w      3 calls
Grad: S                             :      0.017u      0.000s      0.007w      3 calls
Grad: JK                            :    174.333u      2.683s     35.602w      3 calls
| JKGrad: Amn                       :     19.317u      0.733s      4.113w      3 calls
| JKGrad: Awmn                      :     21.217u      0.800s      4.422w      3 calls
| JKGrad: AB                        :      7.667u      0.117s      1.559w      3 calls
| JKGrad: UV                        :      1.900u      0.133s      0.406w      3 calls
| JKGrad: ABx                       :      1.783u      0.017s      0.366w      3 calls
| JKGrad: Amnx                      :    121.483u      0.833s     24.535w      3 calls
Grad: XC                            :     28.850u      0.017s      5.777w      3 calls
| Properties                        :      8.157p                          10961 calls
| Functional                        :      1.864p                          10961 calls
| V_xc gradient                     :      7.257p                          10961 calls

**************************************************************************************

Host: daniele-Precision-5750

Timers On : Mon May 31 17:18:02 2021
Timers Off: Mon May 31 17:19:56 2021

Wall Time:      114.46 seconds

                                                       Time (seconds)
Module                                       User      System        Wall        Calls
V: Grid                             :     13.600u      0.067s      2.751w      3 calls
JK: (A|Q)^-1                        :      6.017u      0.400s      1.211w      3 calls
JK: (A|mn)                          :     10.800u      0.000s      2.163w      3 calls
JK: (Q|mn)                          :      7.100u      0.000s      1.424w      3 calls
JK: (Q|mn) Write                    :      0.450u      0.233s      0.127w      3 calls
JK: (A|mn)^L                        :     10.883u      0.017s      2.188w      3 calls
JK: (Q|mn)^L                        :      7.133u      0.000s      1.429w      3 calls
JK: (Q|mn)^L Write                  :      0.450u      0.233s      0.136w      3 calls
JK: (Q|mn)^R                        :     14.017u      0.017s      2.816w      3 calls
JK: (Q|mn)^R Write                  :      0.833u      0.417s      0.253w      3 calls
HF: Form core H                     :      0.017u      0.017s      0.004w      3 calls
HF: Form S/X                        :      0.067u      0.000s      0.016w      3 calls
HF: Guess                           :      1.000u      0.017s      0.204w      3 calls
SAD Guess                           :      0.950u      0.000s      0.191w      1 calls
HF: Form G                          :    248.967u     10.933s     51.980w     31 calls
RV: Form V                          :    146.150u      0.200s     29.286w     31 calls
Properties                          :     46.083p                         124366 calls
Functional                          :     20.683p                         124366 calls
V_xc                                :     31.105p                         113396 calls
JK: D                               :      0.000u      0.000s      0.002w     31 calls
JK: USO2AO                          :      0.017u      0.000s      0.002w     31 calls
JK: JK                              :    102.767u     10.733s     22.683w     31 calls
JK: (Q|mn) Read                     :      2.683u      1.400s      0.814w     62 calls
JK: J                               :      1.750u      0.017s      0.348w     62 calls
JK: J1                              :      0.850u      0.017s      0.168w     62 calls
JK: J2                              :      0.683u      0.000s      0.171w     62 calls
JK: K                               :     34.650u      0.033s      6.975w     62 calls
JK: K1                              :     27.883u      0.000s      5.617w     62 calls
JK: K2                              :      6.767u      0.033s      1.356w     62 calls
JK: (Q|mn)^L Read                   :      3.017u      1.450s      0.850w     94 calls
JK: (Q|mn)^R Read                   :      2.733u      1.483s      0.839w     94 calls
JK: wK                              :     42.100u      0.017s      8.515w     94 calls
JK: wK1                             :     35.200u      0.017s      7.106w    188 calls
JK: wK2                             :      6.850u      0.000s      1.405w     94 calls
JK: AO2USO                          :      0.000u      0.000s      0.000w     31 calls
HF: Form F                          :      0.000u      0.000s      0.002w     31 calls
HF: Form D                          :      0.000u      0.000s      0.002w     31 calls
HF: DIIS                            :      0.417u      0.050s      0.077w     30 calls
DIISManager::add_entry              :      0.117u      0.000s      0.012w     28 calls
DIISManager::extrapolate            :      0.150u      0.033s      0.025w     28 calls
bMatrix setup                       :      0.083u      0.000s      0.011w     28 calls
bMatrix pseudoinverse               :      0.033u      0.017s      0.001w     28 calls
New vector                          :      0.033u      0.017s      0.012w     28 calls
HF: Form C                          :      0.600u      0.017s      0.144w     30 calls
Grad: V T Perturb                   :      2.783u      0.017s      0.556w      3 calls
Grad: S                             :      0.000u      0.000s      0.007w      3 calls
Grad: JK                            :    174.200u      2.700s     35.564w      3 calls
JKGrad: Amn                         :     19.250u      0.767s      4.110w      3 calls
JKGrad: Awmn                        :     21.350u      0.783s      4.447w      3 calls
JKGrad: AB                          :      7.567u      0.117s      1.535w      3 calls
JKGrad: UV                          :      1.867u      0.167s      0.402w      3 calls
JKGrad: ABx                         :      1.783u      0.000s      0.360w      3 calls
JKGrad: Amnx                        :    121.433u      0.817s     24.512w      3 calls
Grad: XC                            :     29.600u      0.017s      5.923w      3 calls
V_xc gradient                       :      7.420p                          10970 calls

--------------------------------------------------------------------------------------
V: Grid                             :     13.600u      0.067s      2.751w      3 calls
JK: (A|Q)^-1                        :      6.017u      0.400s      1.211w      3 calls
JK: (A|mn)                          :     10.800u      0.000s      2.163w      3 calls
JK: (Q|mn)                          :      7.100u      0.000s      1.424w      3 calls
JK: (Q|mn) Write                    :      0.450u      0.233s      0.127w      3 calls
JK: (A|mn)^L                        :     10.883u      0.017s      2.188w      3 calls
JK: (Q|mn)^L                        :      7.133u      0.000s      1.429w      3 calls
JK: (Q|mn)^L Write                  :      0.450u      0.233s      0.136w      3 calls
JK: (Q|mn)^R                        :     14.017u      0.017s      2.816w      3 calls
JK: (Q|mn)^R Write                  :      0.833u      0.417s      0.253w      3 calls
HF: Form core H                     :      0.017u      0.017s      0.004w      3 calls
HF: Form S/X                        :      0.067u      0.000s      0.016w      3 calls
HF: Guess                           :      1.000u      0.017s      0.204w      3 calls
| SAD Guess                         :      0.950u      0.000s      0.191w      1 calls
HF: Form G                          :    248.967u     10.933s     51.980w     31 calls
| RV: Form V                        :    146.150u      0.200s     29.286w     31 calls
| | Properties                      :     37.675p                         113396 calls
| | Functional                      :     18.796p                         113396 calls
| | V_xc                            :     31.105p                         113396 calls
| JK: D                             :      0.000u      0.000s      0.002w     31 calls
| JK: USO2AO                        :      0.017u      0.000s      0.002w     31 calls
| JK: JK                            :    102.767u     10.733s     22.683w     31 calls
| | JK: (Q|mn) Read                 :      2.683u      1.400s      0.814w     62 calls
| | JK: J                           :      1.750u      0.017s      0.348w     62 calls
| | | JK: J1                        :      0.850u      0.017s      0.168w     62 calls
| | | JK: J2                        :      0.683u      0.000s      0.171w     62 calls
| | JK: K                           :     34.650u      0.033s      6.975w     62 calls
| | | JK: K1                        :     27.883u      0.000s      5.617w     62 calls
| | | JK: K2                        :      6.767u      0.033s      1.356w     62 calls
| | JK: (Q|mn)^L Read               :      3.017u      1.450s      0.850w     94 calls
| | JK: (Q|mn)^R Read               :      2.733u      1.483s      0.839w     94 calls
| | JK: wK                          :     42.100u      0.017s      8.515w     94 calls
| | | JK: wK1                       :     35.200u      0.017s      7.106w    188 calls
| | | JK: wK2                       :      6.850u      0.000s      1.405w     94 calls
| JK: AO2USO                        :      0.000u      0.000s      0.000w     31 calls
HF: Form F                          :      0.000u      0.000s      0.002w     31 calls
HF: Form D                          :      0.000u      0.000s      0.002w     31 calls
HF: DIIS                            :      0.417u      0.050s      0.077w     30 calls
| DIISManager::add_entry            :      0.117u      0.000s      0.012w     28 calls
| DIISManager::extrapolate          :      0.150u      0.033s      0.025w     28 calls
| | bMatrix setup                   :      0.083u      0.000s      0.011w     28 calls
| | bMatrix pseudoinverse           :      0.033u      0.017s      0.001w     28 calls
| | New vector                      :      0.033u      0.017s      0.012w     28 calls
HF: Form C                          :      0.600u      0.017s      0.144w     30 calls
Grad: V T Perturb                   :      2.783u      0.017s      0.556w      3 calls
Grad: S                             :      0.000u      0.000s      0.007w      3 calls
Grad: JK                            :    174.200u      2.700s     35.564w      3 calls
| JKGrad: Amn                       :     19.250u      0.767s      4.110w      3 calls
| JKGrad: Awmn                      :     21.350u      0.783s      4.447w      3 calls
| JKGrad: AB                        :      7.567u      0.117s      1.535w      3 calls
| JKGrad: UV                        :      1.867u      0.167s      0.402w      3 calls
| JKGrad: ABx                       :      1.783u      0.000s      0.360w      3 calls
| JKGrad: Amnx                      :    121.433u      0.817s     24.512w      3 calls
Grad: XC                            :     29.600u      0.017s      5.923w      3 calls
| Properties                        :      8.408p                          10970 calls
| Functional                        :      1.888p                          10970 calls
| V_xc gradient                     :      7.420p                          10970 calls

**************************************************************************************

Host: daniele-Precision-5750

Timers On : Mon May 31 17:20:27 2021
Timers Off: Mon May 31 17:22:45 2021

Wall Time:      138.53 seconds

                                                       Time (seconds)
Module                                       User      System        Wall        Calls
V: Grid                             :     18.333u      0.067s      3.721w      4 calls
JK: (A|Q)^-1                        :      8.017u      0.583s      1.615w      4 calls
JK: (A|mn)                          :     14.233u      0.000s      2.855w      4 calls
JK: (Q|mn)                          :      9.500u      0.017s      1.900w      4 calls
JK: (Q|mn) Write                    :      0.567u      0.300s      0.174w      4 calls
JK: (A|mn)^L                        :     14.567u      0.000s      2.920w      4 calls
JK: (Q|mn)^L                        :      9.483u      0.000s      1.900w      4 calls
JK: (Q|mn)^L Write                  :      0.617u      0.300s      0.186w      4 calls
JK: (Q|mn)^R                        :     18.783u      0.000s      3.762w      4 calls
JK: (Q|mn)^R Write                  :      1.150u      0.550s      0.343w      4 calls
HF: Form core H                     :      0.017u      0.000s      0.005w      4 calls
HF: Form S/X                        :      0.117u      0.000s      0.020w      4 calls
HF: Guess                           :      1.050u      0.000s      0.209w      4 calls
SAD Guess                           :      0.983u      0.000s      0.195w      1 calls
HF: Form G                          :    259.000u     11.733s     54.188w     33 calls
RV: Form V                          :    156.400u      0.317s     31.367w     33 calls
Properties                          :     52.472p                         133453 calls
Functional                          :     22.268p                         133453 calls
V_xc                                :     33.126p                         119024 calls
JK: D                               :      0.000u      0.000s      0.002w     33 calls
JK: USO2AO                          :      0.000u      0.000s      0.002w     33 calls
JK: JK                              :    102.550u     11.417s     22.810w     33 calls
JK: (Q|mn) Read                     :      3.067u      1.383s      0.882w     66 calls
JK: J                               :      1.867u      0.000s      0.380w     66 calls
JK: J1                              :      0.767u      0.000s      0.184w     66 calls
JK: J2                              :      0.817u      0.000s      0.187w     66 calls
JK: K                               :     34.000u      0.033s      6.864w     66 calls
JK: K1                              :     27.267u      0.017s      5.489w     66 calls
JK: K2                              :      6.733u      0.017s      1.372w     66 calls
JK: (Q|mn)^L Read                   :      3.200u      1.500s      0.899w    100 calls
JK: (Q|mn)^R Read                   :      3.000u      1.533s      0.908w    100 calls
JK: wK                              :     40.717u      0.000s      8.224w    100 calls
JK: wK1                             :     34.050u      0.000s      6.849w    200 calls
JK: wK2                             :      6.650u      0.000s      1.370w    100 calls
JK: AO2USO                          :      0.000u      0.000s      0.000w     33 calls
HF: Form F                          :      0.000u      0.000s      0.002w     33 calls
HF: Form D                          :      0.017u      0.000s      0.002w     33 calls
HF: DIIS                            :      0.333u      0.050s      0.078w     32 calls
DIISManager::add_entry              :      0.067u      0.017s      0.012w     29 calls
DIISManager::extrapolate            :      0.133u      0.033s      0.025w     29 calls
bMatrix setup                       :      0.050u      0.000s      0.011w     29 calls
bMatrix pseudoinverse               :      0.000u      0.000s      0.002w     29 calls
New vector                          :      0.083u      0.033s      0.012w     29 calls
HF: Form C                          :      0.783u      0.000s      0.153w     32 calls
Grad: V T Perturb                   :      3.767u      0.000s      0.757w      4 calls
Grad: S                             :      0.033u      0.000s      0.010w      4 calls
Grad: JK                            :    236.667u      3.767s     48.438w      4 calls
JKGrad: Amn                         :     26.300u      1.050s      5.645w      4 calls
JKGrad: Awmn                        :     29.033u      1.100s      6.070w      4 calls
JKGrad: AB                          :     10.367u      0.167s      2.116w      4 calls
JKGrad: UV                          :      2.517u      0.183s      0.535w      4 calls
JKGrad: ABx                         :      2.400u      0.050s      0.491w      4 calls
JKGrad: Amnx                        :    164.783u      1.167s     33.312w      4 calls
Grad: XC                            :     40.617u      0.017s      8.129w      4 calls
V_xc gradient                       :     10.228p                          14429 calls

--------------------------------------------------------------------------------------
V: Grid                             :     18.333u      0.067s      3.721w      4 calls
JK: (A|Q)^-1                        :      8.017u      0.583s      1.615w      4 calls
JK: (A|mn)                          :     14.233u      0.000s      2.855w      4 calls
JK: (Q|mn)                          :      9.500u      0.017s      1.900w      4 calls
JK: (Q|mn) Write                    :      0.567u      0.300s      0.174w      4 calls
JK: (A|mn)^L                        :     14.567u      0.000s      2.920w      4 calls
JK: (Q|mn)^L                        :      9.483u      0.000s      1.900w      4 calls
JK: (Q|mn)^L Write                  :      0.617u      0.300s      0.186w      4 calls
JK: (Q|mn)^R                        :     18.783u      0.000s      3.762w      4 calls
JK: (Q|mn)^R Write                  :      1.150u      0.550s      0.343w      4 calls
HF: Form core H                     :      0.017u      0.000s      0.005w      4 calls
HF: Form S/X                        :      0.117u      0.000s      0.020w      4 calls
HF: Guess                           :      1.050u      0.000s      0.209w      4 calls
| SAD Guess                         :      0.983u      0.000s      0.195w      1 calls
HF: Form G                          :    259.000u     11.733s     54.188w     33 calls
| RV: Form V                        :    156.400u      0.317s     31.367w     33 calls
| | Properties                      :     40.891p                         119024 calls
| | Functional                      :     19.766p                         119024 calls
| | V_xc                            :     33.126p                         119024 calls
| JK: D                             :      0.000u      0.000s      0.002w     33 calls
| JK: USO2AO                        :      0.000u      0.000s      0.002w     33 calls
| JK: JK                            :    102.550u     11.417s     22.810w     33 calls
| | JK: (Q|mn) Read                 :      3.067u      1.383s      0.882w     66 calls
| | JK: J                           :      1.867u      0.000s      0.380w     66 calls
| | | JK: J1                        :      0.767u      0.000s      0.184w     66 calls
| | | JK: J2                        :      0.817u      0.000s      0.187w     66 calls
| | JK: K                           :     34.000u      0.033s      6.864w     66 calls
| | | JK: K1                        :     27.267u      0.017s      5.489w     66 calls
| | | JK: K2                        :      6.733u      0.017s      1.372w     66 calls
| | JK: (Q|mn)^L Read               :      3.200u      1.500s      0.899w    100 calls
| | JK: (Q|mn)^R Read               :      3.000u      1.533s      0.908w    100 calls
| | JK: wK                          :     40.717u      0.000s      8.224w    100 calls
| | | JK: wK1                       :     34.050u      0.000s      6.849w    200 calls
| | | JK: wK2                       :      6.650u      0.000s      1.370w    100 calls
| JK: AO2USO                        :      0.000u      0.000s      0.000w     33 calls
HF: Form F                          :      0.000u      0.000s      0.002w     33 calls
HF: Form D                          :      0.017u      0.000s      0.002w     33 calls
HF: DIIS                            :      0.333u      0.050s      0.078w     32 calls
| DIISManager::add_entry            :      0.067u      0.017s      0.012w     29 calls
| DIISManager::extrapolate          :      0.133u      0.033s      0.025w     29 calls
| | bMatrix setup                   :      0.050u      0.000s      0.011w     29 calls
| | bMatrix pseudoinverse           :      0.000u      0.000s      0.002w     29 calls
| | New vector                      :      0.083u      0.033s      0.012w     29 calls
HF: Form C                          :      0.783u      0.000s      0.153w     32 calls
Grad: V T Perturb                   :      3.767u      0.000s      0.757w      4 calls
Grad: S                             :      0.033u      0.000s      0.010w      4 calls
Grad: JK                            :    236.667u      3.767s     48.438w      4 calls
| JKGrad: Amn                       :     26.300u      1.050s      5.645w      4 calls
| JKGrad: Awmn                      :     29.033u      1.100s      6.070w      4 calls
| JKGrad: AB                        :     10.367u      0.167s      2.116w      4 calls
| JKGrad: UV                        :      2.517u      0.183s      0.535w      4 calls
| JKGrad: ABx                       :      2.400u      0.050s      0.491w      4 calls
| JKGrad: Amnx                      :    164.783u      1.167s     33.312w      4 calls
Grad: XC                            :     40.617u      0.017s      8.129w      4 calls
| Properties                        :     11.582p                          14429 calls
| Functional                        :      2.502p                          14429 calls
| V_xc gradient                     :     10.228p                          14429 calls

**************************************************************************************

Host: daniele-Precision-5750

Timers On : Mon May 31 17:23:15 2021
Timers Off: Mon May 31 17:28:20 2021

Wall Time:      304.05 seconds

                                                       Time (seconds)
Module                                       User      System        Wall        Calls
V: Grid                             :     40.450u      0.117s      8.143w      9 calls
JK: (A|Q)^-1                        :     17.683u      1.233s      3.564w      9 calls
JK: (A|mn)                          :     32.100u      0.017s      6.434w      9 calls
JK: (Q|mn)                          :     21.100u      0.017s      4.225w      9 calls
JK: (Q|mn) Write                    :      1.267u      0.633s      0.383w      9 calls
JK: (A|mn)^L                        :     32.550u      0.000s      6.526w      9 calls
JK: (Q|mn)^L                        :     21.150u      0.017s      4.240w      9 calls
JK: (Q|mn)^L Write                  :      1.300u      0.617s      0.381w      9 calls
JK: (Q|mn)^R                        :     41.950u      0.000s      8.405w      9 calls
JK: (Q|mn)^R Write                  :      2.717u      1.317s      0.800w      9 calls
HF: Form core H                     :      0.033u      0.000s      0.010w      9 calls
HF: Form S/X                        :      0.250u      0.000s      0.043w      9 calls
HF: Guess                           :      1.017u      0.017s      0.208w      9 calls
SAD Guess                           :      0.950u      0.017s      0.194w      1 calls
HF: Form G                          :    558.667u     24.633s    116.688w     70 calls
RV: Form V                          :    326.350u      0.467s     65.397w     70 calls
Properties                          :    110.015p                         284801 calls
Functional                          :     47.249p                         284801 calls
V_xc                                :     69.135p                         252351 calls
JK: D                               :      0.017u      0.000s      0.005w     70 calls
JK: USO2AO                          :      0.000u      0.000s      0.004w     70 calls
JK: JK                              :    232.117u     24.133s     51.266w     70 calls
JK: (Q|mn) Read                     :      6.300u      3.167s      1.847w    140 calls
JK: J                               :      3.917u      0.000s      0.776w    140 calls
JK: J1                              :      1.583u      0.000s      0.374w    140 calls
JK: J2                              :      1.817u      0.000s      0.383w    140 calls
JK: K                               :     78.917u      0.100s     15.923w    140 calls
JK: K1                              :     64.133u      0.000s     12.894w    140 calls
JK: K2                              :     14.783u      0.100s      3.025w    140 calls
JK: (Q|mn)^L Read                   :      6.650u      3.150s      1.912w    211 calls
JK: (Q|mn)^R Read                   :      6.417u      3.300s      1.921w    211 calls
JK: wK                              :     94.467u      0.117s     19.082w    211 calls
JK: wK1                             :     79.133u      0.050s     15.945w    422 calls
JK: wK2                             :     15.317u      0.067s      3.128w    211 calls
JK: AO2USO                          :      0.000u      0.000s      0.000w     70 calls
HF: Form F                          :      0.000u      0.000s      0.004w     70 calls
HF: Form D                          :      0.017u      0.000s      0.004w     70 calls
HF: DIIS                            :      0.700u      0.050s      0.165w     69 calls
DIISManager::add_entry              :      0.133u      0.017s      0.027w     61 calls
DIISManager::extrapolate            :      0.150u      0.017s      0.049w     61 calls
bMatrix setup                       :      0.050u      0.000s      0.021w     61 calls
bMatrix pseudoinverse               :      0.033u      0.000s      0.003w     61 calls
New vector                          :      0.067u      0.017s      0.024w     61 calls
HF: Form C                          :      1.683u      0.017s      0.334w     69 calls
Grad: V T Perturb                   :      8.417u      0.000s      1.678w      9 calls
Grad: S                             :      0.050u      0.000s      0.022w      9 calls
Grad: JK                            :    530.067u      8.300s    108.331w      9 calls
JKGrad: Amn                         :     59.917u      2.317s     12.800w      9 calls
JKGrad: Awmn                        :     65.567u      2.367s     13.656w      9 calls
JKGrad: AB                          :     23.150u      0.417s      4.712w      9 calls
JKGrad: UV                          :      5.633u      0.400s      1.213w      9 calls
JKGrad: ABx                         :      5.350u      0.117s      1.098w      9 calls
JKGrad: Amnx                        :    367.567u      2.533s     74.250w      9 calls
Grad: XC                            :     89.133u      0.067s     17.858w      9 calls
V_xc gradient                       :     22.608p                          32450 calls

--------------------------------------------------------------------------------------
V: Grid                             :     40.450u      0.117s      8.143w      9 calls
JK: (A|Q)^-1                        :     17.683u      1.233s      3.564w      9 calls
JK: (A|mn)                          :     32.100u      0.017s      6.434w      9 calls
JK: (Q|mn)                          :     21.100u      0.017s      4.225w      9 calls
JK: (Q|mn) Write                    :      1.267u      0.633s      0.383w      9 calls
JK: (A|mn)^L                        :     32.550u      0.000s      6.526w      9 calls
JK: (Q|mn)^L                        :     21.150u      0.017s      4.240w      9 calls
JK: (Q|mn)^L Write                  :      1.300u      0.617s      0.381w      9 calls
JK: (Q|mn)^R                        :     41.950u      0.000s      8.405w      9 calls
JK: (Q|mn)^R Write                  :      2.717u      1.317s      0.800w      9 calls
HF: Form core H                     :      0.033u      0.000s      0.010w      9 calls
HF: Form S/X                        :      0.250u      0.000s      0.043w      9 calls
HF: Guess                           :      1.017u      0.017s      0.208w      9 calls
| SAD Guess                         :      0.950u      0.017s      0.194w      1 calls
HF: Form G                          :    558.667u     24.633s    116.688w     70 calls
| RV: Form V                        :    326.350u      0.467s     65.397w     70 calls
| | Properties                      :     84.778p                         252351 calls
| | Functional                      :     41.680p                         252351 calls
| | V_xc                            :     69.135p                         252351 calls
| JK: D                             :      0.017u      0.000s      0.005w     70 calls
| JK: USO2AO                        :      0.000u      0.000s      0.004w     70 calls
| JK: JK                            :    232.117u     24.133s     51.266w     70 calls
| | JK: (Q|mn) Read                 :      6.300u      3.167s      1.847w    140 calls
| | JK: J                           :      3.917u      0.000s      0.776w    140 calls
| | | JK: J1                        :      1.583u      0.000s      0.374w    140 calls
| | | JK: J2                        :      1.817u      0.000s      0.383w    140 calls
| | JK: K                           :     78.917u      0.100s     15.923w    140 calls
| | | JK: K1                        :     64.133u      0.000s     12.894w    140 calls
| | | JK: K2                        :     14.783u      0.100s      3.025w    140 calls
| | JK: (Q|mn)^L Read               :      6.650u      3.150s      1.912w    211 calls
| | JK: (Q|mn)^R Read               :      6.417u      3.300s      1.921w    211 calls
| | JK: wK                          :     94.467u      0.117s     19.082w    211 calls
| | | JK: wK1                       :     79.133u      0.050s     15.945w    422 calls
| | | JK: wK2                       :     15.317u      0.067s      3.128w    211 calls
| JK: AO2USO                        :      0.000u      0.000s      0.000w     70 calls
HF: Form F                          :      0.000u      0.000s      0.004w     70 calls
HF: Form D                          :      0.017u      0.000s      0.004w     70 calls
HF: DIIS                            :      0.700u      0.050s      0.165w     69 calls
[...]
JK: (A|mn)                          :      7.300u      0.000s      1.455w      2 calls
JK: (Q|mn)                          :      8.617u      0.000s      1.725w      2 calls
JK: (Q|mn) Write                    :      0.517u      0.267s      0.158w      2 calls
JK: (A|mn)^L                        :      7.333u      0.000s      1.469w      2 calls
JK: (Q|mn)^L                        :      8.800u      0.000s      1.760w      2 calls
JK: (Q|mn)^L Write                  :      0.483u      0.250s      0.143w      2 calls
JK: (Q|mn)^R                        :      9.433u      0.000s      1.888w      2 calls
JK: (Q|mn)^R Write                  :      0.683u      0.433s      0.258w      2 calls
HF: Form core H                     :      0.017u      0.000s      0.004w      1 calls
HF: Form S/X                        :      0.050u      0.017s      0.012w      1 calls
HF: Guess                           :      0.983u      0.000s      0.197w      1 calls
| SAD Guess                         :      0.917u      0.000s      0.184w      1 calls
HF: Form G                          :    214.300u      8.533s     44.765w      9 calls
| RV: Form V                        :     87.083u      0.083s     17.437w      9 calls
| | Properties                      :     23.946p                          33444 calls
| | Functional                      :      5.223p                          33444 calls
| | V_xc                            :     23.039p                          33444 calls
| JK: D                             :      0.000u      0.000s      0.001w      9 calls
| JK: USO2AO                        :      0.000u      0.000s      0.001w      9 calls
| JK: JK                            :    127.217u      8.450s     27.321w      9 calls
| | JK: (Q|mn) Read                 :      2.017u      1.250s      0.738w     18 calls
| | JK: J                           :      1.717u      0.017s      0.344w     18 calls
| | | JK: J1                        :      0.717u      0.000s      0.150w     18 calls
| | | JK: J2                        :      0.917u      0.000s      0.186w     18 calls
| | JK: K                           :     58.433u      0.017s     11.703w     18 calls
| | | JK: K1                        :     53.250u      0.000s     10.649w     18 calls
| | | JK: K2                        :      5.183u      0.017s      1.052w     18 calls
| | JK: (Q|mn)^L Read               :      2.517u      1.200s      0.754w     28 calls
| | JK: (Q|mn)^R Read               :      2.017u      1.333s      0.761w     28 calls
| | JK: wK                          :     49.350u      0.017s      9.891w     28 calls
| | | JK: wK1                       :     43.833u      0.017s      8.772w     56 calls
| | | JK: wK2                       :      5.500u      0.000s      1.118w     28 calls
| JK: AO2USO                        :      0.000u      0.000s      0.000w      9 calls
HF: Form F                          :      0.000u      0.000s      0.001w      9 calls
HF: Form D                          :      0.000u      0.000s      0.001w      9 calls
HF: DIIS                            :      0.200u      0.017s      0.046w      8 calls
| DIISManager::add_entry            :      0.033u      0.017s      0.008w      8 calls
| DIISManager::extrapolate          :      0.050u      0.000s      0.014w      8 calls
| | bMatrix setup                   :      0.017u      0.000s      0.006w      8 calls
| | bMatrix pseudoinverse           :      0.000u      0.000s      0.000w      8 calls
| | New vector                      :      0.033u      0.000s      0.007w      8 calls
HF: Form C                          :      0.467u      0.017s      0.096w      8 calls

**************************************************************************************

Host: daniele-Precision-5750

Timers On : Mon May 31 17:54:14 2021
Timers Off: Mon May 31 17:55:12 2021

Wall Time:       57.74 seconds

                                                       Time (seconds)
Module                                       User      System        Wall        Calls
V: Grid                             :      4.617u      0.050s      0.958w      1 calls
JK: (A|Q)^-1                        :      3.400u      0.450s      0.719w      1 calls
JK: (A|mn)                          :      7.117u      0.000s      1.425w      2 calls
JK: (Q|mn)                          :      8.733u      0.000s      1.750w      2 calls
JK: (Q|mn) Write                    :      0.550u      0.267s      0.158w      2 calls
JK: (A|mn)^L                        :      6.933u      0.000s      1.392w      2 calls
JK: (Q|mn)^L                        :      8.667u      0.000s      1.730w      2 calls
JK: (Q|mn)^L Write                  :      0.533u      0.267s      0.157w      2 calls
JK: (Q|mn)^R                        :      8.833u      0.000s      1.769w      2 calls
JK: (Q|mn)^R Write                  :      0.683u      0.467s      0.272w      2 calls
HF: Form core H                     :      0.017u      0.000s      0.002w      1 calls
HF: Form S/X                        :      0.050u      0.017s      0.012w      1 calls
HF: Guess                           :      0.967u      0.017s      0.197w      1 calls
SAD Guess                           :      0.917u      0.017s      0.184w      1 calls
HF: Form G                          :    210.367u      8.300s     43.934w      9 calls
RV: Form V                          :     87.400u      0.033s     17.496w      9 calls
Properties                          :     24.203p                          33264 calls
Functional                          :      5.181p                          33264 calls
V_xc                                :     23.011p                          33264 calls
JK: D                               :      0.000u      0.000s      0.001w      9 calls
JK: USO2AO                          :      0.017u      0.017s      0.001w      9 calls
JK: JK                              :    122.950u      8.250s     26.433w      9 calls
JK: (Q|mn) Read                     :      2.083u      1.267s      0.749w     18 calls
JK: J                               :      1.733u      0.000s      0.343w     18 calls
JK: J1                              :      0.733u      0.000s      0.150w     18 calls
JK: J2                              :      0.917u      0.000s      0.185w     18 calls
JK: K                               :     55.950u      0.000s     11.211w     18 calls
JK: K1                              :     50.750u      0.000s     10.167w     18 calls
JK: K2                              :      5.200u      0.000s      1.042w     18 calls
JK: (Q|mn)^L Read                   :      2.533u      1.233s      0.758w     28 calls
JK: (Q|mn)^R Read                   :      2.017u      1.333s      0.767w     28 calls
JK: wK                              :     47.450u      0.000s      9.483w     28 calls
JK: wK1                             :     41.817u      0.000s      8.384w     56 calls
JK: wK2                             :      5.633u      0.000s      1.098w     28 calls
JK: AO2USO                          :      0.000u      0.000s      0.000w      9 calls
HF: Form F                          :      0.000u      0.000s      0.001w      9 calls
HF: Form D                          :      0.017u      0.000s      0.001w      9 calls
HF: DIIS                            :      0.183u      0.083s      0.045w      8 calls
DIISManager::add_entry              :      0.067u      0.017s      0.007w      8 calls
DIISManager::extrapolate            :      0.050u      0.067s      0.014w      8 calls
bMatrix setup                       :      0.017u      0.067s      0.006w      8 calls
bMatrix pseudoinverse               :      0.000u      0.000s      0.000w      8 calls
New vector                          :      0.033u      0.000s      0.007w      8 calls
HF: Form C                          :      0.433u      0.000s      0.093w      8 calls

--------------------------------------------------------------------------------------
V: Grid                             :      4.617u      0.050s      0.958w      1 calls
JK: (A|Q)^-1                        :      3.400u      0.450s      0.719w      1 calls
JK: (A|mn)                          :      7.117u      0.000s      1.425w      2 calls
JK: (Q|mn)                          :      8.733u      0.000s      1.750w      2 calls
JK: (Q|mn) Write                    :      0.550u      0.267s      0.158w      2 calls
JK: (A|mn)^L                        :      6.933u      0.000s      1.392w      2 calls
JK: (Q|mn)^L                        :      8.667u      0.000s      1.730w      2 calls
JK: (Q|mn)^L Write                  :      0.533u      0.267s      0.157w      2 calls
JK: (Q|mn)^R                        :      8.833u      0.000s      1.769w      2 calls
JK: (Q|mn)^R Write                  :      0.683u      0.467s      0.272w      2 calls
HF: Form core H                     :      0.017u      0.000s      0.002w      1 calls
HF: Form S/X                        :      0.050u      0.017s      0.012w      1 calls
HF: Guess                           :      0.967u      0.017s      0.197w      1 calls
| SAD Guess                         :      0.917u      0.017s      0.184w      1 calls
HF: Form G                          :    210.367u      8.300s     43.934w      9 calls
| RV: Form V                        :     87.400u      0.033s     17.496w      9 calls
| | Properties                      :     24.203p                          33264 calls
| | Functional                      :      5.181p                          33264 calls
| | V_xc                            :     23.011p                          33264 calls
| JK: D                             :      0.000u      0.000s      0.001w      9 calls
| JK: USO2AO                        :      0.017u      0.017s      0.001w      9 calls
| JK: JK                            :    122.950u      8.250s     26.433w      9 calls
| | JK: (Q|mn) Read                 :      2.083u      1.267s      0.749w     18 calls
| | JK: J                           :      1.733u      0.000s      0.343w     18 calls
| | | JK: J1                        :      0.733u      0.000s      0.150w     18 calls
| | | JK: J2                        :      0.917u      0.000s      0.185w     18 calls
| | JK: K                           :     55.950u      0.000s     11.211w     18 calls
| | | JK: K1                        :     50.750u      0.000s     10.167w     18 calls
| | | JK: K2                        :      5.200u      0.000s      1.042w     18 calls
| | JK: (Q|mn)^L Read               :      2.533u      1.233s      0.758w     28 calls
| | JK: (Q|mn)^R Read               :      2.017u      1.333s      0.767w     28 calls
| | JK: wK                          :     47.450u      0.000s      9.483w     28 calls
| | | JK: wK1                       :     41.817u      0.000s      8.384w     56 calls
| | | JK: wK2                       :      5.633u      0.000s      1.098w     28 calls
| JK: AO2USO                        :      0.000u      0.000s      0.000w      9 calls
HF: Form F                          :      0.000u      0.000s      0.001w      9 calls
HF: Form D                          :      0.017u      0.000s      0.001w      9 calls
HF: DIIS                            :      0.183u      0.083s      0.045w      8 calls
| DIISManager::add_entry            :      0.067u      0.017s      0.007w      8 calls
| DIISManager::extrapolate          :      0.050u      0.067s      0.014w      8 calls
| | bMatrix setup                   :      0.017u      0.067s      0.006w      8 calls
| | bMatrix pseudoinverse           :      0.000u      0.000s      0.000w      8 calls
| | New vector                      :      0.033u      0.000s      0.007w      8 calls
HF: Form C                          :      0.433u      0.000s      0.093w      8 calls

**************************************************************************************

Host: daniele-Precision-5750

Timers On : Mon May 31 17:55:42 2021
Timers Off: Mon May 31 17:56:41 2021

Wall Time:       59.04 seconds

                                                       Time (seconds)
Module                                       User      System        Wall        Calls
V: Grid                             :      4.317u      0.050s      0.883w      1 calls
JK: (A|Q)^-1                        :      3.267u      0.417s      0.679w      1 calls
JK: (A|mn)                          :      6.867u      0.000s      1.376w      2 calls
JK: (Q|mn)                          :      8.733u      0.000s      1.746w      2 calls
JK: (Q|mn) Write                    :      0.533u      0.267s      0.158w      2 calls
JK: (A|mn)^L                        :      6.950u      0.000s      1.391w      2 calls
JK: (Q|mn)^L                        :      8.667u      0.000s      1.732w      2 calls
JK: (Q|mn)^L Write                  :      0.467u      0.233s      0.143w      2 calls
JK: (Q|mn)^R                        :      8.750u      0.000s      1.753w      2 calls
JK: (Q|mn)^R Write                  :      0.683u      0.500s      0.294w      2 calls
HF: Form core H                     :      0.017u      0.017s      0.002w      1 calls
HF: Form S/X                        :      0.067u      0.000s      0.012w      1 calls
HF: Guess                           :      0.967u      0.000s      0.197w      1 calls
SAD Guess                           :      0.917u      0.000s      0.184w      1 calls
HF: Form G                          :    218.667u      8.483s     45.619w      9 calls
RV: Form V                          :     86.833u      0.067s     17.377w      9 calls
Properties                          :     23.897p                          33318 calls
Functional                          :      5.207p                          33318 calls
V_xc                                :     22.935p                          33318 calls
JK: D                               :      0.000u      0.000s      0.001w      9 calls
JK: USO2AO                          :      0.000u      0.000s      0.001w      9 calls
JK: JK                              :    131.833u      8.417s     28.236w      9 calls
JK: (Q|mn) Read                     :      2.050u      1.283s      0.740w     18 calls
JK: J                               :      1.683u      0.000s      0.343w     18 calls
JK: J1                              :      0.717u      0.000s      0.149w     18 calls
JK: J2                              :      0.933u      0.000s      0.186w     18 calls
JK: K                               :     58.700u      0.000s     11.753w     18 calls
JK: K1                              :     53.350u      0.000s     10.681w     18 calls
JK: K2                              :      5.350u      0.000s      1.071w     18 calls
JK: (Q|mn)^L Read                   :      2.567u      1.217s      0.747w     28 calls
JK: (Q|mn)^R Read                   :      1.883u      1.283s      0.730w     28 calls
JK: wK                              :     53.900u      0.033s     10.807w     28 calls
JK: wK1                             :     48.200u      0.017s      9.644w     56 calls
JK: wK2                             :      5.683u      0.017s      1.161w     28 calls
JK: AO2USO                          :      0.000u      0.000s      0.000w      9 calls
HF: Form F                          :      0.000u      0.000s      0.001w      9 calls
HF: Form D                          :      0.017u      0.000s      0.001w      9 calls
HF: DIIS                            :      0.217u      0.017s      0.045w      8 calls
DIISManager::add_entry              :      0.050u      0.000s      0.007w      8 calls
DIISManager::extrapolate            :      0.067u      0.017s      0.014w      8 calls
bMatrix setup                       :      0.017u      0.017s      0.006w      8 calls
bMatrix pseudoinverse               :      0.000u      0.000s      0.000w      8 calls
New vector                          :      0.050u      0.000s      0.007w      8 calls
HF: Form C                          :      0.467u      0.000s      0.094w      8 calls

--------------------------------------------------------------------------------------
V: Grid                             :      4.317u      0.050s      0.883w      1 calls
JK: (A|Q)^-1                        :      3.267u      0.417s      0.679w      1 calls
JK: (A|mn)                          :      6.867u      0.000s      1.376w      2 calls
JK: (Q|mn)                          :      8.733u      0.000s      1.746w      2 calls
JK: (Q|mn) Write                    :      0.533u      0.267s      0.158w      2 calls
JK: (A|mn)^L                        :      6.950u      0.000s      1.391w      2 calls
JK: (Q|mn)^L                        :      8.667u      0.000s      1.732w      2 calls
JK: (Q|mn)^L Write                  :      0.467u      0.233s      0.143w      2 calls
JK: (Q|mn)^R                        :      8.750u      0.000s      1.753w      2 calls
JK: (Q|mn)^R Write                  :      0.683u      0.500s      0.294w      2 calls
HF: Form core H                     :      0.017u      0.017s      0.002w      1 calls
HF: Form S/X                        :      0.067u      0.000s      0.012w      1 calls
HF: Guess                           :      0.967u      0.000s      0.197w      1 calls
| SAD Guess                         :      0.917u      0.000s      0.184w      1 calls
HF: Form G                          :    218.667u      8.483s     45.619w      9 calls
| RV: Form V                        :     86.833u      0.067s     17.377w      9 calls
| | Properties                      :     23.897p                          33318 calls
| | Functional                      :      5.207p                          33318 calls
| | V_xc                            :     22.935p                          33318 calls
| JK: D                             :      0.000u      0.000s      0.001w      9 calls
| JK: USO2AO                        :      0.000u      0.000s      0.001w      9 calls
| JK: JK                            :    131.833u      8.417s     28.236w      9 calls
| | JK: (Q|mn) Read                 :      2.050u      1.283s      0.740w     18 calls
| | JK: J                           :      1.683u      0.000s      0.343w     18 calls
| | | JK: J1                        :      0.717u      0.000s      0.149w     18 calls
| | | JK: J2                        :      0.933u      0.000s      0.186w     18 calls
| | JK: K                           :     58.700u      0.000s     11.753w     18 calls
| | | JK: K1                        :     53.350u      0.000s     10.681w     18 calls
| | | JK: K2                        :      5.350u      0.000s      1.071w     18 calls
| | JK: (Q|mn)^L Read               :      2.567u      1.217s      0.747w     28 calls
| | JK: (Q|mn)^R Read               :      1.883u      1.283s      0.730w     28 calls
| | JK: wK                          :     53.900u      0.033s     10.807w     28 calls
| | | JK: wK1                       :     48.200u      0.017s      9.644w     56 calls
| | | JK: wK2                       :      5.683u      0.017s      1.161w     28 calls
| JK: AO2USO                        :      0.000u      0.000s      0.000w      9 calls
HF: Form F                          :      0.000u      0.000s      0.001w      9 calls
HF: Form D                          :      0.017u      0.000s      0.001w      9 calls
HF: DIIS                            :      0.217u      0.017s      0.045w      8 calls
| DIISManager::add_entry            :      0.050u      0.000s      0.007w      8 calls
| DIISManager::extrapolate          :      0.067u      0.017s      0.014w      8 calls
| | bMatrix setup                   :      0.017u      0.017s      0.006w      8 calls
| | bMatrix pseudoinverse           :      0.000u      0.000s      0.000w      8 calls
| | New vector                      :      0.050u      0.000s      0.007w      8 calls
HF: Form C                          :      0.467u      0.000s      0.094w      8 calls

**************************************************************************************
