
    -----------------------------------------------------------------------
          Psi4: An Open-Source Ab Initio Electronic Structure Package
                               Psi4 1.3.2 release

                         Git: Rev {HEAD} ecbda83 


    R. M. Parrish, L. A. Burns, D. G. A. Smith, A. C. Simmonett,
    A. E. DePrince III, E. G. Hohenstein, U. Bozkaya, A. Yu. Sokolov,
    R. Di Remigio, R. M. Richard, J. F. Gonthier, A. M. James,
    H. R. McAlexander, A. Kumar, M. Saitow, X. Wang, B. P. Pritchard,
    P. Verma, H. F. Schaefer III, K. Patkowski, R. A. King, E. F. Valeev,
    F. A. Evangelista, J. M. Turney, T. D. Crawford, and C. D. Sherrill,
    J. Chem. Theory Comput. 13(7) pp 3185--3197 (2017).
    (doi: 10.1021/acs.jctc.7b00174)


                         Additional Contributions by
    P. Kraus, H. Kruse, M. H. Lechner, M. C. Schieber, R. A. Shaw,
    A. Alenaizan, R. Galvelis, Z. L. Glick, S. Lehtola, and J. P. Misiewicz

    -----------------------------------------------------------------------


    Psi4 started on: Monday, 24 May 2021 07:44PM

    Process ID: 71108
    Host:       daniele-Precision-5750
    PSIDATADIR: /home/daniele/anaconda3/envs/poltype/share/psi4
    Memory:     500.0 MiB
    Threads:    1
    
  ==> Input File <==

--------------------------------------------------------------------------
molecule { 
0 1
C -0.437568473138 -0.574869709743 0.243880799048
C 0.437678502075 0.574511994890 -0.244679205663
C -1.919242870275 -0.352883508646 -0.038584538039
C 1.919144323073 0.353215831012 0.039327122976
H -0.283736855076 -0.710065698261 1.321551206799
H -0.106485150772 -1.505675816440 -0.232850116858
H 0.105973116515 1.505488589706 0.231343592889
H 0.284682738545 0.709131888898 -1.322559839433
H -2.099258621176 -0.246681238619 -1.112496343316
H -2.276791544886 0.558004108310 0.450723719566
H -2.526276896487 -1.187816620551 0.322251744820
H 2.278264863372 -0.555565086291 -0.452725264816
H 2.097645958953 0.243375633095 1.113155282177
H 2.525845679969 1.190106584152 -0.317729322657
}
memory 700MB
set_num_threads(8)
psi4_io.set_default_path("/home/daniele/PSI4_sctatch/Psi4-butane")
set freeze_core True
set PROPERTIES_ORIGIN ["COM"]
set cubeprop_tasks ['esp']
E, wfn = energy('mp2/6-311G**',properties=['dipole'],return_wfn=True)
cubeprop(wfn)
fchk(wfn, "butane-dma.fchk")
clean()
--------------------------------------------------------------------------

  Memory set to 667.572 MiB by Python driver.
  Threads set to 8 by Python driver.
    SCF Algorithm Type (re)set to DF.

*** tstart() called on daniele-Precision-5750
*** at Mon May 24 19:44:30 2021

   => Loading Basis Set <=

    Name: 6-311G**
    Role: ORBITAL
    Keyword: BASIS
    atoms 1-4  entry C          line   113 file /home/daniele/anaconda3/envs/poltype/share/psi4/basis/6-311gss.gbs 
    atoms 5-14 entry H          line    32 file /home/daniele/anaconda3/envs/poltype/share/psi4/basis/6-311gss.gbs 


         ---------------------------------------------------------
                                   SCF
               by Justin Turney, Rob Parrish, Andy Simmonett
                          and Daniel G. A. Smith
                              RHF Reference
                        8 Threads,    667 MiB Core
         ---------------------------------------------------------

  ==> Geometry <==

    Molecular point group: c1
    Full point group: C1

    Geometry (in Angstrom), charge = 0, multiplicity = 1:

       Center              X                  Y                   Z               Mass       
    ------------   -----------------  -----------------  -----------------  -----------------
         C           -0.437568473138    -0.574869709743     0.243880799048    12.000000000000
         C            0.437678502075     0.574511994890    -0.244679205663    12.000000000000
         C           -1.919242870275    -0.352883508646    -0.038584538039    12.000000000000
         C            1.919144323073     0.353215831012     0.039327122976    12.000000000000
         H           -0.283736855076    -0.710065698261     1.321551206799     1.007825032230
         H           -0.106485150772    -1.505675816440    -0.232850116858     1.007825032230
         H            0.105973116515     1.505488589706     0.231343592889     1.007825032230
         H            0.284682738545     0.709131888898    -1.322559839433     1.007825032230
         H           -2.099258621176    -0.246681238619    -1.112496343316     1.007825032230
         H           -2.276791544886     0.558004108310     0.450723719566     1.007825032230
         H           -2.526276896487    -1.187816620551     0.322251744820     1.007825032230
         H            2.278264863372    -0.555565086291    -0.452725264816     1.007825032230
         H            2.097645958953     0.243375633095     1.113155282177     1.007825032230
         H            2.525845679969     1.190106584152    -0.317729322657     1.007825032230

  Running in c1 symmetry.

  Rotational constants: A =      0.78347  B =      0.12179  C =      0.11434 [cm^-1]
  Rotational constants: A =  23487.80280  B =   3651.02936  C =   3427.84153 [MHz]
  Nuclear repulsion =  130.805031763751003

  Charge       = 0
  Multiplicity = 1
  Electrons    = 34
  Nalpha       = 17
  Nbeta        = 17

  ==> Algorithm <==

  SCF Algorithm Type is DF.
  DIIS enabled.
  MOM disabled.
  Fractional occupation disabled.
  Guess Type is SAD.
  Energy threshold   = 1.00e-08
  Density threshold  = 1.00e-08
  Integral threshold = 0.00e+00

  ==> Primary Basis <==

  Basis Set: 6-311G**
    Blend: 6-311G**
    Number of shells: 72
    Number of basis function: 132
    Number of Cartesian functions: 136
    Spherical Harmonics?: true
    Max angular momentum: 2

   => Loading Basis Set <=

    Name: (6-311G** AUX)
    Role: JKFIT
    Keyword: DF_BASIS_SCF
    atoms 1-4  entry C          line   125 file /home/daniele/anaconda3/envs/poltype/share/psi4/basis/cc-pvtz-jkfit.gbs 
    atoms 5-14 entry H          line    51 file /home/daniele/anaconda3/envs/poltype/share/psi4/basis/cc-pvtz-jkfit.gbs 

  ==> Pre-Iterations <==

   -------------------------------------------------------
    Irrep   Nso     Nmo     Nalpha   Nbeta   Ndocc  Nsocc
   -------------------------------------------------------
     A        132     132       0       0       0       0
   -------------------------------------------------------
    Total     132     132      17      17      17       0
   -------------------------------------------------------

  ==> Integral Setup <==

  DFHelper Memory: AOs need 0.085 GiB; user supplied 0.489 GiB. Using in-core AOs.

  ==> MemDFJK: Density-Fitted J/K Matrices <==

    J tasked:                   Yes
    K tasked:                   Yes
    wK tasked:                   No
    OpenMP threads:               8
    Memory [MiB]:               500
    Algorithm:                 Core
    Schwarz Cutoff:           1E-12
    Mask sparsity (%):       3.1910
    Fitting Condition:        1E-10

   => Auxiliary Basis Set <=

  Basis Set: (6-311G** AUX)
    Blend: CC-PVTZ-JKFIT
    Number of shells: 200
    Number of basis function: 616
    Number of Cartesian functions: 734
    Spherical Harmonics?: true
    Max angular momentum: 4

  Minimum eigenvalue in the overlap matrix is 1.9331243851E-03.
  Using Symmetric Orthogonalization.

  SCF Guess: Superposition of Atomic Densities via on-the-fly atomic UHF.

  ==> Iterations <==

                           Total Energy        Delta E     RMS |[F,P]|

   @DF-RHF iter SAD:  -156.75238852705843   -1.56752e+02   0.00000e+00 
   @DF-RHF iter   1:  -157.17800225407814   -4.25614e-01   3.75340e-03 DIIS
   @DF-RHF iter   2:  -157.31162679050880   -1.33625e-01   1.67569e-03 DIIS
   @DF-RHF iter   3:  -157.33732740695896   -2.57006e-02   3.31545e-04 DIIS
   @DF-RHF iter   4:  -157.33938321734558   -2.05581e-03   6.82554e-05 DIIS
   @DF-RHF iter   5:  -157.33944243483154   -5.92175e-05   1.88330e-05 DIIS
   @DF-RHF iter   6:  -157.33944746174998   -5.02692e-06   2.21086e-06 DIIS
   @DF-RHF iter   7:  -157.33944757244856   -1.10699e-07   4.07912e-07 DIIS
   @DF-RHF iter   8:  -157.33944757615023   -3.70167e-09   1.00201e-07 DIIS
   @DF-RHF iter   9:  -157.33944757639938   -2.49145e-10   1.96336e-08 DIIS
   @DF-RHF iter  10:  -157.33944757640816   -8.78231e-12   3.52363e-09 DIIS
  Energy and wave function converged.


  ==> Post-Iterations <==

    Orbital Energies [Eh]
    ---------------------

    Doubly Occupied:                                                      

       1A    -11.215543     2A    -11.214926     3A    -11.209970  
       4A    -11.209959     5A     -1.071232     6A     -0.980525  
       7A     -0.860281     8A     -0.786938     9A     -0.638533  
      10A     -0.584281    11A     -0.575457    12A     -0.567103  
      13A     -0.514081    14A     -0.494201    15A     -0.469405  
      16A     -0.460719    17A     -0.456742  

    Virtual:                                                              

      18A      0.158557    19A      0.174407    20A      0.189576  
      21A      0.190554    22A      0.230011    23A      0.240696  
      24A      0.246337    25A      0.259286    26A      0.262595  
      27A      0.282208    28A      0.361029    29A      0.373304  
      30A      0.405086    31A      0.446549    32A      0.462239  
      33A      0.477173    34A      0.489731    35A      0.497530  
      36A      0.514664    37A      0.574950    38A      0.684303  
      39A      0.686419    40A      0.755959    41A      0.793751  
      42A      0.799153    43A      0.807439    44A      0.816472  
      45A      0.819186    46A      0.825879    47A      0.828024  
      48A      0.829743    49A      0.834595    50A      0.834621  
      51A      0.877847    52A      0.881268    53A      0.949129  
      54A      1.094498    55A      1.130030    56A      1.177012  
      57A      1.198633    58A      1.258112    59A      1.359447  
      60A      1.464080    61A      1.517505    62A      1.521377  
      63A      1.570554    64A      1.656464    65A      1.720109  
      66A      1.729113    67A      1.729634    68A      1.742326  
      69A      1.759884    70A      1.769193    71A      1.780692  
      72A      1.806936    73A      1.812369    74A      1.853529  
      75A      1.885289    76A      1.957742    77A      1.960028  
      78A      1.987344    79A      2.006850    80A      2.049439  
      81A      2.052391    82A      2.058898    83A      2.148731  
      84A      2.208232    85A      2.241289    86A      2.292521  
      87A      2.296555    88A      2.389500    89A      2.412109  
      90A      2.435346    91A      2.463974    92A      2.524125  
      93A      2.568551    94A      2.605659    95A      2.666581  
      96A      2.715465    97A      2.725254    98A      2.734399  
      99A      2.761467   100A      2.782972   101A      2.835232  
     102A      2.854389   103A      2.860974   104A      2.867200  
     105A      2.877301   106A      2.892418   107A      2.915688  
     108A      2.961796   109A      2.972506   110A      3.013992  
     111A      3.039161   112A      3.099154   113A      3.102045  
     114A      3.127324   115A      3.221294   116A      3.251543  
     117A      3.396287   118A      3.576989   119A      3.765531  
     120A      4.188223   121A      4.188394   122A      4.203309  
     123A      4.213253   124A      4.238217   125A      4.253593  
     126A      4.502734   127A      4.645547   128A      4.794689  
     129A     25.025891   130A     25.044422   131A     25.089613  
     132A     25.118130  

    Final Occupation by Irrep:
              A 
    DOCC [    17 ]

  @DF-RHF Final Energy:  -157.33944757640816

   => Energetics <=

    Nuclear Repulsion Energy =            130.8050317637510034
    One-Electron Energy =                -469.6691658030388794
    Two-Electron Energy =                 181.5246864628797141
    Total Energy =                       -157.3394475764081619

Computation Completed


Properties will be evaluated at  -0.000000,  -0.000000,  -0.000000 [a0]

Properties computed using the SCF density matrix

  Nuclear Dipole Moment: [e a0]
     X:    -0.0001      Y:     0.0003      Z:     0.0006

  Electronic Dipole Moment: [e a0]
     X:     0.0001      Y:    -0.0003      Z:    -0.0006

  Dipole Moment: [e a0]
     X:    -0.0000      Y:    -0.0000      Z:    -0.0000     Total:     0.0000

  Dipole Moment: [D]
     X:    -0.0001      Y:    -0.0001      Z:    -0.0000     Total:     0.0001


*** tstop() called on daniele-Precision-5750 at Mon May 24 19:44:31 2021
Module time:
	user time   =       6.93 seconds =       0.12 minutes
	system time =       0.16 seconds =       0.00 minutes
	total time  =          1 seconds =       0.02 minutes
Total time:
	user time   =       6.93 seconds =       0.12 minutes
	system time =       0.16 seconds =       0.00 minutes
	total time  =          1 seconds =       0.02 minutes

*** tstart() called on daniele-Precision-5750
*** at Mon May 24 19:44:31 2021


  //>>>>>>>>>>>>>>>>>>>>>>>>>>>>>>>>>>>//
  //               DFMP2               //
  //<<<<<<<<<<<<<<<<<<<<<<<<<<<<<<<<<<<//

   => Loading Basis Set <=

    Name: (6-311G** AUX)
    Role: RIFIT
    Keyword: DF_BASIS_MP2
    atoms 1-4  entry C          line   209 file /home/daniele/anaconda3/envs/poltype/share/psi4/basis/cc-pvtz-ri.gbs 
    atoms 5-14 entry H          line    19 file /home/daniele/anaconda3/envs/poltype/share/psi4/basis/cc-pvtz-ri.gbs 

	 --------------------------------------------------------
	                          DF-MP2                         
	      2nd-Order Density-Fitted Moller-Plesset Theory     
	              RMP2 Wavefunction,   8 Threads             
	                                                         
	        Rob Parrish, Justin Turney, Andy Simmonett,      
	           Ed Hohenstein, and C. David Sherrill          
	 --------------------------------------------------------

   => Auxiliary Basis Set <=

  Basis Set: (6-311G** AUX)
    Blend: CC-PVTZ-RI
    Number of shells: 192
    Number of basis function: 624
    Number of Cartesian functions: 754
    Spherical Harmonics?: true
    Max angular momentum: 4

	 --------------------------------------------------------
	                 NBF =   132, NAUX =   624
	 --------------------------------------------------------
	   CLASS    FOCC     OCC    AOCC    AVIR     VIR    FVIR
	   PAIRS       4      17      13     115     115       0
	 --------------------------------------------------------

	-----------------------------------------------------------
	 ==================> DF-MP2 Energies <==================== 
	-----------------------------------------------------------
	 Reference Energy          =    -157.3394475764081619 [Eh]
	 Singles Energy            =      -0.0000000000000000 [Eh]
	 Same-Spin Energy          =      -0.1368308046266595 [Eh]
	 Opposite-Spin Energy      =      -0.4847417399802221 [Eh]
	 Correlation Energy        =      -0.6215725446068816 [Eh]
	 Total Energy              =    -157.9610201210150535 [Eh]
	-----------------------------------------------------------
	 ================> DF-SCS-MP2 Energies <================== 
	-----------------------------------------------------------
	 SCS Same-Spin Scale       =       0.3333333333333333 [-]
	 SCS Opposite-Spin Scale   =       1.2000000000000000 [-]
	 SCS Same-Spin Energy      =      -0.0456102682088865 [Eh]
	 SCS Opposite-Spin Energy  =      -0.5816900879762664 [Eh]
	 SCS Correlation Energy    =      -0.6273003561851529 [Eh]
	 SCS Total Energy          =    -157.9667479325933073 [Eh]
	-----------------------------------------------------------


*** tstop() called on daniele-Precision-5750 at Mon May 24 19:44:31 2021
Module time:
	user time   =       4.07 seconds =       0.07 minutes
	system time =       0.07 seconds =       0.00 minutes
	total time  =          0 seconds =       0.00 minutes
Total time:
	user time   =      11.01 seconds =       0.18 minutes
	system time =       0.23 seconds =       0.00 minutes
	total time  =          1 seconds =       0.02 minutes
  ==> One Electron Grid Properties (v2.0) <==

  ==> CubicScalarGrid <==

    Filepath     = .
    Total Points =           411180
    XYZ Blocking =               10
    X Points     =               89
    Y Points     =               70
    Z Points     =               66
    X Spacing    =        2.000E-01
    Y Spacing    =        2.000E-01
    Z Spacing    =        2.000E-01
    X Minimum    =       -8.800E+00
    Y Minimum    =       -6.900E+00
    Z Minimum    =       -6.501E+00
    X Maximum    =        8.800E+00
    Y Maximum    =        6.900E+00
    Z Maximum    =        6.499E+00

  Basis Set: 6-311G**
    Blend: 6-311G**
    Number of shells: 72
    Number of basis function: 132
    Number of Cartesian functions: 136
    Spherical Harmonics?: true
    Max angular momentum: 2


    Psi4 stopped on: Monday, 24 May 2021 07:44PM
    Psi4 wall time for execution: 0:00:07.10

*** Psi4 exiting successfully. Buy a developer a beer!
