
    -----------------------------------------------------------------------
          Psi4: An Open-Source Ab Initio Electronic Structure Package
                               Psi4 1.3.2 release

                         Git: Rev {HEAD} ecbda83 


    R. M. Parrish, L. A. Burns, D. G. A. Smith, A. C. Simmonett,
    A. E. DePrince III, E. G. Hohenstein, U. Bozkaya, A. Yu. Sokolov,
    R. Di Remigio, R. M. Richard, J. F. Gonthier, A. M. James,
    H. R. McAlexander, A. Kumar, M. Saitow, X. Wang, B. P. Pritchard,
    P. Verma, H. F. Schaefer III, K. Patkowski, R. A. King, E. F. Valeev,
    F. A. Evangelista, J. M. Turney, T. D. Crawford, and C. D. Sherrill,
    J. Chem. Theory Comput. 13(7) pp 3185--3197 (2017).
    (doi: 10.1021/acs.jctc.7b00174)


                         Additional Contributions by
    P. Kraus, H. Kruse, M. H. Lechner, M. C. Schieber, R. A. Shaw,
    A. Alenaizan, R. Galvelis, Z. L. Glick, S. Lehtola, and J. P. Misiewicz

    -----------------------------------------------------------------------


    Psi4 started on: Monday, 24 May 2021 07:43PM

    Process ID: 71037
    Host:       daniele-Precision-5750
    PSIDATADIR: /home/daniele/anaconda3/envs/poltype/share/psi4
    Memory:     500.0 MiB
    Threads:    1
    
  ==> Input File <==

--------------------------------------------------------------------------
molecule { 
0 1
 C   -0.405900   -0.631200    0.331100
 C    0.392700    0.516300   -0.295100
 C   -1.870300   -0.336400   -0.025800
 C    1.874200    0.331600   -0.005200
 H   -0.354400   -0.625400    1.420700
 H   -0.160400   -1.589700   -0.122500
 H    0.102100    1.487200    0.145100
 H    0.184400    0.562800   -1.364100
 H   -1.872700   -0.219000   -1.136400
 H   -2.087900    0.646300    0.469700
 H   -2.540800   -1.138200    0.303200
 H    2.367800   -0.351900   -0.697800
 H    1.980700    0.021600    1.065200
 H    2.390500    1.325800   -0.088000
}
set {
  geom_maxiter 400
  g_convergence GAU_LOOSE
  dynamic_level 1
}
memory 700MB
set_num_threads(8)
psi4_io.set_default_path("/home/daniele/PSI4_sctatch/Psi4-butane")
for _ in range(1):
  try:
    set opt_coordinates both
    optimize('mp2/6-31G*')
    break
  except OptimizationConvergenceError:
    break
  else:
    try:
      set opt_coordinates cartesian
      optimize('mp2/6-31G*')
      break
    except OptimizationConvergenceError:
      pass
clean()
--------------------------------------------------------------------------

  Memory set to 667.572 MiB by Python driver.
  Threads set to 8 by Python driver.
gradient() will perform analytic gradient computation.
    SCF Algorithm Type (re)set to DF.

*** tstart() called on daniele-Precision-5750
*** at Mon May 24 19:43:06 2021

   => Loading Basis Set <=

    Name: 6-31G*
    Role: ORBITAL
    Keyword: BASIS
    atoms 1-4  entry C          line   111 file /home/daniele/anaconda3/envs/poltype/share/psi4/basis/6-31gs.gbs 
    atoms 5-14 entry H          line    44 file /home/daniele/anaconda3/envs/poltype/share/psi4/basis/6-31gs.gbs 


         ---------------------------------------------------------
                                   SCF
               by Justin Turney, Rob Parrish, Andy Simmonett
                          and Daniel G. A. Smith
                              RHF Reference
                        8 Threads,    667 MiB Core
         ---------------------------------------------------------

  ==> Geometry <==

    Molecular point group: c1
    Full point group: C1

    Geometry (in Angstrom), charge = 0, multiplicity = 1:

       Center              X                  Y                   Z               Mass       
    ------------   -----------------  -----------------  -----------------  -----------------
         C           -0.404139836313    -0.608541519392     0.330151940149    12.000000000000
         C            0.394460163687     0.538958480608    -0.296048059851    12.000000000000
         C           -1.868539836313    -0.313741519392    -0.026748059851    12.000000000000
         C            1.875960163687     0.354258480608    -0.006148059851    12.000000000000
         H           -0.352639836313    -0.602741519392     1.419751940149     1.007825032230
         H           -0.158639836313    -1.567041519392    -0.123448059851     1.007825032230
         H            0.103860163687     1.509858480608     0.144151940149     1.007825032230
         H            0.186160163687     0.585458480608    -1.365048059851     1.007825032230
         H           -1.870939836313    -0.196341519392    -1.137348059851     1.007825032230
         H           -2.086139836313     0.668958480608     0.468751940149     1.007825032230
         H           -2.539039836313    -1.115541519392     0.302251940149     1.007825032230
         H            2.369560163687    -0.329241519392    -0.698748059851     1.007825032230
         H            1.982460163687     0.044258480608     1.064251940149     1.007825032230
         H            2.392260163687     1.348458480608    -0.088948059851     1.007825032230

  Running in c1 symmetry.

  Rotational constants: A =      0.73442  B =      0.12866  C =      0.11986 [cm^-1]
  Rotational constants: A =  22017.22766  B =   3857.24994  C =   3593.18950 [MHz]
  Nuclear repulsion =  131.657337110239553

  Charge       = 0
  Multiplicity = 1
  Electrons    = 34
  Nalpha       = 17
  Nbeta        = 17

  ==> Algorithm <==

  SCF Algorithm Type is DF.
  DIIS enabled.
  MOM disabled.
  Fractional occupation disabled.
  Guess Type is SAD.
  Energy threshold   = 1.00e-10
  Density threshold  = 1.00e-10
  Integral threshold = 0.00e+00

  ==> Primary Basis <==

  Basis Set: 6-31G*
    Blend: 6-31G*
    Number of shells: 44
    Number of basis function: 80
    Number of Cartesian functions: 80
    Spherical Harmonics?: false
    Max angular momentum: 2

   => Loading Basis Set <=

    Name: (6-31G* AUX)
    Role: JKFIT
    Keyword: DF_BASIS_SCF
    atoms 1-4  entry C          line   121 file /home/daniele/anaconda3/envs/poltype/share/psi4/basis/cc-pvdz-jkfit.gbs 
    atoms 5-14 entry H          line    51 file /home/daniele/anaconda3/envs/poltype/share/psi4/basis/cc-pvdz-jkfit.gbs 

  ==> Pre-Iterations <==

   -------------------------------------------------------
    Irrep   Nso     Nmo     Nalpha   Nbeta   Ndocc  Nsocc
   -------------------------------------------------------
     A         80      80       0       0       0       0
   -------------------------------------------------------
    Total      80      80      17      17      17       0
   -------------------------------------------------------

  ==> Integral Setup <==

  DFHelper Memory: AOs need 0.031 GiB; user supplied 0.489 GiB. Using in-core AOs.

  ==> MemDFJK: Density-Fitted J/K Matrices <==

    J tasked:                   Yes
    K tasked:                   Yes
    wK tasked:                   No
    OpenMP threads:               8
    Memory [MiB]:               500
    Algorithm:                 Core
    Schwarz Cutoff:           1E-12
    Mask sparsity (%):       0.7188
    Fitting Condition:        1E-10

   => Auxiliary Basis Set <=

  Basis Set: (6-31G* AUX)
    Blend: CC-PVDZ-JKFIT
    Number of shells: 186
    Number of basis function: 574
    Number of Cartesian functions: 574
    Spherical Harmonics?: false
    Max angular momentum: 3

  Minimum eigenvalue in the overlap matrix is 4.3053612209E-03.
  Using Symmetric Orthogonalization.

  SCF Guess: Superposition of Atomic Densities via on-the-fly atomic UHF.

  ==> Iterations <==

                           Total Energy        Delta E     RMS |[F,P]|

   @DF-RHF iter SAD:  -156.46639553338528   -1.56466e+02   0.00000e+00 
   @DF-RHF iter   1:  -157.16877019850966   -7.02375e-01   5.09010e-03 DIIS
   @DF-RHF iter   2:  -157.26485674779889   -9.60865e-02   2.17134e-03 DIIS
   @DF-RHF iter   3:  -157.28017228089502   -1.53155e-02   4.31822e-04 DIIS
   @DF-RHF iter   4:  -157.28136640066643   -1.19412e-03   6.80298e-05 DIIS
   @DF-RHF iter   5:  -157.28138836889832   -2.19682e-05   2.20632e-05 DIIS
   @DF-RHF iter   6:  -157.28139063800867   -2.26911e-06   1.92650e-06 DIIS
   @DF-RHF iter   7:  -157.28139066676306   -2.87544e-08   4.29216e-07 DIIS
   @DF-RHF iter   8:  -157.28139066820552   -1.44246e-09   1.27697e-07 DIIS
   @DF-RHF iter   9:  -157.28139066830840   -1.02887e-10   3.83734e-08 DIIS
   @DF-RHF iter  10:  -157.28139066831770   -9.29390e-12   6.76598e-09 DIIS
   @DF-RHF iter  11:  -157.28139066831807   -3.69482e-13   1.40177e-09 DIIS
   @DF-RHF iter  12:  -157.28139066831804    2.84217e-14   5.01263e-10 DIIS
   @DF-RHF iter  13:  -157.28139066831798    5.68434e-14   1.16243e-10 DIIS
   @DF-RHF iter  14:  -157.28139066831793    5.68434e-14   1.85874e-11 DIIS
  Energy and wave function converged.


  ==> Post-Iterations <==

    Orbital Energies [Eh]
    ---------------------

    Doubly Occupied:                                                      

       1A    -11.216265     2A    -11.213781     3A    -11.213481  
       4A    -11.213118     5A     -1.074598     6A     -0.975533  
       7A     -0.842363     8A     -0.785737     9A     -0.648831  
      10A     -0.586136    11A     -0.573868    12A     -0.564975  
      13A     -0.498102    14A     -0.490958    15A     -0.473531  
      16A     -0.464277    17A     -0.438761  

    Virtual:                                                              

      18A      0.226866    19A      0.256431    20A      0.275404  
      21A      0.285044    22A      0.312473    23A      0.329413  
      24A      0.337087    25A      0.343146    26A      0.349683  
      27A      0.376336    28A      0.412838    29A      0.432186  
      30A      0.437120    31A      0.701483    32A      0.720704  
      33A      0.745553    34A      0.764232    35A      0.788045  
      36A      0.854675    37A      0.875204    38A      0.939705  
      39A      0.951250    40A      1.024021    41A      1.058288  
      42A      1.098710    43A      1.127256    44A      1.143420  
      45A      1.170464    46A      1.182427    47A      1.194509  
      48A      1.206061    49A      1.216826    50A      1.226260  
      51A      1.237379    52A      1.259426    53A      1.317156  
      54A      1.603129    55A      1.689573    56A      1.699903  
      57A      1.727473    58A      1.940815    59A      1.952234  
      60A      2.134548    61A      2.195201    62A      2.247110  
      63A      2.296973    64A      2.317431    65A      2.356709  
      66A      2.413456    67A      2.489166    68A      2.554901  
      69A      2.573475    70A      2.603343    71A      2.727285  
      72A      2.734074    73A      2.768131    74A      2.868967  
      75A      3.000485    76A      3.132343    77A      4.569886  
      78A      4.666556    79A      4.782051    80A      4.952336  

    Final Occupation by Irrep:
              A 
    DOCC [    17 ]

  @DF-RHF Final Energy:  -157.28139066831793

   => Energetics <=

    Nuclear Repulsion Energy =            131.6573371102395527
    One-Electron Energy =                -471.3288288695079586
    Two-Electron Energy =                 182.3901010909504805
    Total Energy =                       -157.2813906683179255

Computation Completed


Properties will be evaluated at   0.000000,   0.000000,   0.000000 [a0]

Properties computed using the SCF density matrix

  Nuclear Dipole Moment: [e a0]
     X:     0.0252      Y:     0.3244      Z:    -0.0135

  Electronic Dipole Moment: [e a0]
     X:    -0.0127      Y:    -0.3423      Z:     0.0129

  Dipole Moment: [e a0]
     X:     0.0125      Y:    -0.0178      Z:    -0.0005     Total:     0.0218

  Dipole Moment: [D]
     X:     0.0317      Y:    -0.0453      Z:    -0.0014     Total:     0.0553


*** tstop() called on daniele-Precision-5750 at Mon May 24 19:43:07 2021
Module time:
	user time   =       5.50 seconds =       0.09 minutes
	system time =       0.08 seconds =       0.00 minutes
	total time  =          1 seconds =       0.02 minutes
Total time:
	user time   =       5.50 seconds =       0.09 minutes
	system time =       0.08 seconds =       0.00 minutes
	total time  =          1 seconds =       0.02 minutes

*** tstart() called on daniele-Precision-5750
*** at Mon May 24 19:43:07 2021


  //>>>>>>>>>>>>>>>>>>>>>>>>>>>>>>>>>>>//
  //               DFMP2               //
  //<<<<<<<<<<<<<<<<<<<<<<<<<<<<<<<<<<<//

   => Loading Basis Set <=

    Name: (6-31G* AUX)
    Role: RIFIT
    Keyword: DF_BASIS_MP2
    atoms 1-4  entry C          line   159 file /home/daniele/anaconda3/envs/poltype/share/psi4/basis/cc-pvdz-ri.gbs 
    atoms 5-14 entry H          line    19 file /home/daniele/anaconda3/envs/poltype/share/psi4/basis/cc-pvdz-ri.gbs 

	 --------------------------------------------------------
	                          DF-MP2                         
	      2nd-Order Density-Fitted Moller-Plesset Theory     
	              RMP2 Wavefunction,   8 Threads             
	                                                         
	        Rob Parrish, Justin Turney, Andy Simmonett,      
	           Ed Hohenstein, and C. David Sherrill          
	 --------------------------------------------------------

   => Auxiliary Basis Set <=

  Basis Set: (6-31G* AUX)
    Blend: CC-PVDZ-RI
    Number of shells: 132
    Number of basis function: 364
    Number of Cartesian functions: 414
    Spherical Harmonics?: true
    Max angular momentum: 3

	 --------------------------------------------------------
	                 NBF =    80, NAUX =   364
	 --------------------------------------------------------
	   CLASS    FOCC     OCC    AOCC    AVIR     VIR    FVIR
	   PAIRS       0      17      17      63      63       0
	 --------------------------------------------------------

  DFHelper Memory: AOs need 0.031 GiB; user supplied 0.489 GiB. Using in-core AOs.


         ------------------------------------------------------------
                                     CPHF                           
                                  Rob Parrish                       
         ------------------------------------------------------------

  ==> Geometry <==

    Molecular point group: c1
    Full point group: C1

    Geometry (in Angstrom), charge = 0, multiplicity = 1:

       Center              X                  Y                   Z               Mass       
    ------------   -----------------  -----------------  -----------------  -----------------
         C           -0.404139836313    -0.608541519392     0.330151940149    12.000000000000
         C            0.394460163687     0.538958480608    -0.296048059851    12.000000000000
         C           -1.868539836313    -0.313741519392    -0.026748059851    12.000000000000
         C            1.875960163687     0.354258480608    -0.006148059851    12.000000000000
         H           -0.352639836313    -0.602741519392     1.419751940149     1.007825032230
         H           -0.158639836313    -1.567041519392    -0.123448059851     1.007825032230
         H            0.103860163687     1.509858480608     0.144151940149     1.007825032230
         H            0.186160163687     0.585458480608    -1.365048059851     1.007825032230
         H           -1.870939836313    -0.196341519392    -1.137348059851     1.007825032230
         H           -2.086139836313     0.668958480608     0.468751940149     1.007825032230
         H           -2.539039836313    -1.115541519392     0.302251940149     1.007825032230
         H            2.369560163687    -0.329241519392    -0.698748059851     1.007825032230
         H            1.982460163687     0.044258480608     1.064251940149     1.007825032230
         H            2.392260163687     1.348458480608    -0.088948059851     1.007825032230

  Nuclear repulsion =  131.657337110239553
  Reference energy  = -157.281390668317925

  ==> Basis Set <==

  Basis Set: 6-31G*
    Blend: 6-31G*
    Number of shells: 44
    Number of basis function: 80
    Number of Cartesian functions: 80
    Spherical Harmonics?: false
    Max angular momentum: 2

  ==> CGRSolver (by Rob Parrish) <==

   Number of roots    =         1
   Preconditioning    =    JACOBI
   Convergence cutoff =     1E-06
   Maximum iterations =       100

  ==> CPHFRHamiltonian (by Rob Parrish) <== 

  ==> MemDFJK: Density-Fitted J/K Matrices <==

    J tasked:                   Yes
    K tasked:                   Yes
    wK tasked:                   No
    OpenMP threads:               8
    Memory [MiB]:               500
    Algorithm:                 Core
    Schwarz Cutoff:           1E-12
    Mask sparsity (%):       0.7188
    Fitting Condition:        1E-10

   => Auxiliary Basis Set <=

  Basis Set: (6-31G* AUX)
    Blend: CC-PVDZ-JKFIT
    Number of shells: 186
    Number of basis function: 574
    Number of Cartesian functions: 574
    Spherical Harmonics?: false
    Max angular momentum: 3

  ==> CPHF Iterations <==

  => Iterations <=

             Iter  Converged  Remaining    Residual
  CGR           1          0          1   7.497E-02
  CGR           2          0          1   9.321E-03
  CGR           3          0          1   2.957E-03
  CGR           4          0          1   4.458E-04
  CGR           5          0          1   1.083E-04
  CGR           6          0          1   2.296E-05
  CGR           7          0          1   6.547E-06
  CGR           8          0          1   1.659E-06
  CGR           9          1          0   2.387E-07

    CGRSolver converged.

  ==> DFCorrGrad: Density-Fitted Correlated Gradients <==

    OpenMP threads:              8
    Integrals threads:           8
    Memory [GiB]:            0.489
    Schwarz Cutoff:          0E+00
    Fitting Condition:       1E-10

   => Auxiliary Basis Set <=

  Basis Set: (6-31G* AUX)
    Blend: CC-PVDZ-JKFIT
    Number of shells: 186
    Number of basis function: 574
    Number of Cartesian functions: 574
    Spherical Harmonics?: false
    Max angular momentum: 3

	-----------------------------------------------------------
	 ==================> DF-MP2 Energies <==================== 
	-----------------------------------------------------------
	 Reference Energy          =    -157.2813906683179255 [Eh]
	 Singles Energy            =      -0.0000000000000000 [Eh]
	 Same-Spin Energy          =      -0.1249555596723463 [Eh]
	 Opposite-Spin Energy      =      -0.4243718514756548 [Eh]
	 Correlation Energy        =      -0.5493274111480011 [Eh]
	 Total Energy              =    -157.8307180794659246 [Eh]
	-----------------------------------------------------------
	 ================> DF-SCS-MP2 Energies <================== 
	-----------------------------------------------------------
	 SCS Same-Spin Scale       =       0.3333333333333333 [-]
	 SCS Opposite-Spin Scale   =       1.2000000000000000 [-]
	 SCS Same-Spin Energy      =      -0.0416518532241154 [Eh]
	 SCS Opposite-Spin Energy  =      -0.5092462217707857 [Eh]
	 SCS Correlation Energy    =      -0.5508980749949012 [Eh]
	 SCS Total Energy          =    -157.8322887433128301 [Eh]
	-----------------------------------------------------------


  -Total Gradient:
     Atom            X                  Y                   Z
    ------   -----------------  -----------------  -----------------
       1        0.029578733779    -0.021210815480     0.016163824089
       2       -0.013278048892     0.008636235204    -0.018203724375
       3       -0.011444372897    -0.011488989658     0.003167860097
       4       -0.012154435310    -0.027789920042    -0.011806175317
       5       -0.011909360606     0.006541922388    -0.000825284954
       6       -0.010583680616     0.004047547184    -0.006233881006
       7        0.005493298567     0.007507750283     0.002471196499
       8       -0.001009162138    -0.000947041107     0.002932005653
       9        0.013278495515     0.001085413895    -0.015581297750
      10        0.009237754722     0.017350893887     0.011606713238
      11        0.003280538670    -0.006236624012     0.002151540760
      12        0.000047204931     0.005016433816    -0.004977530634
      13       -0.004041728889     0.000626759439     0.018399940668
      14        0.003504763164     0.016860434202     0.000734813032


*** tstop() called on daniele-Precision-5750 at Mon May 24 19:43:09 2021
Module time:
	user time   =      12.83 seconds =       0.21 minutes
	system time =       0.15 seconds =       0.00 minutes
	total time  =          2 seconds =       0.03 minutes
Total time:
	user time   =      18.34 seconds =       0.31 minutes
	system time =       0.24 seconds =       0.00 minutes
	total time  =          3 seconds =       0.05 minutes

			-----------------------------------------
			 OPTKING 2.0: for geometry optimizations 
			  - R.A. King,  Bethel University        
			-----------------------------------------
	At level 1: Red. Int., RFO, no backsteps, dynamic trust

	Internal coordinates to be generated automatically.
	Detected frag 1 with atoms:  1 2 3 4 5 6 7 8 9 10 11 12 13 14
	---Fragment 1 Bond Connectivity---
	 1 : 2 3 5 6
	 2 : 1 4 7 8
	 3 : 1 9 10 11
	 4 : 2 12 13 14
	 5 : 1
	 6 : 1
	 7 : 2
	 8 : 2
	 9 : 3
	 10 : 3
	 11 : 3
	 12 : 4
	 13 : 4
	 14 : 4

	---Fragment 1 Geometry and Gradient---
	 C          -0.7637136070       -1.1499768076        0.6238967467
	 C           0.7454216768        1.0184839213       -0.5594497531
	 C          -3.5310285451       -0.5928855458       -0.0505465075
	 C           3.5450509316        0.6694515060       -0.0116181493
	 H          -0.6663927116       -1.1390163961        2.6829423330
	 H          -0.2997858432       -2.9612792989       -0.2332830238
	 H           0.1962672647        2.8532190165        0.2724076873
	 H           0.3517917248        1.1063561862       -2.5795669812
	 H          -3.5355638878       -0.3710316987       -2.1492763424
	 H          -3.9422329500        1.2641483177        0.8858127877
	 H          -4.7980899123       -2.1080679532        0.5711733878
	 H           4.4778197472       -0.6221763008       -1.3204424638
	 H           3.7463067640        0.0836364071        2.0111446954
	 H           4.5207165302        2.5482172199       -0.1680874725
	             0.0295787338       -0.0212108155        0.0161638241
	            -0.0132780489        0.0086362352       -0.0182037244
	            -0.0114443729       -0.0114889897        0.0031678601
	            -0.0121544353       -0.0277899200       -0.0118061753
	            -0.0119093606        0.0065419224       -0.0008252850
	            -0.0105836806        0.0040475472       -0.0062338810
	             0.0054932986        0.0075077503        0.0024711965
	            -0.0010091621       -0.0009470411        0.0029320057
	             0.0132784955        0.0010854139       -0.0155812978
	             0.0092377547        0.0173508939        0.0116067132
	             0.0032805387       -0.0062366240        0.0021515408
	             0.0000472049        0.0050164338       -0.0049775306
	            -0.0040417289        0.0006267594        0.0183999407
	             0.0035047632        0.0168604342        0.0007348130

	Previous optimization step data not found.  Starting new optimization.

	---Fragment 1 Intrafragment Coordinates---
	 - Coordinate -           - BOHR/RAD -       - ANG/DEG -
	 R(1,2)           =         2.894826	       1.531876
	 R(1,3)           =         2.902285	       1.535823
	 R(1,5)           =         2.061373	       1.090832
	 R(1,6)           =         2.056892	       1.088460
	 R(2,4)           =         2.873998	       1.520854
	 R(2,7)           =         2.088016	       1.104930
	 R(2,8)           =         2.059985	       1.090097
	 R(3,9)           =         2.110428	       1.116790
	 R(3,10)          =         2.120008	       1.121860
	 R(3,11)          =         2.070690	       1.095762
	 R(4,12)          =         2.061888	       1.091104
	 R(4,13)          =         2.115479	       1.119463
	 R(4,14)          =         2.122773	       1.123323
	 B(1,2,4)         =         1.916585	     109.812258
	 B(1,2,7)         =         1.937190	     110.992814
	 B(1,2,8)         =         1.910498	     109.463462
	 B(1,3,9)         =         1.826910	     104.674222
	 B(1,3,10)        =         1.823935	     104.503786
	 B(1,3,11)        =         1.953273	     111.914298
	 B(2,1,3)         =         1.832057	     104.969116
	 B(2,1,5)         =         1.960293	     112.316513
	 B(2,1,6)         =         1.951643	     111.820895
	 B(2,4,12)        =         1.977690	     113.313300
	 B(2,4,13)        =         1.884481	     107.972813
	 B(2,4,14)        =         1.903066	     109.037663
	 B(3,1,5)         =         1.850548	     106.028571
	 B(3,1,6)         =         1.862148	     106.693228
	 B(4,2,7)         =         1.861858	     106.676632
	 B(4,2,8)         =         1.958698	     112.225147
	 B(5,1,6)         =         1.993578	     114.223595
	 B(7,2,8)         =         1.878581	     107.634736
	 B(9,3,10)        =         1.924878	     110.287399
	 B(9,3,11)        =         1.954319	     111.974235
	 B(10,3,11)       =         1.971061	     112.933492
	 B(12,4,13)       =         1.971908	     112.981997
	 B(12,4,14)       =         1.875184	     107.440158
	 B(13,4,14)       =         1.846102	     105.773840
	 D(1,2,4,12)      =         1.445391	      82.814832
	 D(1,2,4,13)      =        -0.752457	     -43.112603
	 D(1,2,4,14)      =        -2.750382	    -157.585256
	 D(2,1,3,9)       =         0.942141	      53.980686
	 D(2,1,3,10)      =        -1.081984	     -61.993110
	 D(2,1,3,11)      =         3.062456	     175.465830
	 D(3,1,2,4)       =         3.141551	     179.997596
	 D(3,1,2,7)       =         1.087176	      62.290574
	 D(3,1,2,8)       =        -0.984001	     -56.379107
	 D(4,2,1,5)       =         1.138737	      65.244829
	 D(4,2,1,6)       =        -1.129290	     -64.703544
	 D(5,1,2,7)       =        -0.915638	     -52.462193
	 D(5,1,2,8)       =        -2.986815	    -171.131874
	 D(5,1,3,9)       =         3.020183	     173.043737
	 D(5,1,3,10)      =         0.996058	      57.069941
	 D(5,1,3,11)      =        -1.142687	     -65.471120
	 D(6,1,2,7)       =         3.099520	     177.589434
	 D(6,1,2,8)       =         1.028344	      58.919753
	 D(6,1,3,9)       =        -1.131446	     -64.827108
	 D(6,1,3,10)      =         3.127614	     179.199097
	 D(6,1,3,11)      =         0.988869	      56.658036
	 D(7,2,4,12)      =        -2.737112	    -156.824993
	 D(7,2,4,13)      =         1.348224	      77.247572
	 D(7,2,4,14)      =        -0.649700	     -37.225081
	 D(8,2,4,12)      =        -0.683770	     -39.177111
	 D(8,2,4,13)      =        -2.881618	    -165.104545
	 D(8,2,4,14)      =         1.403643	      80.422801

	Current energy   :      -157.8307180795

	Generating empirical Hessian (Schlegel '84) for each fragment.
	Taking RFO optimization step.
	Going to follow RFO solution 1.
	Using RFO vector 1.
	Norm of target step-size    0.43244
	Projected energy change by RFO approximation:        -0.0096031571

	Back-transformation to cartesian coordinates...
	Could not converge backtransformation.
	Using first guess instead.

	--- Internal Coordinate Step in ANG or DEG, aJ/ANG or AJ/DEG ---
	 ---------------------------------------------------------------------------
	   Coordinate                Previous        Force       Change         New 
	   ----------                --------       ------       ------       ------
	    1 R(1,2)          =      1.531876    -0.004278     0.002993     1.534870
	    2 R(1,3)          =      1.535823     0.114197     0.026530     1.562353
	    3 R(1,5)          =      1.090832     0.011137     0.004323     1.095155
	    4 R(1,6)          =      1.088460     0.027629     0.008264     1.096724
	    5 R(2,4)          =      1.520854     0.092495     0.018280     1.539135
	    6 R(2,7)          =      1.104930    -0.050559    -0.008680     1.096250
	    7 R(2,8)          =      1.090097     0.022433     0.004491     1.094588
	    8 R(3,9)          =      1.116790    -0.128363    -0.014152     1.102639
	    9 R(3,10)         =      1.121860    -0.152690    -0.018182     1.103678
	   10 R(3,11)         =      1.095762    -0.026382    -0.003066     1.092696
	   11 R(4,12)         =      1.091104    -0.000317     0.001586     1.092690
	   12 R(4,13)         =      1.119463    -0.140350    -0.025342     1.094122
	   13 R(4,14)         =      1.123323    -0.135766    -0.023432     1.099892
	   14 B(1,2,4)        =    109.812258     0.001094     3.732813   113.545071
	   15 B(1,2,7)        =    110.992814    -0.000594    -2.407772   108.585043
	   16 B(1,2,8)        =    109.463462    -0.000263    -1.152453   108.311009
	   17 B(1,3,9)        =    104.674222     0.001363     5.973005   110.647228
	   18 B(1,3,10)       =    104.503786     0.001338     5.745918   110.249705
	   19 B(1,3,11)       =    111.914298     0.000210     0.525619   112.439917
	   20 B(2,1,3)        =    104.969116     0.001919     7.523349   112.492464
	   21 B(2,1,5)        =    112.316513    -0.000695    -3.712185   108.604328
	   22 B(2,1,6)        =    111.820895    -0.000607    -3.210732   108.610162
	   23 B(2,4,12)       =    113.313300    -0.000129    -1.104560   112.208741
	   24 B(2,4,13)       =    107.972813     0.000559     2.143960   110.116773
	   25 B(2,4,14)       =    109.037663     0.000497     2.829615   111.867278
	   26 B(3,1,5)        =    106.028571    -0.000118     2.528750   108.557321
	   27 B(3,1,6)        =    106.693228    -0.000178     2.285029   108.978257
	   28 B(4,2,7)        =    106.676632     0.000111     2.232396   108.909029
	   29 B(4,2,8)        =    112.225147    -0.000519    -2.002092   110.223055
	   30 B(5,1,6)        =    114.223595    -0.000061    -4.656084   109.567511
	   31 B(7,2,8)        =    107.634736     0.000140    -0.579443   107.055293
	   32 B(9,3,10)       =    110.287399    -0.000840    -4.241378   106.046021
	   33 B(9,3,11)       =    111.974235    -0.000853    -3.588671   108.385564
	   34 B(10,3,11)      =    112.933492    -0.000913    -4.089419   108.844072
	   35 B(12,4,13)      =    112.981997    -0.000568    -3.651357   109.330640
	   36 B(12,4,14)      =    107.440158    -0.000156    -0.403827   107.036331
	   37 B(13,4,14)      =    105.773840    -0.000180     0.267786   106.041626
	   38 D(1,2,4,12)     =     82.814832    -0.000042    -3.934280    78.880552
	   39 D(1,2,4,13)     =    -43.112603     0.000050    -0.033596   -43.146199
	   40 D(1,2,4,14)     =   -157.585256    -0.000028    -3.213312  -160.798568
	   41 D(2,1,3,9)      =     53.980686     0.000032     1.365815    55.346501
	   42 D(2,1,3,10)     =    -61.993110    -0.000012     0.348386   -61.644724
	   43 D(2,1,3,11)     =    175.465830     0.000019     1.232519   176.698349
	   44 D(3,1,2,4)      =    179.997596     0.000044     1.347383   181.344979
	   45 D(3,1,2,7)      =     62.290574    -0.000060    -2.241880    60.048694
	   46 D(3,1,2,8)      =    -56.379107     0.000021     0.501861   -55.877246
	   47 D(4,2,1,5)      =     65.244829    -0.000100    -4.087227    61.157602
	   48 D(4,2,1,6)      =    -64.703544     0.000179     6.767863   -57.935681
	   49 D(5,1,2,7)      =    -52.462193    -0.000204    -7.676490   -60.138683
	   50 D(5,1,2,8)      =   -171.131874    -0.000123    -4.932749  -176.064623
	   51 D(5,1,3,9)      =    173.043737     0.000047     2.517291   175.561028
	   52 D(5,1,3,10)     =     57.069941     0.000004     1.499863    58.569803
	   53 D(5,1,3,11)     =    -65.471120     0.000035     2.383996   -63.087124
	   54 D(6,1,2,7)      =    177.589434     0.000074     3.178600   180.768034
	   55 D(6,1,2,8)      =     58.919753     0.000156     5.922341    64.842094
	   56 D(6,1,3,9)      =    -64.827108    -0.000005    -0.334028   -65.161135
	   57 D(6,1,3,10)     =    179.199097    -0.000048    -1.351456   177.847640
	   58 D(6,1,3,11)     =     56.658036    -0.000018    -0.467323    56.190713
	   59 D(7,2,4,12)     =   -156.824993    -0.000051    -3.179696  -160.004689
	   60 D(7,2,4,13)     =     77.247572     0.000042     0.720988    77.968560
	   61 D(7,2,4,14)     =    -37.225081    -0.000036    -2.458728   -39.683809
	   62 D(8,2,4,12)     =    -39.177111    -0.000062    -3.660687   -42.837798
	   63 D(8,2,4,13)     =   -165.104545     0.000031     0.239997  -164.864549
	   64 D(8,2,4,14)     =     80.422801    -0.000047    -2.939719    77.483082
	 ---------------------------------------------------------------------------
	Successfully symmetrized geometry.

  ==> Convergence Check <==

  Measures of convergence in internal coordinates in au.
  Criteria marked as inactive (o), active & met (*), and active & unmet ( ).
  --------------------------------------------------------------------------------------------- ~
   Step     Total Energy     Delta E     MAX Force     RMS Force      MAX Disp      RMS Disp    ~
  --------------------------------------------------------------------------------------------- ~
    Convergence Criteria             o    2.50e-03 *    1.70e-03 *    1.00e-02 *    6.70e-03 *  ~
  --------------------------------------------------------------------------------------------- ~
      1    -157.83071808   -1.58e+02 o    2.52e-02      8.27e-03      1.34e-01      5.37e-02    ~
  ---------------------------------------------------------------------------------------------

	Writing optimization data to binary file.
	Structure for next step:
	Cartesian Geometry (in Angstrom)
	    C    -0.4366492504  -0.5484554278   0.2983621103
	    C     0.4497101754   0.5673736145  -0.2718282356
	    C    -1.9490693795  -0.3381716253  -0.0322648183
	    C     1.9491497164   0.3669753440   0.0118225220
	    H    -0.3172278796  -0.5677144218   1.3868159732
	    H    -0.1089952765  -1.5060404930  -0.1241035672
	    H     0.1307868708   1.5226160710   0.1612582612
	    H     0.2736098596   0.6291502359  -1.3503901741
	    H    -2.0985098212  -0.2341355389  -1.1197649248
	    H    -2.3110163776   0.6028039748   0.4168050313
	    H    -2.5723574100  -1.1619147745   0.3240264145
	    H     2.4041349330  -0.3596878771  -0.6656146310
	    H     2.0961648659   0.0399532375   1.0455270711
	    H     2.5149112652   1.3042664079  -0.0938238705
			--------------------------
			 OPTKING Finished Execution 
			--------------------------

    Structure for next step:
    Molecular point group: c1
    Full point group: C1

    Geometry (in Angstrom), charge = 0, multiplicity = 1:

    C           -0.439564046686    -0.562988700867     0.297437776078
    C            0.446795382568     0.552840345763    -0.272752572040
    C           -1.951984181706    -0.352704897521    -0.033189153766
    C            1.946234929482     0.352442074549     0.010898186737
    H           -0.320142675381    -0.582247694969     1.385891643263
    H           -0.111910071548    -1.520573769790    -0.125027903038
    H            0.127872076681     1.508082806049     0.160333926477
    H            0.270695066103     0.614616967494    -1.351314514794
    H           -2.101424624000    -0.248668810696    -1.120689264507
    H           -2.313931181252     0.588270706219     0.415880697548
    H           -2.575272214691    -1.176448049961     0.323102080457
    H            2.401220147871    -0.374221149396    -0.666538968995
    H            2.093250079526     0.025419966715     1.044602739897
    H            2.511996480478     1.289733142063    -0.094748206188

gradient() will perform analytic gradient computation.
    SCF Algorithm Type (re)set to DF.

*** tstart() called on daniele-Precision-5750
*** at Mon May 24 19:43:09 2021

   => Loading Basis Set <=

    Name: 6-31G*
    Role: ORBITAL
    Keyword: BASIS
    atoms 1-4  entry C          line   111 file /home/daniele/anaconda3/envs/poltype/share/psi4/basis/6-31gs.gbs 
    atoms 5-14 entry H          line    44 file /home/daniele/anaconda3/envs/poltype/share/psi4/basis/6-31gs.gbs 


         ---------------------------------------------------------
                                   SCF
               by Justin Turney, Rob Parrish, Andy Simmonett
                          and Daniel G. A. Smith
                              RHF Reference
                        8 Threads,    667 MiB Core
         ---------------------------------------------------------

  ==> Geometry <==

    Molecular point group: c1
    Full point group: C1

    Geometry (in Angstrom), charge = 0, multiplicity = 1:

       Center              X                  Y                   Z               Mass       
    ------------   -----------------  -----------------  -----------------  -----------------
         C           -0.439564046686    -0.562988700867     0.297437776078    12.000000000000
         C            0.446795382568     0.552840345763    -0.272752572040    12.000000000000
         C           -1.951984181706    -0.352704897521    -0.033189153766    12.000000000000
         C            1.946234929482     0.352442074549     0.010898186737    12.000000000000
         H           -0.320142675381    -0.582247694969     1.385891643263     1.007825032230
         H           -0.111910071548    -1.520573769790    -0.125027903038     1.007825032230
         H            0.127872076681     1.508082806049     0.160333926477     1.007825032230
         H            0.270695066103     0.614616967494    -1.351314514794     1.007825032230
         H           -2.101424624000    -0.248668810696    -1.120689264507     1.007825032230
         H           -2.313931181252     0.588270706219     0.415880697548     1.007825032230
         H           -2.575272214691    -1.176448049961     0.323102080457     1.007825032230
         H            2.401220147871    -0.374221149396    -0.666538968995     1.007825032230
         H            2.093250079526     0.025419966715     1.044602739897     1.007825032230
         H            2.511996480478     1.289733142063    -0.094748206188     1.007825032230

  Running in c1 symmetry.

  Rotational constants: A =      0.77962  B =      0.11850  C =      0.11151 [cm^-1]
  Rotational constants: A =  23372.27878  B =   3552.58293  C =   3343.05797 [MHz]
  Nuclear repulsion =  129.624515075826793

  Charge       = 0
  Multiplicity = 1
  Electrons    = 34
  Nalpha       = 17
  Nbeta        = 17

  ==> Algorithm <==

  SCF Algorithm Type is DF.
  DIIS enabled.
  MOM disabled.
  Fractional occupation disabled.
  Guess Type is READ.
  Energy threshold   = 1.00e-10
  Density threshold  = 1.00e-10
  Integral threshold = 0.00e+00

  ==> Primary Basis <==

  Basis Set: 6-31G*
    Blend: 6-31G*
    Number of shells: 44
    Number of basis function: 80
    Number of Cartesian functions: 80
    Spherical Harmonics?: false
    Max angular momentum: 2

   => Loading Basis Set <=

    Name: (6-31G* AUX)
    Role: JKFIT
    Keyword: DF_BASIS_SCF
    atoms 1-4  entry C          line   121 file /home/daniele/anaconda3/envs/poltype/share/psi4/basis/cc-pvdz-jkfit.gbs 
    atoms 5-14 entry H          line    51 file /home/daniele/anaconda3/envs/poltype/share/psi4/basis/cc-pvdz-jkfit.gbs 

   => Loading Basis Set <=

    Name: 6-31G*
    Role: ORBITAL
    Keyword: BASIS
    atoms 1-4  entry C          line   111 file /home/daniele/anaconda3/envs/poltype/share/psi4/basis/6-31gs.gbs 
    atoms 5-14 entry H          line    44 file /home/daniele/anaconda3/envs/poltype/share/psi4/basis/6-31gs.gbs 

  Reading orbitals from file 180, no projection.

  ==> Pre-Iterations <==

   -------------------------------------------------------
    Irrep   Nso     Nmo     Nalpha   Nbeta   Ndocc  Nsocc
   -------------------------------------------------------
     A         80      80       0       0       0       0
   -------------------------------------------------------
    Total      80      80      17      17      17       0
   -------------------------------------------------------

  ==> Integral Setup <==

  DFHelper Memory: AOs need 0.031 GiB; user supplied 0.489 GiB. Using in-core AOs.

  ==> MemDFJK: Density-Fitted J/K Matrices <==

    J tasked:                   Yes
    K tasked:                   Yes
    wK tasked:                   No
    OpenMP threads:               8
    Memory [MiB]:               500
    Algorithm:                 Core
    Schwarz Cutoff:           1E-12
    Mask sparsity (%):       1.0312
    Fitting Condition:        1E-10

   => Auxiliary Basis Set <=

  Basis Set: (6-31G* AUX)
    Blend: CC-PVDZ-JKFIT
    Number of shells: 186
    Number of basis function: 574
    Number of Cartesian functions: 574
    Spherical Harmonics?: false
    Max angular momentum: 3

  Minimum eigenvalue in the overlap matrix is 4.8234551141E-03.
  Using Symmetric Orthogonalization.

  SCF Guess: Orbitals guess was supplied from a previous computation.

  ==> Iterations <==

                           Total Energy        Delta E     RMS |[F,P]|

   @DF-RHF iter   0:  -157.32740105889727   -1.57327e+02   1.98516e-03 
   @DF-RHF iter   1:  -157.29416914070976    3.32319e-02   4.08076e-04 DIIS
   @DF-RHF iter   2:  -157.29492534145245   -7.56201e-04   1.62638e-04 DIIS
   @DF-RHF iter   3:  -157.29502864167034   -1.03300e-04   4.87760e-05 DIIS
   @DF-RHF iter   4:  -157.29504562696602   -1.69853e-05   7.33942e-06 DIIS
   @DF-RHF iter   5:  -157.29504598221493   -3.55249e-07   2.04398e-06 DIIS
   @DF-RHF iter   6:  -157.29504600847002   -2.62551e-08   5.13735e-07 DIIS
   @DF-RHF iter   7:  -157.29504601002884   -1.55882e-09   1.11889e-07 DIIS
   @DF-RHF iter   8:  -157.29504601012553   -9.66907e-11   2.22025e-08 DIIS
   @DF-RHF iter   9:  -157.29504601012982   -4.29168e-12   5.12861e-09 DIIS
   @DF-RHF iter  10:  -157.29504601012968    1.42109e-13   1.39321e-09 DIIS
   @DF-RHF iter  11:  -157.29504601012988   -1.98952e-13   4.29355e-10 DIIS
   @DF-RHF iter  12:  -157.29504601012977    1.13687e-13   9.25777e-11 DIIS
  Energy and wave function converged.


  ==> Post-Iterations <==

    Orbital Energies [Eh]
    ---------------------

    Doubly Occupied:                                                      

       1A    -11.219574     2A    -11.217215     3A    -11.214869  
       4A    -11.212089     5A     -1.063418     6A     -0.973206  
       7A     -0.860497     8A     -0.785118     9A     -0.636948  
      10A     -0.578084    11A     -0.571352    12A     -0.564879  
      13A     -0.509975    14A     -0.497067    15A     -0.464430  
      16A     -0.461121    17A     -0.455425  

    Virtual:                                                              

      18A      0.231096    19A      0.259439    20A      0.283307  
      21A      0.292759    22A      0.313560    23A      0.329207  
      24A      0.333423    25A      0.337273    26A      0.348542  
      27A      0.364899    28A      0.412455    29A      0.422645  
      30A      0.442484    31A      0.699289    32A      0.708405  
      33A      0.748981    34A      0.756387    35A      0.765046  
      36A      0.846819    37A      0.879359    38A      0.914920  
      39A      0.958861    40A      1.017508    41A      1.053029  
      42A      1.109045    43A      1.135437    44A      1.161033  
      45A      1.175872    46A      1.187433    47A      1.191763  
      48A      1.194992    49A      1.222307    50A      1.225133  
      51A      1.233746    52A      1.262019    53A      1.281209  
      54A      1.583784    55A      1.688318    56A      1.705400  
      57A      1.728738    58A      1.912699    59A      1.933635  
      60A      2.153065    61A      2.172346    62A      2.196967  
      63A      2.273889    64A      2.291895    65A      2.321872  
      66A      2.392760    67A      2.464901    68A      2.577030  
      69A      2.603621    70A      2.626723    71A      2.696939  
      72A      2.733104    73A      2.759863    74A      2.893554  
      75A      3.010930    76A      3.090285    77A      4.547301  
      78A      4.659357    79A      4.793383    80A      4.936459  

    Final Occupation by Irrep:
              A 
    DOCC [    17 ]

  @DF-RHF Final Energy:  -157.29504601012977

   => Energetics <=

    Nuclear Repulsion Energy =            129.6245150758267926
    One-Electron Energy =                -467.2685855472447543
    Two-Electron Energy =                 180.3490244612882236
    Total Energy =                       -157.2950460101297665

Computation Completed


Properties will be evaluated at   0.000000,   0.000000,   0.000000 [a0]

Properties computed using the SCF density matrix

  Nuclear Dipole Moment: [e a0]
     X:    -0.0165      Y:     0.1162      Z:    -0.0267

  Electronic Dipole Moment: [e a0]
     X:     0.0233      Y:    -0.1128      Z:     0.0280

  Dipole Moment: [e a0]
     X:     0.0068      Y:     0.0034      Z:     0.0013     Total:     0.0077

  Dipole Moment: [D]
     X:     0.0172      Y:     0.0087      Z:     0.0033     Total:     0.0195


*** tstop() called on daniele-Precision-5750 at Mon May 24 19:43:09 2021
Module time:
	user time   =       4.10 seconds =       0.07 minutes
	system time =       0.04 seconds =       0.00 minutes
	total time  =          0 seconds =       0.00 minutes
Total time:
	user time   =      22.71 seconds =       0.38 minutes
	system time =       0.28 seconds =       0.00 minutes
	total time  =          3 seconds =       0.05 minutes

*** tstart() called on daniele-Precision-5750
*** at Mon May 24 19:43:09 2021


  //>>>>>>>>>>>>>>>>>>>>>>>>>>>>>>>>>>>//
  //               DFMP2               //
  //<<<<<<<<<<<<<<<<<<<<<<<<<<<<<<<<<<<//

   => Loading Basis Set <=

    Name: (6-31G* AUX)
    Role: RIFIT
    Keyword: DF_BASIS_MP2
    atoms 1-4  entry C          line   159 file /home/daniele/anaconda3/envs/poltype/share/psi4/basis/cc-pvdz-ri.gbs 
    atoms 5-14 entry H          line    19 file /home/daniele/anaconda3/envs/poltype/share/psi4/basis/cc-pvdz-ri.gbs 

	 --------------------------------------------------------
	                          DF-MP2                         
	      2nd-Order Density-Fitted Moller-Plesset Theory     
	              RMP2 Wavefunction,   8 Threads             
	                                                         
	        Rob Parrish, Justin Turney, Andy Simmonett,      
	           Ed Hohenstein, and C. David Sherrill          
	 --------------------------------------------------------

   => Auxiliary Basis Set <=

  Basis Set: (6-31G* AUX)
    Blend: CC-PVDZ-RI
    Number of shells: 132
    Number of basis function: 364
    Number of Cartesian functions: 414
    Spherical Harmonics?: true
    Max angular momentum: 3

	 --------------------------------------------------------
	                 NBF =    80, NAUX =   364
	 --------------------------------------------------------
	   CLASS    FOCC     OCC    AOCC    AVIR     VIR    FVIR
	   PAIRS       0      17      17      63      63       0
	 --------------------------------------------------------

  DFHelper Memory: AOs need 0.031 GiB; user supplied 0.489 GiB. Using in-core AOs.


         ------------------------------------------------------------
                                     CPHF                           
                                  Rob Parrish                       
         ------------------------------------------------------------

  ==> Geometry <==

    Molecular point group: c1
    Full point group: C1

    Geometry (in Angstrom), charge = 0, multiplicity = 1:

       Center              X                  Y                   Z               Mass       
    ------------   -----------------  -----------------  -----------------  -----------------
         C           -0.439564046686    -0.562988700867     0.297437776078    12.000000000000
         C            0.446795382568     0.552840345763    -0.272752572040    12.000000000000
         C           -1.951984181706    -0.352704897521    -0.033189153766    12.000000000000
         C            1.946234929482     0.352442074549     0.010898186737    12.000000000000
         H           -0.320142675381    -0.582247694969     1.385891643263     1.007825032230
         H           -0.111910071548    -1.520573769790    -0.125027903038     1.007825032230
         H            0.127872076681     1.508082806049     0.160333926477     1.007825032230
         H            0.270695066103     0.614616967494    -1.351314514794     1.007825032230
         H           -2.101424624000    -0.248668810696    -1.120689264507     1.007825032230
         H           -2.313931181252     0.588270706219     0.415880697548     1.007825032230
         H           -2.575272214691    -1.176448049961     0.323102080457     1.007825032230
         H            2.401220147871    -0.374221149396    -0.666538968995     1.007825032230
         H            2.093250079526     0.025419966715     1.044602739897     1.007825032230
         H            2.511996480478     1.289733142063    -0.094748206188     1.007825032230

  Nuclear repulsion =  129.624515075826764
  Reference energy  = -157.295046010129767

  ==> Basis Set <==

  Basis Set: 6-31G*
    Blend: 6-31G*
    Number of shells: 44
    Number of basis function: 80
    Number of Cartesian functions: 80
    Spherical Harmonics?: false
    Max angular momentum: 2

  ==> CGRSolver (by Rob Parrish) <==

   Number of roots    =         1
   Preconditioning    =    JACOBI
   Convergence cutoff =     1E-06
   Maximum iterations =       100

  ==> CPHFRHamiltonian (by Rob Parrish) <== 

  ==> MemDFJK: Density-Fitted J/K Matrices <==

    J tasked:                   Yes
    K tasked:                   Yes
    wK tasked:                   No
    OpenMP threads:               8
    Memory [MiB]:               500
    Algorithm:                 Core
    Schwarz Cutoff:           1E-12
    Mask sparsity (%):       1.0312
    Fitting Condition:        1E-10

   => Auxiliary Basis Set <=

  Basis Set: (6-31G* AUX)
    Blend: CC-PVDZ-JKFIT
    Number of shells: 186
    Number of basis function: 574
    Number of Cartesian functions: 574
    Spherical Harmonics?: false
    Max angular momentum: 3

  ==> CPHF Iterations <==

  => Iterations <=

             Iter  Converged  Remaining    Residual
  CGR           1          0          1   7.317E-02
  CGR           2          0          1   9.018E-03
  CGR           3          0          1   2.885E-03
  CGR           4          0          1   3.654E-04
  CGR           5          0          1   6.444E-05
  CGR           6          0          1   1.301E-05
  CGR           7          0          1   3.441E-06
  CGR           8          0          1   1.037E-06
  CGR           9          1          0   1.536E-07

    CGRSolver converged.

  ==> DFCorrGrad: Density-Fitted Correlated Gradients <==

    OpenMP threads:              8
    Integrals threads:           8
    Memory [GiB]:            0.489
    Schwarz Cutoff:          0E+00
    Fitting Condition:       1E-10

   => Auxiliary Basis Set <=

  Basis Set: (6-31G* AUX)
    Blend: CC-PVDZ-JKFIT
    Number of shells: 186
    Number of basis function: 574
    Number of Cartesian functions: 574
    Spherical Harmonics?: false
    Max angular momentum: 3

	-----------------------------------------------------------
	 ==================> DF-MP2 Energies <==================== 
	-----------------------------------------------------------
	 Reference Energy          =    -157.2950460101297665 [Eh]
	 Singles Energy            =      -0.0000000000000000 [Eh]
	 Same-Spin Energy          =      -0.1240302107484941 [Eh]
	 Opposite-Spin Energy      =      -0.4226966507056981 [Eh]
	 Correlation Energy        =      -0.5467268614541922 [Eh]
	 Total Energy              =    -157.8417728715839701 [Eh]
	-----------------------------------------------------------
	 ================> DF-SCS-MP2 Energies <================== 
	-----------------------------------------------------------
	 SCS Same-Spin Scale       =       0.3333333333333333 [-]
	 SCS Opposite-Spin Scale   =       1.2000000000000000 [-]
	 SCS Same-Spin Energy      =      -0.0413434035828314 [Eh]
	 SCS Opposite-Spin Energy  =      -0.5072359808468377 [Eh]
	 SCS Correlation Energy    =      -0.5485793844296691 [Eh]
	 SCS Total Energy          =    -157.8436253945594387 [Eh]
	-----------------------------------------------------------


  -Total Gradient:
     Atom            X                  Y                   Z
    ------   -----------------  -----------------  -----------------
       1        0.014798584895    -0.007220877537     0.008597114396
       2       -0.001399278255     0.002543874902    -0.003613387930
       3       -0.014522709178    -0.008895905405     0.002611885358
       4        0.002877557192    -0.006523143399    -0.001023247867
       5       -0.001542674195     0.004469066035     0.000249985262
       6       -0.000078218533     0.000900963455    -0.004172055859
       7        0.000897879263    -0.000152164423     0.000772401550
       8       -0.000995884876    -0.002213278608     0.001056783426
       9       -0.001556094540     0.003108162422    -0.004958949552
      10       -0.001855522198     0.006401298270     0.000266355054
      11       -0.001227667507    -0.000072183576    -0.000943300553
      12        0.001530371088     0.002735005084    -0.001859619377
      13       -0.000526917309     0.002407527643     0.000742715478
      14        0.003600574152     0.002511655137     0.002273320614


*** tstop() called on daniele-Precision-5750 at Mon May 24 19:43:11 2021
Module time:
	user time   =      12.46 seconds =       0.21 minutes
	system time =       0.08 seconds =       0.00 minutes
	total time  =          2 seconds =       0.03 minutes
Total time:
	user time   =      35.17 seconds =       0.59 minutes
	system time =       0.36 seconds =       0.01 minutes
	total time  =          5 seconds =       0.08 minutes

			-----------------------------------------
			 OPTKING 2.0: for geometry optimizations 
			  - R.A. King,  Bethel University        
			-----------------------------------------
	At level 1: Red. Int., RFO, no backsteps, dynamic trust

	Previous internal coordinate definitions found.
	---Fragment 1 Geometry and Gradient---
	 C          -0.8306556628       -1.0638944564        0.5620759362
	 C           0.8443209072        1.0447168446       -0.5154276612
	 C          -3.6887155046       -0.6665156594       -0.0627184110
	 C           3.6778509925        0.6660189960        0.0205945882
	 H          -0.6049819775       -1.1002886807        2.6189556453
	 H          -0.2114793859       -2.8734679785       -0.2362684948
	 H           0.2416432040        2.8498634779        0.3029872097
	 H           0.5115395384        1.1614577406       -2.5536143423
	 H          -3.9711170127       -0.4699159482       -2.1177957817
	 H          -4.3726962057        1.1116705224        0.7859006192
	 H          -4.8665591843       -2.2231646153        0.6105744426
	 H           4.5376484464       -0.7071754827       -1.2595761033
	 H           3.9556693624        0.0480367752        1.9740130883
	 H           4.7469853762        2.4372424134       -0.1790481606
	             0.0147985849       -0.0072208775        0.0085971144
	            -0.0013992783        0.0025438749       -0.0036133879
	            -0.0145227092       -0.0088959054        0.0026118854
	             0.0028775572       -0.0065231434       -0.0010232479
	            -0.0015426742        0.0044690660        0.0002499853
	            -0.0000782185        0.0009009635       -0.0041720559
	             0.0008978793       -0.0001521644        0.0007724016
	            -0.0009958849       -0.0022132786        0.0010567834
	            -0.0015560945        0.0031081624       -0.0049589496
	            -0.0018555222        0.0064012983        0.0002663551
	            -0.0012276675       -0.0000721836       -0.0009433006
	             0.0015303711        0.0027350051       -0.0018596194
	            -0.0005269173        0.0024075276        0.0007427155
	             0.0036005742        0.0025116551        0.0022733206

	---Fragment 1 Intrafragment Coordinates---
	 - Coordinate -           - BOHR/RAD -       - ANG/DEG -
	 R(1,2)           =         2.900483	       1.534870
	 R(1,3)           =         2.952420	       1.562353
	 R(1,5)           =         2.069543	       1.095155
	 R(1,6)           =         2.072508	       1.096724
	 R(2,4)           =         2.908543	       1.539135
	 R(2,7)           =         2.071612	       1.096250
	 R(2,8)           =         2.068472	       1.094588
	 R(3,9)           =         2.083685	       1.102639
	 R(3,10)          =         2.085649	       1.103678
	 R(3,11)          =         2.064896	       1.092696
	 R(4,12)          =         2.064885	       1.092690
	 R(4,13)          =         2.067590	       1.094122
	 R(4,14)          =         2.078494	       1.099892
	 B(1,2,4)         =         1.981735	     113.545071
	 B(1,2,7)         =         1.895167	     108.585043
	 B(1,2,8)         =         1.890384	     108.311009
	 B(1,3,9)         =         1.931158	     110.647228
	 B(1,3,10)        =         1.924220	     110.249705
	 B(1,3,11)        =         1.962447	     112.439917
	 B(2,1,3)         =         1.963364	     112.492464
	 B(2,1,5)         =         1.895503	     108.604328
	 B(2,1,6)         =         1.895605	     108.610162
	 B(2,4,12)        =         1.958412	     112.208741
	 B(2,4,13)        =         1.921900	     110.116773
	 B(2,4,14)        =         1.952452	     111.867278
	 B(3,1,5)         =         1.894683	     108.557321
	 B(3,1,6)         =         1.902029	     108.978257
	 B(4,2,7)         =         1.900821	     108.909029
	 B(4,2,8)         =         1.923755	     110.223055
	 B(5,1,6)         =         1.912314	     109.567511
	 B(7,2,8)         =         1.868467	     107.055293
	 B(9,3,10)        =         1.850852	     106.046021
	 B(9,3,11)        =         1.891685	     108.385564
	 B(10,3,11)       =         1.899687	     108.844072
	 B(12,4,13)       =         1.908180	     109.330640
	 B(12,4,14)       =         1.868136	     107.036331
	 B(13,4,14)       =         1.850776	     106.041626
	 D(1,2,4,12)      =         1.376725	      78.880552
	 D(1,2,4,13)      =        -0.753043	     -43.146199
	 D(1,2,4,14)      =        -2.806464	    -160.798568
	 D(2,1,3,9)       =         0.965979	      55.346501
	 D(2,1,3,10)      =        -1.075903	     -61.644724
	 D(2,1,3,11)      =         3.083968	     176.698349
	 D(3,1,2,4)       =        -3.118118	    -178.655021
	 D(3,1,2,7)       =         1.048047	      60.048694
	 D(3,1,2,8)       =        -0.975242	     -55.877246
	 D(4,2,1,5)       =         1.067402	      61.157602
	 D(4,2,1,6)       =        -1.011168	     -57.935681
	 D(5,1,2,7)       =        -1.049618	     -60.138683
	 D(5,1,2,8)       =        -3.072907	    -176.064623
	 D(5,1,3,9)       =         3.064118	     175.561028
	 D(5,1,3,10)      =         1.022236	      58.569803
	 D(5,1,3,11)      =        -1.101078	     -63.087124
	 D(6,1,2,7)       =        -3.128188	    -179.231966
	 D(6,1,2,8)       =         1.131708	      64.842094
	 D(6,1,3,9)       =        -1.137276	     -65.161135
	 D(6,1,3,10)      =         3.104027	     177.847640
	 D(6,1,3,11)      =         0.980713	      56.190713
	 D(7,2,4,12)      =        -2.792609	    -160.004689
	 D(7,2,4,13)      =         1.360808	      77.968560
	 D(7,2,4,14)      =        -0.692613	     -39.683809
	 D(8,2,4,12)      =        -0.747661	     -42.837798
	 D(8,2,4,13)      =        -2.877429	    -164.864549
	 D(8,2,4,14)      =         1.352335	      77.483082

	Current energy   :      -157.8417728716

	Energy change for the previous step:
		Projected    :        -0.0096031571
		Actual       :        -0.0110547921
	Energy ratio indicates good step: Trust radius increased to 1.000e+00.


	Performing BFGS update.
	Previous computed or guess Hessian on step 1.
	Steps to be used in Hessian update: 1
	Taking RFO optimization step.
	Going to follow RFO solution 1.
	Using RFO vector 1.
	Norm of target step-size    0.40896
	Projected energy change by RFO approximation:        -0.0090767915

	Back-transformation to cartesian coordinates...
	Could not converge backtransformation.
	Using first guess instead.

	--- Internal Coordinate Step in ANG or DEG, aJ/ANG or AJ/DEG ---
	 ---------------------------------------------------------------------------
	   Coordinate                Previous        Force       Change         New 
	   ----------                --------       ------       ------       ------
	    1 R(1,2)          =      1.534870    -0.041368    -0.008032     1.526837
	    2 R(1,3)          =      1.562353    -0.158697    -0.032115     1.530238
	    3 R(1,5)          =      1.095155    -0.000014     0.001858     1.097013
	    4 R(1,6)          =      1.096724    -0.006567    -0.000630     1.096094
	    5 R(2,4)          =      1.539135    -0.059038    -0.010634     1.528501
	    6 R(2,7)          =      1.096250     0.000730    -0.000291     1.095959
	    7 R(2,8)          =      1.094588     0.008288     0.002345     1.096933
	    8 R(3,9)          =      1.102639    -0.044448    -0.009454     1.093185
	    9 R(3,10)         =      1.103678    -0.050870    -0.011455     1.092222
	   10 R(3,11)         =      1.092696    -0.003684    -0.000622     1.092074
	   11 R(4,12)         =      1.092690     0.000236     0.006052     1.098742
	   12 R(4,13)         =      1.094122     0.000731     0.000377     1.094499
	   13 R(4,14)         =      1.099892    -0.031093    -0.002514     1.097377
	   14 B(1,2,4)        =    113.545071    -0.000330    -0.829313   112.715757
	   15 B(1,2,7)        =    108.585043     0.000105     0.514330   109.099373
	   16 B(1,2,8)        =    108.311009     0.000174     0.514690   108.825699
	   17 B(1,3,9)        =    110.647228    -0.000063     0.231500   110.878727
	   18 B(1,3,10)       =    110.249705     0.000009     0.497670   110.747375
	   19 B(1,3,11)       =    112.439917    -0.000166    -1.019055   111.420861
	   20 B(2,1,3)        =    112.492464    -0.000259     0.058859   112.551324
	   21 B(2,1,5)        =    108.604328     0.000115     0.318386   108.922714
	   22 B(2,1,6)        =    108.610162     0.000158     0.623907   109.234070
	   23 B(2,4,12)       =    112.208741    -0.000111    -0.965625   111.243116
	   24 B(2,4,13)       =    110.116773     0.000125     0.534379   110.651152
	   25 B(2,4,14)       =    111.867278    -0.000203    -0.461965   111.405312
	   26 B(3,1,5)        =    108.557321     0.000123     0.872607   109.429928
	   27 B(3,1,6)        =    108.978257     0.000079     0.585015   109.563272
	   28 B(4,2,7)        =    108.909029     0.000150     0.929516   109.838545
	   29 B(4,2,8)        =    110.223055     0.000014    -0.592594   109.630461
	   30 B(5,1,6)        =    109.567511    -0.000222    -2.585995   106.981516
	   31 B(7,2,8)        =    107.055293    -0.000102    -0.519542   106.535752
	   32 B(9,3,10)       =    106.046021     0.000168     1.268761   107.314782
	   33 B(9,3,11)       =    108.385564     0.000065    -0.244190   108.141374
	   34 B(10,3,11)      =    108.844072     0.000007    -0.656540   108.187533
	   35 B(12,4,13)      =    109.330640    -0.000122    -1.370745   107.959895
	   36 B(12,4,14)      =    107.036331     0.000166     0.785018   107.821349
	   37 B(13,4,14)      =    106.041626     0.000159     1.559776   107.601402
	   38 D(1,2,4,12)     =     78.880552    -0.000024    -7.862002    71.018550
	   39 D(1,2,4,13)     =    -43.146199     0.000009    -5.839356   -48.985554
	   40 D(1,2,4,14)     =   -160.798568    -0.000026    -7.846426  -168.644993
	   41 D(2,1,3,9)      =     55.346501     0.000024     3.432821    58.779322
	   42 D(2,1,3,10)     =    -61.644724    -0.000016     1.403694   -60.241029
	   43 D(2,1,3,11)     =    176.698349     0.000006     2.586152   179.284501
	   44 D(3,1,2,4)      =   -178.655021     0.000011    -0.045460  -178.700480
	   45 D(3,1,2,7)      =     60.048694    -0.000000    -1.045647    59.003047
	   46 D(3,1,2,8)      =    -55.877246    -0.000007    -0.985809   -56.863055
	   47 D(4,2,1,5)      =     61.157602    -0.000005    -1.400808    59.756794
	   48 D(4,2,1,6)      =    -57.935681     0.000020     1.165894   -56.769788
	   49 D(5,1,2,7)      =    -60.138683    -0.000016    -2.400996   -62.539679
	   50 D(5,1,2,8)      =   -176.064623    -0.000023    -2.341157  -178.405780
	   51 D(5,1,3,9)      =    175.561028     0.000038     4.472015   180.033043
	   52 D(5,1,3,10)     =     58.569803    -0.000002     2.442889    61.012692
	   53 D(5,1,3,11)     =    -63.087124     0.000021     3.625347   -59.461777
	   54 D(6,1,2,7)      =   -179.231966     0.000009     0.165706  -179.066260
	   55 D(6,1,2,8)      =     64.842094     0.000003     0.225544    65.067638
	   56 D(6,1,3,9)      =    -65.161135     0.000004     2.196455   -62.964680
	   57 D(6,1,3,10)     =    177.847640    -0.000036     0.167329   178.014969
	   58 D(6,1,3,11)     =     56.190713    -0.000014     1.349787    57.540500
	   59 D(7,2,4,12)     =   -160.004689    -0.000018    -7.097038  -167.101727
	   60 D(7,2,4,13)     =     77.968560     0.000015    -5.074393    72.894168
	   61 D(7,2,4,14)     =    -39.683809    -0.000020    -7.081462   -46.765271
	   62 D(8,2,4,12)     =    -42.837798    -0.000025    -7.524984   -50.362782
	   63 D(8,2,4,13)     =   -164.864549     0.000008    -5.502338  -170.366887
	   64 D(8,2,4,14)     =     77.483082    -0.000027    -7.509408    69.973674
	 ---------------------------------------------------------------------------
	Successfully symmetrized geometry.

  ==> Convergence Check <==

  Measures of convergence in internal coordinates in au.
  Criteria marked as inactive (o), active & met (*), and active & unmet ( ).
  ---------------------------------------------------------------------------------------------
   Step     Total Energy     Delta E     MAX Force     RMS Force      MAX Disp      RMS Disp   
  ---------------------------------------------------------------------------------------------
    Convergence Criteria             o    2.50e-03 *    1.70e-03 *    1.00e-02 *    6.70e-03 *
  ---------------------------------------------------------------------------------------------
      2    -157.84177287   -1.11e-02 o    1.93e-02      3.21e-03      1.37e-01      5.11e-02    ~
  ---------------------------------------------------------------------------------------------

	Writing optimization data to binary file.
	Structure for next step:
	Cartesian Geometry (in Angstrom)
	    C    -0.4403540832  -0.5559277080   0.2724345925
	    C     0.4363768589   0.5758535680  -0.2582686106
	    C    -1.9234717920  -0.3452391628  -0.0399766994
	    C     1.9220549896   0.3536196398   0.0240194300
	    H    -0.3034563510  -0.6328017465   1.3581544665
	    H    -0.1053746666  -1.5055482727  -0.1604989016
	    H     0.1102860784   1.5218644366   0.1887810005
	    H     0.2767567792   0.6700611605  -1.3394297328
	    H    -2.0871140205  -0.2658890280  -1.1179274171
	    H    -2.2866568305   0.5799244106   0.4129236192
	    H    -2.5315202864  -1.1706091703   0.3364097201
	    H     2.3278556541  -0.4582222142  -0.5952325606
	    H     2.0799899395   0.0883632322   1.0740780547
	    H     2.5084628979   1.2581037902  -0.1815804940
			--------------------------
			 OPTKING Finished Execution 
			--------------------------

    Structure for next step:
    Molecular point group: c1
    Full point group: C1

    Geometry (in Angstrom), charge = 0, multiplicity = 1:

    C           -0.439052678509    -0.563255577327     0.273226766542
    C            0.437678267034     0.568525703096    -0.257476438709
    C           -1.922170393118    -0.352567031242    -0.039184526641
    C            1.923356403583     0.346291774076     0.024811603001
    H           -0.302154945756    -0.640129616093     1.358946644801
    H           -0.104073260617    -1.512876145786    -0.159706729298
    H            0.111587485261     1.514536575438     0.189573174160
    H            0.278058186742     0.662733296011    -1.338637565099
    H           -2.085812622243    -0.273216896212    -1.117135248522
    H           -2.285355433012     0.572596545710     0.413715793726
    H           -2.530218889903    -1.177937042042     0.337201894380
    H            2.329157069722    -0.465550083148    -0.594440390030
    H            2.081291354143     0.081035365424     1.074870231919
    H            2.509764314222     1.250775928038    -0.180788321786

gradient() will perform analytic gradient computation.
    SCF Algorithm Type (re)set to DF.

*** tstart() called on daniele-Precision-5750
*** at Mon May 24 19:43:11 2021

   => Loading Basis Set <=

    Name: 6-31G*
    Role: ORBITAL
    Keyword: BASIS
    atoms 1-4  entry C          line   111 file /home/daniele/anaconda3/envs/poltype/share/psi4/basis/6-31gs.gbs 
    atoms 5-14 entry H          line    44 file /home/daniele/anaconda3/envs/poltype/share/psi4/basis/6-31gs.gbs 


         ---------------------------------------------------------
                                   SCF
               by Justin Turney, Rob Parrish, Andy Simmonett
                          and Daniel G. A. Smith
                              RHF Reference
                        8 Threads,    667 MiB Core
         ---------------------------------------------------------

  ==> Geometry <==

    Molecular point group: c1
    Full point group: C1

    Geometry (in Angstrom), charge = 0, multiplicity = 1:

       Center              X                  Y                   Z               Mass       
    ------------   -----------------  -----------------  -----------------  -----------------
         C           -0.439052678509    -0.563255577327     0.273226766542    12.000000000000
         C            0.437678267034     0.568525703096    -0.257476438709    12.000000000000
         C           -1.922170393118    -0.352567031242    -0.039184526641    12.000000000000
         C            1.923356403583     0.346291774076     0.024811603001    12.000000000000
         H           -0.302154945756    -0.640129616093     1.358946644801     1.007825032230
         H           -0.104073260617    -1.512876145786    -0.159706729298     1.007825032230
         H            0.111587485261     1.514536575438     0.189573174160     1.007825032230
         H            0.278058186742     0.662733296011    -1.338637565099     1.007825032230
         H           -2.085812622243    -0.273216896212    -1.117135248522     1.007825032230
         H           -2.285355433012     0.572596545710     0.413715793726     1.007825032230
         H           -2.530218889903    -1.177937042042     0.337201894380     1.007825032230
         H            2.329157069722    -0.465550083148    -0.594440390030     1.007825032230
         H            2.081291354143     0.081035365424     1.074870231919     1.007825032230
         H            2.509764314222     1.250775928038    -0.180788321786     1.007825032230

  Running in c1 symmetry.

  Rotational constants: A =      0.78048  B =      0.12151  C =      0.11407 [cm^-1]
  Rotational constants: A =  23398.07025  B =   3642.82009  C =   3419.78754 [MHz]
  Nuclear repulsion =  130.643496120194470

  Charge       = 0
  Multiplicity = 1
  Electrons    = 34
  Nalpha       = 17
  Nbeta        = 17

  ==> Algorithm <==

  SCF Algorithm Type is DF.
  DIIS enabled.
  MOM disabled.
  Fractional occupation disabled.
  Guess Type is READ.
  Energy threshold   = 1.00e-10
  Density threshold  = 1.00e-10
  Integral threshold = 0.00e+00

  ==> Primary Basis <==

  Basis Set: 6-31G*
    Blend: 6-31G*
    Number of shells: 44
    Number of basis function: 80
    Number of Cartesian functions: 80
    Spherical Harmonics?: false
    Max angular momentum: 2

   => Loading Basis Set <=

    Name: (6-31G* AUX)
    Role: JKFIT
    Keyword: DF_BASIS_SCF
    atoms 1-4  entry C          line   121 file /home/daniele/anaconda3/envs/poltype/share/psi4/basis/cc-pvdz-jkfit.gbs 
    atoms 5-14 entry H          line    51 file /home/daniele/anaconda3/envs/poltype/share/psi4/basis/cc-pvdz-jkfit.gbs 

   => Loading Basis Set <=

    Name: 6-31G*
    Role: ORBITAL
    Keyword: BASIS
    atoms 1-4  entry C          line   111 file /home/daniele/anaconda3/envs/poltype/share/psi4/basis/6-31gs.gbs 
    atoms 5-14 entry H          line    44 file /home/daniele/anaconda3/envs/poltype/share/psi4/basis/6-31gs.gbs 

  Reading orbitals from file 180, no projection.

  ==> Pre-Iterations <==

   -------------------------------------------------------
    Irrep   Nso     Nmo     Nalpha   Nbeta   Ndocc  Nsocc
   -------------------------------------------------------
     A         80      80       0       0       0       0
   -------------------------------------------------------
    Total      80      80      17      17      17       0
   -------------------------------------------------------

  ==> Integral Setup <==

  DFHelper Memory: AOs need 0.031 GiB; user supplied 0.489 GiB. Using in-core AOs.

  ==> MemDFJK: Density-Fitted J/K Matrices <==

    J tasked:                   Yes
    K tasked:                   Yes
    wK tasked:                   No
    OpenMP threads:               8
    Memory [MiB]:               500
    Algorithm:                 Core
    Schwarz Cutoff:           1E-12
    Mask sparsity (%):       0.8437
    Fitting Condition:        1E-10

   => Auxiliary Basis Set <=

  Basis Set: (6-31G* AUX)
    Blend: CC-PVDZ-JKFIT
    Number of shells: 186
    Number of basis function: 574
    Number of Cartesian functions: 574
    Spherical Harmonics?: false
    Max angular momentum: 3

  Minimum eigenvalue in the overlap matrix is 4.6001638893E-03.
  Using Symmetric Orthogonalization.

  SCF Guess: Orbitals guess was supplied from a previous computation.

  ==> Iterations <==

                           Total Energy        Delta E     RMS |[F,P]|

   @DF-RHF iter   0:  -157.30766042471964   -1.57308e+02   1.09380e-03 
   @DF-RHF iter   1:  -157.29699306811605    1.06674e-02   2.24845e-04 DIIS
   @DF-RHF iter   2:  -157.29729536684940   -3.02299e-04   7.77920e-05 DIIS
   @DF-RHF iter   3:  -157.29733605772097   -4.06909e-05   2.81112e-05 DIIS
   @DF-RHF iter   4:  -157.29733998738286   -3.92966e-06   3.43439e-06 DIIS
   @DF-RHF iter   5:  -157.29734007788772   -9.05049e-08   7.90923e-07 DIIS
   @DF-RHF iter   6:  -157.29734008254093   -4.65320e-09   1.85287e-07 DIIS
   @DF-RHF iter   7:  -157.29734008270859   -1.67660e-10   5.05468e-08 DIIS
   @DF-RHF iter   8:  -157.29734008272629   -1.77067e-11   1.11044e-08 DIIS
   @DF-RHF iter   9:  -157.29734008272715   -8.52651e-13   2.26989e-09 DIIS
   @DF-RHF iter  10:  -157.29734008272720   -5.68434e-14   4.19530e-10 DIIS
   @DF-RHF iter  11:  -157.29734008272723   -2.84217e-14   8.32997e-11 DIIS
  Energy and wave function converged.


  ==> Post-Iterations <==

    Orbital Energies [Eh]
    ---------------------

    Doubly Occupied:                                                      

       1A    -11.216134     2A    -11.215521     3A    -11.211446  
       4A    -11.209993     5A     -1.069413     6A     -0.978416  
       7A     -0.859295     8A     -0.786154     9A     -0.637846  
      10A     -0.583018    11A     -0.573689    12A     -0.566316  
      13A     -0.513424    14A     -0.494498    15A     -0.467925  
      16A     -0.460876    17A     -0.455029  

    Virtual:                                                              

      18A      0.231577    19A      0.260748    20A      0.281556  
      21A      0.291568    22A      0.317550    23A      0.333741  
      24A      0.335204    25A      0.339054    26A      0.350744  
      27A      0.359307    28A      0.421192    29A      0.424068  
      30A      0.443473    31A      0.701174    32A      0.703196  
      33A      0.751848    34A      0.757369    35A      0.761240  
      36A      0.849831    37A      0.873309    38A      0.930480  
      39A      0.966079    40A      1.023281    41A      1.060169  
      42A      1.109178    43A      1.130487    44A      1.166519  
      45A      1.178649    46A      1.187583    47A      1.196690  
      48A      1.201009    49A      1.225437    50A      1.226872  
      51A      1.235660    52A      1.266500    53A      1.281515  
      54A      1.609125    55A      1.697582    56A      1.705906  
      57A      1.735736    58A      1.915836    59A      1.927525  
      60A      2.145039    61A      2.190771    62A      2.218598  
      63A      2.271738    64A      2.289999    65A      2.336122  
      66A      2.391804    67A      2.491050    68A      2.592457  
      69A      2.599917    70A      2.637589    71A      2.722216  
      72A      2.743847    73A      2.761903    74A      2.896338  
      75A      3.029160    76A      3.107213    77A      4.562329  
      78A      4.668969    79A      4.791756    80A      4.942804  

    Final Occupation by Irrep:
              A 
    DOCC [    17 ]

  @DF-RHF Final Energy:  -157.29734008272723

   => Energetics <=

    Nuclear Repulsion Energy =            130.6434961201944702
    One-Electron Energy =                -469.2836882273770698
    Two-Electron Energy =                 181.3428520244553681
    Total Energy =                       -157.2973400827272314

Computation Completed


Properties will be evaluated at   0.000000,   0.000000,   0.000000 [a0]

Properties computed using the SCF density matrix

  Nuclear Dipole Moment: [e a0]
     X:     0.0021      Y:     0.0112      Z:    -0.0154

  Electronic Dipole Moment: [e a0]
     X:    -0.0041      Y:    -0.0095      Z:     0.0161

  Dipole Moment: [e a0]
     X:    -0.0020      Y:     0.0018      Z:     0.0007     Total:     0.0027

  Dipole Moment: [D]
     X:    -0.0050      Y:     0.0045      Z:     0.0019     Total:     0.0070


*** tstop() called on daniele-Precision-5750 at Mon May 24 19:43:12 2021
Module time:
	user time   =       4.07 seconds =       0.07 minutes
	system time =       0.03 seconds =       0.00 minutes
	total time  =          1 seconds =       0.02 minutes
Total time:
	user time   =      39.44 seconds =       0.66 minutes
	system time =       0.40 seconds =       0.01 minutes
	total time  =          6 seconds =       0.10 minutes

*** tstart() called on daniele-Precision-5750
*** at Mon May 24 19:43:12 2021


  //>>>>>>>>>>>>>>>>>>>>>>>>>>>>>>>>>>>//
  //               DFMP2               //
  //<<<<<<<<<<<<<<<<<<<<<<<<<<<<<<<<<<<//

   => Loading Basis Set <=

    Name: (6-31G* AUX)
    Role: RIFIT
    Keyword: DF_BASIS_MP2
    atoms 1-4  entry C          line   159 file /home/daniele/anaconda3/envs/poltype/share/psi4/basis/cc-pvdz-ri.gbs 
    atoms 5-14 entry H          line    19 file /home/daniele/anaconda3/envs/poltype/share/psi4/basis/cc-pvdz-ri.gbs 

	 --------------------------------------------------------
	                          DF-MP2                         
	      2nd-Order Density-Fitted Moller-Plesset Theory     
	              RMP2 Wavefunction,   8 Threads             
	                                                         
	        Rob Parrish, Justin Turney, Andy Simmonett,      
	           Ed Hohenstein, and C. David Sherrill          
	 --------------------------------------------------------

   => Auxiliary Basis Set <=

  Basis Set: (6-31G* AUX)
    Blend: CC-PVDZ-RI
    Number of shells: 132
    Number of basis function: 364
    Number of Cartesian functions: 414
    Spherical Harmonics?: true
    Max angular momentum: 3

	 --------------------------------------------------------
	                 NBF =    80, NAUX =   364
	 --------------------------------------------------------
	   CLASS    FOCC     OCC    AOCC    AVIR     VIR    FVIR
	   PAIRS       0      17      17      63      63       0
	 --------------------------------------------------------

[...]
    Schwarz Cutoff:           1E-12
    Mask sparsity (%):       0.8125
    Fitting Condition:        1E-10

   => Auxiliary Basis Set <=

  Basis Set: (6-31G* AUX)
    Blend: CC-PVDZ-JKFIT
    Number of shells: 186
    Number of basis function: 574
    Number of Cartesian functions: 574
    Spherical Harmonics?: false
    Max angular momentum: 3

  ==> CPHF Iterations <==

  => Iterations <=

             Iter  Converged  Remaining    Residual
  CGR           1          0          1   7.500E-02
  CGR           2          0          1   9.314E-03
  CGR           3          0          1   2.939E-03
  CGR           4          0          1   3.556E-04
  CGR           5          0          1   5.908E-05
  CGR           6          0          1   9.318E-06
  CGR           7          0          1   1.846E-06
  CGR           8          1          0   2.460E-07

    CGRSolver converged.

  ==> DFCorrGrad: Density-Fitted Correlated Gradients <==

    OpenMP threads:              8
    Integrals threads:           8
    Memory [GiB]:            0.489
    Schwarz Cutoff:          0E+00
    Fitting Condition:       1E-10

   => Auxiliary Basis Set <=

  Basis Set: (6-31G* AUX)
    Blend: CC-PVDZ-JKFIT
    Number of shells: 186
    Number of basis function: 574
    Number of Cartesian functions: 574
    Spherical Harmonics?: false
    Max angular momentum: 3

	-----------------------------------------------------------
	 ==================> DF-MP2 Energies <==================== 
	-----------------------------------------------------------
	 Reference Energy          =    -157.2978998848319350 [Eh]
	 Singles Energy            =      -0.0000000000000000 [Eh]
	 Same-Spin Energy          =      -0.1244443694582304 [Eh]
	 Opposite-Spin Energy      =      -0.4221869014581297 [Eh]
	 Correlation Energy        =      -0.5466312709163601 [Eh]
	 Total Energy              =    -157.8445311557482853 [Eh]
	-----------------------------------------------------------
	 ================> DF-SCS-MP2 Energies <================== 
	-----------------------------------------------------------
	 SCS Same-Spin Scale       =       0.3333333333333333 [-]
	 SCS Opposite-Spin Scale   =       1.2000000000000000 [-]
	 SCS Same-Spin Energy      =      -0.0414814564860768 [Eh]
	 SCS Opposite-Spin Energy  =      -0.5066242817497556 [Eh]
	 SCS Correlation Energy    =      -0.5481057382358324 [Eh]
	 SCS Total Energy          =    -157.8460056230677537 [Eh]
	-----------------------------------------------------------


  -Total Gradient:
     Atom            X                  Y                   Z
    ------   -----------------  -----------------  -----------------
       1       -0.000003516991     0.000005022701    -0.000012357760
       2        0.000020685330    -0.000051544344    -0.000022703192
       3       -0.000012760304    -0.000010800991     0.000037172139
       4       -0.000012808651     0.000014246047     0.000027413866
       5       -0.000007104415    -0.000015141102     0.000000134396
       6        0.000005652380     0.000015037091    -0.000006556934
       7        0.000008716338     0.000009242283     0.000001914253
       8       -0.000001067939    -0.000000044783    -0.000015759822
       9        0.000001154448    -0.000007175460     0.000016760013
      10       -0.000004729328    -0.000004863002    -0.000024125413
      11       -0.000007452555     0.000019038262    -0.000000115590
      12       -0.000021236390     0.000016032076    -0.000000754379
      13        0.000005319098    -0.000017039370     0.000003746715
      14        0.000029148979     0.000027990591    -0.000004768294


*** tstop() called on daniele-Precision-5750 at Mon May 24 19:43:26 2021
Module time:
	user time   =      12.03 seconds =       0.20 minutes
	system time =       0.07 seconds =       0.00 minutes
	total time  =          1 seconds =       0.02 minutes
Total time:
	user time   =     148.97 seconds =       2.48 minutes
	system time =       1.33 seconds =       0.02 minutes
	total time  =         20 seconds =       0.33 minutes

			-----------------------------------------
			 OPTKING 2.0: for geometry optimizations 
			  - R.A. King,  Bethel University        
			-----------------------------------------
	At level 2: Red. Int., RFO, backsteps, smaller trust.

	Previous internal coordinate definitions found.
	---Fragment 1 Geometry and Gradient---
	 C          -0.8268845754       -1.0863463092        0.4608679175
	 C           0.8270924999        1.0856703261       -0.4623766873
	 C          -3.6268433931       -0.6668531855       -0.0729142096
	 C           3.6266571658        0.6674811838        0.0743174917
	 H          -0.5361849478       -1.3418297008        2.4973698416
	 H          -0.2012277714       -2.8453149268       -0.4400229491
	 H           0.2002601669        2.8449611195        0.4371760314
	 H           0.5379724085        1.3400650568       -2.4992758811
	 H          -3.9670238605       -0.4661599813       -2.1023134044
	 H          -4.3025124646        1.0544749416        0.8517443882
	 H          -4.7739714514       -2.2446481001        0.6089675412
	 H           4.3052966330       -1.0498658580       -0.8555267606
	 H           3.9639763706        0.4599132922        2.1035586184
	 H           4.7731565703        2.2489755042       -0.6004214018
	            -0.0000035170        0.0000050227       -0.0000123578
	             0.0000206853       -0.0000515443       -0.0000227032
	            -0.0000127603       -0.0000108010        0.0000371721
	            -0.0000128087        0.0000142460        0.0000274139
	            -0.0000071044       -0.0000151411        0.0000001344
	             0.0000056524        0.0000150371       -0.0000065569
	             0.0000087163        0.0000092423        0.0000019143
	            -0.0000010679       -0.0000000448       -0.0000157598
	             0.0000011544       -0.0000071755        0.0000167600
	            -0.0000047293       -0.0000048630       -0.0000241254
	            -0.0000074526        0.0000190383       -0.0000001156
	            -0.0000212364        0.0000160321       -0.0000007544
	             0.0000053191       -0.0000170394        0.0000037467
	             0.0000291490        0.0000279906       -0.0000047683

	---Fragment 1 Intrafragment Coordinates---
	 - Coordinate -           - BOHR/RAD -       - ANG/DEG -
	 R(1,2)           =         2.881957	       1.525066
	 R(1,3)           =         2.881088	       1.524606
	 R(1,5)           =         2.072949	       1.096957
	 R(1,6)           =         2.072926	       1.096945
	 R(2,4)           =         2.881056	       1.524589
	 R(2,7)           =         2.072973	       1.096970
	 R(2,8)           =         2.072985	       1.096976
	 R(3,9)           =         2.067477	       1.094062
	 R(3,10)          =         2.067485	       1.094066
	 R(3,11)          =         2.066471	       1.093529
	 R(4,12)          =         2.067473	       1.094059
	 R(4,13)          =         2.067532	       1.094091
	 R(4,14)          =         2.066605	       1.093600
	 B(1,2,4)         =         1.969911	     112.867601
	 B(1,2,7)         =         1.903988	     109.090497
	 B(1,2,8)         =         1.904159	     109.100256
	 B(1,3,9)         =         1.934671	     110.848508
	 B(1,3,10)        =         1.934747	     110.852823
	 B(1,3,11)        =         1.946769	     111.541672
	 B(2,1,3)         =         1.969973	     112.871142
	 B(2,1,5)         =         1.904056	     109.094358
	 B(2,1,6)         =         1.903998	     109.091043
	 B(2,4,12)        =         1.934513	     110.839442
	 B(2,4,13)        =         1.934718	     110.851192
	 B(2,4,14)        =         1.946774	     111.541960
	 B(3,1,5)         =         1.913723	     109.648228
	 B(3,1,6)         =         1.913840	     109.654980
	 B(4,2,7)         =         1.913655	     109.644348
	 B(4,2,8)         =         1.913866	     109.656441
	 B(5,1,6)         =         1.854644	     106.263274
	 B(7,2,8)         =         1.854660	     106.264183
	 B(9,3,10)        =         1.880115	     107.722665
	 B(9,3,11)        =         1.882494	     107.858962
	 B(10,3,11)       =         1.882513	     107.860072
	 B(12,4,13)       =         1.880182	     107.726520
	 B(12,4,14)       =         1.882543	     107.861752
	 B(13,4,14)       =         1.882589	     107.864410
	 D(1,2,4,12)      =         1.045523	      59.904034
	 D(1,2,4,13)      =        -1.041502	     -59.673696
	 D(1,2,4,14)      =        -3.139682	    -179.890502
	 D(2,1,3,9)       =         1.045885	      59.924775
	 D(2,1,3,10)      =        -1.041178	     -59.655117
	 D(2,1,3,11)      =        -3.139277	    -179.867338
	 D(3,1,2,4)       =         3.140383	     179.930720
	 D(3,1,2,7)       =         1.008560	      57.786246
	 D(3,1,2,8)       =        -1.010587	     -57.902371
	 D(4,2,1,5)       =         1.008384	      57.776140
	 D(4,2,1,6)       =        -1.010693	     -57.908446
	 D(5,1,2,7)       =        -1.123439	     -64.368334
	 D(5,1,2,8)       =         3.140599	     179.943049
	 D(5,1,3,9)       =        -3.110741	    -178.232305
	 D(5,1,3,10)      =         1.085382	      62.187803
	 D(5,1,3,11)      =        -1.012717	     -58.024418
	 D(6,1,2,7)       =         3.140669	     179.947080
	 D(6,1,2,8)       =         1.121522	      64.258463
	 D(6,1,3,9)       =        -1.080686	     -61.918745
	 D(6,1,3,10)      =         3.115436	     178.501363
	 D(6,1,3,11)      =         1.017337	      58.289142
	 D(7,2,4,12)      =        -3.111280	    -178.263197
	 D(7,2,4,13)      =         1.084880	      62.159073
	 D(7,2,4,14)      =        -1.013299	     -58.057733
	 D(8,2,4,12)      =        -1.081230	     -61.949931
	 D(8,2,4,13)      =         3.114930	     178.472338
	 D(8,2,4,14)      =         1.016751	      58.255533

	Current energy   :      -157.8445311557

	Energy change for the previous step:
		Projected    :        -0.0000084045
		Actual       :        -0.0000023565

	Performing BFGS update.
	Previous computed or guess Hessian on step 1.
	Steps to be used in Hessian update: 2 1
	Taking RFO optimization step.
	Going to follow RFO solution 1.
	Using RFO vector 1.
	Norm of target step-size    0.01234
	Projected energy change by RFO approximation:         0.0000009231

	Back-transformation to cartesian coordinates...
	Successfully converged to displaced geometry.

	--- Internal Coordinate Step in ANG or DEG, aJ/ANG or AJ/DEG ---
	 ---------------------------------------------------------------------------
	   Coordinate                Previous        Force       Change         New 
	   ----------                --------       ------       ------       ------
	    1 R(1,2)          =      1.525066    -0.000158    -0.000033     1.525033
	    2 R(1,3)          =      1.524606    -0.000141    -0.000035     1.524571
	    3 R(1,5)          =      1.096957    -0.000008    -0.000011     1.096946
	    4 R(1,6)          =      1.096945     0.000068     0.000001     1.096947
	    5 R(2,4)          =      1.524589     0.000007    -0.000015     1.524574
	    6 R(2,7)          =      1.096970    -0.000050    -0.000025     1.096946
	    7 R(2,8)          =      1.096976    -0.000129    -0.000035     1.096941
	    8 R(3,9)          =      1.094062     0.000143    -0.000016     1.094046
	    9 R(3,10)         =      1.094066     0.000110    -0.000017     1.094049
	   10 R(3,11)         =      1.093529     0.000086    -0.000002     1.093528
	   11 R(4,12)         =      1.094059     0.000164     0.000002     1.094061
	   12 R(4,13)         =      1.094091    -0.000052    -0.000020     1.094071
	   13 R(4,14)         =      1.093600    -0.000323    -0.000044     1.093557
	   14 B(1,2,4)        =    112.867601    -0.000001    -0.004357   112.863245
	   15 B(1,2,7)        =    109.090497     0.000000     0.003812   109.094309
	   16 B(1,2,8)        =    109.100256     0.000000    -0.005479   109.094778
	   17 B(1,3,9)        =    110.848508     0.000001     0.002579   110.851087
	   18 B(1,3,10)       =    110.852823    -0.000001    -0.005279   110.847544
	   19 B(1,3,11)       =    111.541672    -0.000002    -0.006283   111.535389
	   20 B(2,1,3)        =    112.871142    -0.000002    -0.006846   112.864296
	   21 B(2,1,5)        =    109.094358     0.000000     0.001186   109.095544
	   22 B(2,1,6)        =    109.091043     0.000001     0.002181   109.093224
	   23 B(2,4,12)       =    110.839442     0.000002     0.010823   110.850265
	   24 B(2,4,13)       =    110.851192    -0.000001    -0.004094   110.847099
	   25 B(2,4,14)       =    111.541960    -0.000001    -0.008205   111.533756
	   26 B(3,1,5)        =    109.648228     0.000001     0.007204   109.655432
	   27 B(3,1,6)        =    109.654980    -0.000000    -0.004973   109.650007
	   28 B(4,2,7)        =    109.644348     0.000001     0.010748   109.655096
	   29 B(4,2,8)        =    109.656441    -0.000000    -0.004533   109.651908
	   30 B(5,1,6)        =    106.263274    -0.000000     0.001774   106.265048
	   31 B(7,2,8)        =    106.264183    -0.000000     0.000038   106.264221
	   32 B(9,3,10)       =    107.722665     0.000001     0.005914   107.728579
	   33 B(9,3,11)       =    107.858962     0.000001     0.002327   107.861290
	   34 B(10,3,11)      =    107.860072     0.000001     0.001308   107.861381
	   35 B(12,4,13)      =    107.726520    -0.000000     0.003526   107.730047
	   36 B(12,4,14)      =    107.861752    -0.000000     0.000506   107.862258
	   37 B(13,4,14)      =    107.864410     0.000001    -0.002389   107.862021
	   38 D(1,2,4,12)     =     59.904034    -0.000000    -0.130568    59.773466
	   39 D(1,2,4,13)     =    -59.673696    -0.000000    -0.139392   -59.813089
	   40 D(1,2,4,14)     =   -179.890502    -0.000000    -0.128086  -180.018588
	   41 D(2,1,3,9)      =     59.924775    -0.000000    -0.180223    59.744552
	   42 D(2,1,3,10)     =    -59.655117    -0.000000    -0.185873   -59.840990
	   43 D(2,1,3,11)     =   -179.867338    -0.000000    -0.179737  -180.047075
	   44 D(3,1,2,4)      =    179.930720     0.000000     0.100382   180.031102
	   45 D(3,1,2,7)      =     57.786246     0.000000     0.086859    57.873106
	   46 D(3,1,2,8)      =    -57.902371     0.000000     0.087731   -57.814639
	   47 D(4,2,1,5)      =     57.776140     0.000000     0.094944    57.871084
	   48 D(4,2,1,6)      =    -57.908446     0.000000     0.090975   -57.817471
	   49 D(5,1,2,7)      =    -64.368334    -0.000000     0.081422   -64.286912
	   50 D(5,1,2,8)      =    179.943049    -0.000000     0.082294   180.025343
	   51 D(5,1,3,9)      =   -178.232305    -0.000000    -0.178200  -178.410505
	   52 D(5,1,3,10)     =     62.187803    -0.000000    -0.183850    62.003952
	   53 D(5,1,3,11)     =    -58.024418    -0.000000    -0.177714   -58.202132
	   54 D(6,1,2,7)      =    179.947080    -0.000000     0.077452   180.024532
	   55 D(6,1,2,8)      =     64.258463    -0.000000     0.078324    64.336788
	   56 D(6,1,3,9)      =    -61.918745    -0.000000    -0.174775   -62.093520
	   57 D(6,1,3,10)     =    178.501363    -0.000000    -0.180426   178.320937
	   58 D(6,1,3,11)     =     58.289142    -0.000000    -0.174289    58.114852
	   59 D(7,2,4,12)     =   -178.263197    -0.000000    -0.120936  -178.384133
	   60 D(7,2,4,13)     =     62.159073    -0.000000    -0.129760    62.029313
	   61 D(7,2,4,14)     =    -58.057733    -0.000000    -0.118454   -58.176186
	   62 D(8,2,4,12)     =    -61.949931     0.000000    -0.117316   -62.067247
	   63 D(8,2,4,13)     =    178.472338    -0.000000    -0.126140   178.346199
	   64 D(8,2,4,14)     =     58.255533     0.000000    -0.114833    58.140700
	 ---------------------------------------------------------------------------
	Successfully symmetrized geometry.

  ==> Convergence Check <==

  Measures of convergence in internal coordinates in au.
  Criteria marked as inactive (o), active & met (*), and active & unmet ( ).
  ---------------------------------------------------------------------------------------------
   Step     Total Energy     Delta E     MAX Force     RMS Force      MAX Disp      RMS Disp   
  ---------------------------------------------------------------------------------------------
    Convergence Criteria             o    2.50e-03 *    1.70e-03 *    1.00e-02 *    6.70e-03 *
  ---------------------------------------------------------------------------------------------
      3    -157.84453116   -2.36e-06 o    3.91e-05 *    1.27e-05 *    3.24e-03 *    1.54e-03 *  ~
  ---------------------------------------------------------------------------------------------


  **** Optimization is complete! (in 3 steps) ****

  ==> Optimization Summary <==

  Measures of convergence in internal coordinates in au.
  --------------------------------------------------------------------------------------------------------------- ~
   Step         Total Energy             Delta E       MAX Force       RMS Force        MAX Disp        RMS Disp  ~
  --------------------------------------------------------------------------------------------------------------- ~
      1    -157.844522249183   -157.844522249183      0.00056203      0.00015772      0.03002476      0.01365034  ~
      2    -157.844528799286     -0.000006550103      0.00022256      0.00005550      0.01299981      0.00521980  ~
      3    -157.844531155748     -0.000002356462      0.00003915      0.00001266      0.00324410      0.00154280  ~
  --------------------------------------------------------------------------------------------------------------- ~

	Writing optimization data to binary file.
	Final energy is   -157.8445311557483
	Final (previous) structure:
	Cartesian Geometry (in Angstrom)
	    C    -0.4375684714  -0.5748697075   0.2438807981
	    C     0.4376785004   0.5745119926  -0.2446792047
	    C    -1.9192428627  -0.3528835073  -0.0385845379
	    C     1.9191443155   0.3532158296   0.0393271228
	    H    -0.2837368540  -0.7100656955   1.3215512016
	    H    -0.1064851504  -1.5056758105  -0.2328501159
	    H     0.1059731161   1.5054885838   0.2313435920
	    H     0.2846827374   0.7091318861  -1.3225598342
	    H    -2.0992586129  -0.2466812376  -1.1124963389
	    H    -2.2767915359   0.5580041061   0.4507237178
	    H    -2.5262768866  -1.1878166159   0.3222517436
	    H     2.2782648544  -0.5555650841  -0.4527252630
	    H     2.0976459507   0.2433756321   1.1131552778
	    H     2.5258456700   1.1901065795  -0.3177293214
	Saving final (previous) structure.
			--------------------------
			 OPTKING Finished Execution 
			--------------------------

    Final optimized geometry and variables:
    Molecular point group: c1
    Full point group: C1

    Geometry (in Angstrom), charge = 0, multiplicity = 1:

    C           -0.437568473138    -0.574869709743     0.243880799048
    C            0.437678502075     0.574511994890    -0.244679205663
    C           -1.919242870275    -0.352883508646    -0.038584538039
    C            1.919144323073     0.353215831012     0.039327122976
    H           -0.283736855076    -0.710065698261     1.321551206799
    H           -0.106485150772    -1.505675816440    -0.232850116858
    H            0.105973116515     1.505488589706     0.231343592889
    H            0.284682738545     0.709131888898    -1.322559839433
    H           -2.099258621176    -0.246681238619    -1.112496343316
    H           -2.276791544886     0.558004108310     0.450723719566
    H           -2.526276896487    -1.187816620551     0.322251744820
    H            2.278264863372    -0.555565086291    -0.452725264816
    H            2.097645958953     0.243375633095     1.113155282177
    H            2.525845679969     1.190106584152    -0.317729322657

	Removing binary optimization data file.
	Cleaning optimization helper files.

    Psi4 stopped on: Monday, 24 May 2021 07:43PM
    Psi4 wall time for execution: 0:00:20.41

*** Psi4 exiting successfully. Buy a developer a beer!
