Generated by Psi4
        SP                        DF-MP2                      6-311G**
Number of atoms                            I               14
Charge                                     I                0
Multiplicity                               I                1
Number of electrons                        I               34
Number of alpha electrons                  I               17
Number of beta electrons                   I               17
Number of basis functions                  I              132
Number of independent functions            I              132
Atomic numbers                             I   N=          14
           6           6           6           6           1           1
           1           1           1           1           1           1
           1           1
Nuclear charges                            R   N=          14
  6.00000000e+00  6.00000000e+00  6.00000000e+00  6.00000000e+00  1.00000000e+00
  1.00000000e+00  1.00000000e+00  1.00000000e+00  1.00000000e+00  1.00000000e+00
  1.00000000e+00  1.00000000e+00  1.00000000e+00  1.00000000e+00
Current cartesian coordinates              R   N=          42
 -8.26884575e-01 -1.08634631e+00  4.60867917e-01  8.27092500e-01  1.08567033e+00
 -4.62376687e-01 -3.62684339e+00 -6.66853186e-01 -7.29142096e-02  3.62665717e+00
  6.67481184e-01  7.43174917e-02 -5.36184948e-01 -1.34182970e+00  2.49736984e+00
 -2.01227771e-01 -2.84531493e+00 -4.40022949e-01  2.00260167e-01  2.84496112e+00
  4.37176031e-01  5.37972408e-01  1.34006506e+00 -2.49927588e+00 -3.96702386e+00
 -4.66159981e-01 -2.10231340e+00 -4.30251246e+00  1.05447494e+00  8.51744388e-01
 -4.77397145e+00 -2.24464810e+00  6.08967541e-01  4.30529663e+00 -1.04986586e+00
 -8.55526761e-01  3.96397637e+00  4.59913292e-01  2.10355862e+00  4.77315657e+00
  2.24897550e+00 -6.00421402e-01
Integer atomic weights                     I   N=          14
          12          12          12          12           1           1
           1           1           1           1           1           1
           1           1
Real atomic weights                        R   N=          14
  1.20000000e+01  1.20000000e+01  1.20000000e+01  1.20000000e+01  1.00782503e+00
  1.00782503e+00  1.00782503e+00  1.00782503e+00  1.00782503e+00  1.00782503e+00
  1.00782503e+00  1.00782503e+00  1.00782503e+00  1.00782503e+00
Number of primitive shells                 I              128
Number of contracted shells                I               72
Pure/Cartesian d shells                    I                0
Pure/Cartesian f shells                    I                0
Highest angular momentum                   I                2
Largest degree of contraction              I                6
Shell types                                I   N=          72
           0           0           1           0           1           0
           1          -2           0           0           1           0
           1           0           1          -2           0           0
           1           0           1           0           1          -2
           0           0           1           0           1           0
           1          -2           0           0           0           1
           0           0           0           1           0           0
           0           1           0           0           0           1
           0           0           0           1           0           0
           0           1           0           0           0           1
           0           0           0           1           0           0
           0           1           0           0           0           1
Number of primitives per shell             I   N=          72
           6           3           3           1           1           1
           1           1           6           3           3           1
           1           1           1           1           6           3
           3           1           1           1           1           1
           6           3           3           1           1           1
           1           1           3           1           1           1
           3           1           1           1           3           1
           1           1           3           1           1           1
           3           1           1           1           3           1
           1           1           3           1           1           1
           3           1           1           1           3           1
           1           1           3           1           1           1
Shell to atom map                          I   N=          72
           1           1           1           1           1           1
           1           1           2           2           2           2
           2           2           2           2           3           3
           3           3           3           3           3           3
           4           4           4           4           4           4
           4           4           5           5           5           5
           6           6           6           6           7           7
           7           7           8           8           8           8
           9           9           9           9          10          10
          10          10          11          11          11          11
          12          12          12          12          13          13
          13          13          14          14          14          14
Primitive exponents                        R   N=         128
  4.56324000e+03  6.82024000e+02  1.54973000e+02  4.44553000e+01  1.30290000e+01
  1.82773000e+00  2.09642000e+01  4.80331000e+00  1.45933000e+00  2.09642000e+01
  4.80331000e+00  1.45933000e+00  4.83456000e-01  4.83456000e-01  1.45585000e-01
  1.45585000e-01  6.26000000e-01  4.56324000e+03  6.82024000e+02  1.54973000e+02
  4.44553000e+01  1.30290000e+01  1.82773000e+00  2.09642000e+01  4.80331000e+00
  1.45933000e+00  2.09642000e+01  4.80331000e+00  1.45933000e+00  4.83456000e-01
  4.83456000e-01  1.45585000e-01  1.45585000e-01  6.26000000e-01  4.56324000e+03
  6.82024000e+02  1.54973000e+02  4.44553000e+01  1.30290000e+01  1.82773000e+00
  2.09642000e+01  4.80331000e+00  1.45933000e+00  2.09642000e+01  4.80331000e+00
  1.45933000e+00  4.83456000e-01  4.83456000e-01  1.45585000e-01  1.45585000e-01
  6.26000000e-01  4.56324000e+03  6.82024000e+02  1.54973000e+02  4.44553000e+01
  1.30290000e+01  1.82773000e+00  2.09642000e+01  4.80331000e+00  1.45933000e+00
  2.09642000e+01  4.80331000e+00  1.45933000e+00  4.83456000e-01  4.83456000e-01
  1.45585000e-01  1.45585000e-01  6.26000000e-01  3.38650000e+01  5.09479000e+00
  1.15879000e+00  3.25840000e-01  1.02741000e-01  7.50000000e-01  3.38650000e+01
  5.09479000e+00  1.15879000e+00  3.25840000e-01  1.02741000e-01  7.50000000e-01
  3.38650000e+01  5.09479000e+00  1.15879000e+00  3.25840000e-01  1.02741000e-01
  7.50000000e-01  3.38650000e+01  5.09479000e+00  1.15879000e+00  3.25840000e-01
  1.02741000e-01  7.50000000e-01  3.38650000e+01  5.09479000e+00  1.15879000e+00
  3.25840000e-01  1.02741000e-01  7.50000000e-01  3.38650000e+01  5.09479000e+00
  1.15879000e+00  3.25840000e-01  1.02741000e-01  7.50000000e-01  3.38650000e+01
  5.09479000e+00  1.15879000e+00  3.25840000e-01  1.02741000e-01  7.50000000e-01
  3.38650000e+01  5.09479000e+00  1.15879000e+00  3.25840000e-01  1.02741000e-01
  7.50000000e-01  3.38650000e+01  5.09479000e+00  1.15879000e+00  3.25840000e-01
  1.02741000e-01  7.50000000e-01  3.38650000e+01  5.09479000e+00  1.15879000e+00
  3.25840000e-01  1.02741000e-01  7.50000000e-01
Contraction coefficients                   R   N=         128
  1.96665025e-03  1.52306019e-02  7.61269097e-02  2.60801033e-01  6.16462078e-01
  2.21006028e-01  1.14660081e-01  9.19999648e-01 -3.03068213e-03  4.02486927e-02
  2.37593957e-01  8.15853851e-01  1.00000000e+00  1.00000000e+00  1.00000000e+00
  1.00000000e+00  1.00000000e+00  1.96665025e-03  1.52306019e-02  7.61269097e-02
  2.60801033e-01  6.16462078e-01  2.21006028e-01  1.14660081e-01  9.19999648e-01
 -3.03068213e-03  4.02486927e-02  2.37593957e-01  8.15853851e-01  1.00000000e+00
  1.00000000e+00  1.00000000e+00  1.00000000e+00  1.00000000e+00  1.96665025e-03
  1.52306019e-02  7.61269097e-02  2.60801033e-01  6.16462078e-01  2.21006028e-01
  1.14660081e-01  9.19999648e-01 -3.03068213e-03  4.02486927e-02  2.37593957e-01
  8.15853851e-01  1.00000000e+00  1.00000000e+00  1.00000000e+00  1.00000000e+00
  1.00000000e+00  1.96665025e-03  1.52306019e-02  7.61269097e-02  2.60801033e-01
  6.16462078e-01  2.21006028e-01  1.14660081e-01  9.19999648e-01 -3.03068213e-03
  4.02486927e-02  2.37593957e-01  8.15853851e-01  1.00000000e+00  1.00000000e+00
  1.00000000e+00  1.00000000e+00  1.00000000e+00  2.54938145e-02  1.90373109e-01
  8.52161486e-01  1.00000000e+00  1.00000000e+00  1.00000000e+00  2.54938145e-02
  1.90373109e-01  8.52161486e-01  1.00000000e+00  1.00000000e+00  1.00000000e+00
  2.54938145e-02  1.90373109e-01  8.52161486e-01  1.00000000e+00  1.00000000e+00
  1.00000000e+00  2.54938145e-02  1.90373109e-01  8.52161486e-01  1.00000000e+00
  1.00000000e+00  1.00000000e+00  2.54938145e-02  1.90373109e-01  8.52161486e-01
  1.00000000e+00  1.00000000e+00  1.00000000e+00  2.54938145e-02  1.90373109e-01
  8.52161486e-01  1.00000000e+00  1.00000000e+00  1.00000000e+00  2.54938145e-02
  1.90373109e-01  8.52161486e-01  1.00000000e+00  1.00000000e+00  1.00000000e+00
  2.54938145e-02  1.90373109e-01  8.52161486e-01  1.00000000e+00  1.00000000e+00
  1.00000000e+00  2.54938145e-02  1.90373109e-01  8.52161486e-01  1.00000000e+00
  1.00000000e+00  1.00000000e+00  2.54938145e-02  1.90373109e-01  8.52161486e-01
  1.00000000e+00  1.00000000e+00  1.00000000e+00
Coordinates of each shell                  R   N=         216
 -8.26884575e-01 -1.08634631e+00  4.60867917e-01 -8.26884575e-01 -1.08634631e+00
  4.60867917e-01 -8.26884575e-01 -1.08634631e+00  4.60867917e-01 -8.26884575e-01
 -1.08634631e+00  4.60867917e-01 -8.26884575e-01 -1.08634631e+00  4.60867917e-01
 -8.26884575e-01 -1.08634631e+00  4.60867917e-01 -8.26884575e-01 -1.08634631e+00
  4.60867917e-01 -8.26884575e-01 -1.08634631e+00  4.60867917e-01  8.27092500e-01
  1.08567033e+00 -4.62376687e-01  8.27092500e-01  1.08567033e+00 -4.62376687e-01
  8.27092500e-01  1.08567033e+00 -4.62376687e-01  8.27092500e-01  1.08567033e+00
 -4.62376687e-01  8.27092500e-01  1.08567033e+00 -4.62376687e-01  8.27092500e-01
  1.08567033e+00 -4.62376687e-01  8.27092500e-01  1.08567033e+00 -4.62376687e-01
  8.27092500e-01  1.08567033e+00 -4.62376687e-01 -3.62684339e+00 -6.66853186e-01
 -7.29142096e-02 -3.62684339e+00 -6.66853186e-01 -7.29142096e-02 -3.62684339e+00
 -6.66853186e-01 -7.29142096e-02 -3.62684339e+00 -6.66853186e-01 -7.29142096e-02
 -3.62684339e+00 -6.66853186e-01 -7.29142096e-02 -3.62684339e+00 -6.66853186e-01
 -7.29142096e-02 -3.62684339e+00 -6.66853186e-01 -7.29142096e-02 -3.62684339e+00
 -6.66853186e-01 -7.29142096e-02  3.62665717e+00  6.67481184e-01  7.43174917e-02
  3.62665717e+00  6.67481184e-01  7.43174917e-02  3.62665717e+00  6.67481184e-01
  7.43174917e-02  3.62665717e+00  6.67481184e-01  7.43174917e-02  3.62665717e+00
  6.67481184e-01  7.43174917e-02  3.62665717e+00  6.67481184e-01  7.43174917e-02
  3.62665717e+00  6.67481184e-01  7.43174917e-02  3.62665717e+00  6.67481184e-01
  7.43174917e-02 -5.36184948e-01 -1.34182970e+00  2.49736984e+00 -5.36184948e-01
 -1.34182970e+00  2.49736984e+00 -5.36184948e-01 -1.34182970e+00  2.49736984e+00
 -5.36184948e-01 -1.34182970e+00  2.49736984e+00 -2.01227771e-01 -2.84531493e+00
 -4.40022949e-01 -2.01227771e-01 -2.84531493e+00 -4.40022949e-01 -2.01227771e-01
 -2.84531493e+00 -4.40022949e-01 -2.01227771e-01 -2.84531493e+00 -4.40022949e-01
  2.00260167e-01  2.84496112e+00  4.37176031e-01  2.00260167e-01  2.84496112e+00
  4.37176031e-01  2.00260167e-01  2.84496112e+00  4.37176031e-01  2.00260167e-01
  2.84496112e+00  4.37176031e-01  5.37972408e-01  1.34006506e+00 -2.49927588e+00
  5.37972408e-01  1.34006506e+00 -2.49927588e+00  5.37972408e-01  1.34006506e+00
 -2.49927588e+00  5.37972408e-01  1.34006506e+00 -2.49927588e+00 -3.96702386e+00
 -4.66159981e-01 -2.10231340e+00 -3.96702386e+00 -4.66159981e-01 -2.10231340e+00
 -3.96702386e+00 -4.66159981e-01 -2.10231340e+00 -3.96702386e+00 -4.66159981e-01
 -2.10231340e+00 -4.30251246e+00  1.05447494e+00  8.51744388e-01 -4.30251246e+00
  1.05447494e+00  8.51744388e-01 -4.30251246e+00  1.05447494e+00  8.51744388e-01
 -4.30251246e+00  1.05447494e+00  8.51744388e-01 -4.77397145e+00 -2.24464810e+00
  6.08967541e-01 -4.77397145e+00 -2.24464810e+00  6.08967541e-01 -4.77397145e+00
 -2.24464810e+00  6.08967541e-01 -4.77397145e+00 -2.24464810e+00  6.08967541e-01
  4.30529663e+00 -1.04986586e+00 -8.55526761e-01  4.30529663e+00 -1.04986586e+00
 -8.55526761e-01  4.30529663e+00 -1.04986586e+00 -8.55526761e-01  4.30529663e+00
 -1.04986586e+00 -8.55526761e-01  3.96397637e+00  4.59913292e-01  2.10355862e+00
  3.96397637e+00  4.59913292e-01  2.10355862e+00  3.96397637e+00  4.59913292e-01
  2.10355862e+00  3.96397637e+00  4.59913292e-01  2.10355862e+00  4.77315657e+00
  2.24897550e+00 -6.00421402e-01  4.77315657e+00  2.24897550e+00 -6.00421402e-01
  4.77315657e+00  2.24897550e+00 -6.00421402e-01  4.77315657e+00  2.24897550e+00
 -6.00421402e-01
Total Energy                               R     -1.579610201210151e+02
Alpha Orbital Energies                     R   N=         132
 -1.12155426e+01 -1.12149256e+01 -1.12099704e+01 -1.12099589e+01 -1.07123195e+00
 -9.80524642e-01 -8.60281092e-01 -7.86937745e-01 -6.38533038e-01 -5.84281493e-01
 -5.75457303e-01 -5.67103492e-01 -5.14080913e-01 -4.94201128e-01 -4.69404996e-01
 -4.60719382e-01 -4.56741528e-01  1.58556819e-01  1.74406509e-01  1.89576143e-01
  1.90553889e-01  2.30011320e-01  2.40695771e-01  2.46337291e-01  2.59285690e-01
  2.62594962e-01  2.82208351e-01  3.61029414e-01  3.73303870e-01  4.05085582e-01
  4.46549065e-01  4.62238819e-01  4.77173487e-01  4.89731258e-01  4.97530423e-01
  5.14663706e-01  5.74949647e-01  6.84302905e-01  6.86419181e-01  7.55958955e-01
  7.93750982e-01  7.99153442e-01  8.07439038e-01  8.16472241e-01  8.19185843e-01
  8.25879272e-01  8.28023521e-01  8.29743210e-01  8.34595398e-01  8.34621408e-01
  8.77846796e-01  8.81268253e-01  9.49129327e-01  1.09449803e+00  1.13003000e+00
  1.17701242e+00  1.19863292e+00  1.25811221e+00  1.35944690e+00  1.46407961e+00
  1.51750501e+00  1.52137721e+00  1.57055382e+00  1.65646423e+00  1.72010868e+00
  1.72911305e+00  1.72963415e+00  1.74232633e+00  1.75988362e+00  1.76919258e+00
  1.78069159e+00  1.80693581e+00  1.81236883e+00  1.85352878e+00  1.88528924e+00
  1.95774221e+00  1.96002849e+00  1.98734355e+00  2.00684993e+00  2.04943881e+00
  2.05239088e+00  2.05889801e+00  2.14873065e+00  2.20823187e+00  2.24128864e+00
  2.29252125e+00  2.29655477e+00  2.38950022e+00  2.41210920e+00  2.43534645e+00
  2.46397375e+00  2.52412456e+00  2.56855143e+00  2.60565851e+00  2.66658060e+00
  2.71546453e+00  2.72525441e+00  2.73439899e+00  2.76146713e+00  2.78297183e+00
  2.83523170e+00  2.85438873e+00  2.86097398e+00  2.86719991e+00  2.87730134e+00
  2.89241799e+00  2.91568787e+00  2.96179562e+00  2.97250578e+00  3.01399208e+00
  3.03916101e+00  3.09915384e+00  3.10204470e+00  3.12732396e+00  3.22129399e+00
  3.25154259e+00  3.39628722e+00  3.57698879e+00  3.76553119e+00  4.18822306e+00
  4.18839372e+00  4.20330928e+00  4.21325340e+00  4.23821711e+00  4.25359332e+00
  4.50273448e+00  4.64554740e+00  4.79468935e+00  2.50258914e+01  2.50444215e+01
  2.50896131e+01  2.51181304e+01
Alpha MO coefficients                      R   N=       17424
  3.97394020e-01  3.29042990e-01 -9.18235420e-06  5.60658849e-05 -2.98465051e-05
  3.26714819e-03  1.90229013e-04  1.60580698e-04 -6.04152712e-05 -1.22705303e-03
  1.78493036e-04  2.05794902e-05  9.92099049e-06 -3.46841320e-06 -3.47084652e-05
 -1.84962785e-05 -3.83534546e-05  6.18387594e-05  3.98113040e-01  3.29638470e-01
  9.35973081e-06 -5.59894008e-05  2.96261065e-05  3.27249304e-03 -1.89980882e-04
 -1.60236676e-04  6.04628805e-05 -1.23139384e-03 -1.78252346e-04 -1.98946668e-05
 -1.05175566e-05 -3.42326770e-06 -3.47148493e-05 -1.83806524e-05 -3.83504811e-05
  6.16240158e-05  2.15162742e-02  1.77786518e-02  7.59511846e-05 -1.52674187e-05
  1.64842401e-05  2.97776680e-04  2.41347480e-04 -3.47889410e-05  4.52330777e-05
  5.45169463e-04  2.32195946e-04  1.34046509e-06  2.57275445e-05 -5.10120466e-05
  2.99277837e-05 -4.31672497e-06  8.94959233e-05 -1.76468587e-05  2.15964983e-02
  1.78450099e-02 -7.60949337e-05  1.52694046e-05 -1.65727915e-05  2.98718735e-04
 -2.41763145e-04  3.47002739e-05 -4.56760284e-05  5.45947680e-04 -2.32560082e-04
 -1.25782388e-06 -2.60776912e-05 -5.10537658e-05  3.01772622e-05 -4.32630423e-06
  8.96136671e-05 -1.75829120e-05  2.25989241e-04  2.38680798e-04  1.67806567e-04
 -8.35517573e-06  2.45309005e-05 -4.85143287e-05  2.25973255e-04  2.38868354e-04
  1.67778451e-04 -1.46456456e-05  5.26721071e-05  6.42172747e-06  2.26396304e-04
  2.39247741e-04  1.68119943e-04  1.46783496e-05 -5.26936344e-05 -6.37285441e-06
  2.26383992e-04  2.39303134e-04  1.67931529e-04  8.36404687e-06 -2.45281685e-05
  4.86518320e-05  1.40644768e-05 -3.41370993e-05 -1.84880066e-05  1.30706778e-06
 -4.72929033e-06  8.56807874e-06  1.40264060e-05 -3.40223943e-05 -1.87168281e-05
  2.39942862e-06 -9.57998276e-06 -8.14731334e-07  1.65563801e-05 -1.17533733e-05
  1.85864117e-05  9.19363138e-06  5.45240890e-06 -1.77099207e-06  1.40947466e-05
 -3.40031043e-05 -1.84222122e-05 -2.43359239e-06  9.58397080e-06  8.51958013e-07
  1.40682412e-05 -3.39589948e-05 -1.86304027e-05 -1.36545614e-06  4.75434563e-06
 -8.62813540e-06  1.66116728e-05 -1.18547784e-05  1.84971436e-05 -9.16952531e-06
 -5.48145449e-06  1.72360836e-06  3.97969963e-01  3.29597505e-01 -1.00972339e-04
 -8.55087359e-05  3.21690356e-05  2.98399944e-03 -1.01483212e-04 -1.72142948e-04
  7.65583621e-05 -2.41888153e-03 -1.34669770e-04 -4.21190736e-04  1.99055152e-04
  6.86354603e-05  3.31312849e-05  5.63575011e-05 -1.18350406e-05 -9.93983429e-05
 -3.97245964e-01 -3.28998024e-01 -1.00949914e-04 -8.55421360e-05  3.23728229e-05
 -2.97798333e-03 -1.01952266e-04 -1.72403187e-04  7.65497144e-05  2.41658153e-03
 -1.35176002e-04 -4.20175661e-04  2.01147297e-04 -6.86473225e-05 -3.31034895e-05
 -5.63106801e-05  1.16967561e-05  9.95492750e-05  2.51698734e-02  2.08000558e-02
  8.11962089e-05 -1.25268637e-05  1.56399867e-05  3.78201549e-04  2.58642932e-04
 -3.69018321e-05  4.85902481e-05  4.88590736e-04  2.15871215e-04 -8.84168857e-05
  7.08312478e-05 -4.87522166e-05  2.88565215e-05 -6.58249180e-06  8.21319945e-05
 -1.78960356e-05 -2.51776681e-02 -2.08065835e-02  8.10511666e-05 -1.24478322e-05
  1.57302651e-05 -3.78027726e-04  2.58182767e-04 -3.68909709e-05  4.84354985e-05
 -4.87419961e-04  2.15564197e-04 -8.91002936e-05  6.95967939e-05  4.85396847e-05
 -2.90237511e-05  6.61770282e-06 -8.19626466e-05  1.77577086e-05  2.33144151e-04
  2.58248779e-04  1.48050511e-04 -1.44712083e-05  1.13988165e-05 -2.42766085e-05
  2.33200834e-04  2.57631958e-04  1.47592241e-04 -1.74646567e-05  2.47929265e-05
  2.08175391e-06 -2.32718426e-04 -2.57880282e-04 -1.47738772e-04 -1.74636763e-05
  2.47936751e-05  2.03825564e-06 -2.32777441e-04 -2.57234095e-04 -1.47214035e-04
 -1.44274332e-05  1.12946023e-05 -2.41889090e-05  1.26913455e-05  2.92315459e-05
  3.80821776e-05  1.85438752e-05  1.51335131e-06  1.97928835e-05  1.28093441e-05
  2.84716698e-05  3.78139681e-05  2.17136093e-05 -1.32030561e-05 -9.04115753e-06
  2.19664080e-05 -6.17576958e-05 -5.89817329e-05 -1.01982059e-05  2.30364181e-06
 -2.41938237e-06 -1.27003215e-05 -2.92944322e-05 -3.81546848e-05  2.18474729e-05
 -1.32840047e-05 -9.11730366e-06 -1.27966648e-05 -2.86321640e-05 -3.78846073e-05
  1.84450063e-05  1.50265218e-06  1.96418422e-05 -2.19604137e-05  6.17137418e-05
  5.90003426e-05 -1.02222460e-05  2.35195924e-06 -2.31088053e-06  6.67836109e-03
  5.54139892e-03  4.03541715e-05  1.74913988e-06  3.69525037e-06  3.17671172e-05
  1.14051269e-04  5.88153037e-06  1.00872396e-05 -1.76215789e-04 -2.25897714e-04
  3.48043071e-05 -4.36015791e-05  1.38002441e-05 -9.10858923e-06 -1.38609849e-06
 -2.82335146e-05  6.12819787e-06  3.11708663e-02  2.58674243e-02 -1.20215105e-04
  2.13868271e-05 -2.48083804e-05  1.81379182e-05 -2.96936180e-04  3.62554754e-05
 -5.27213920e-05 -5.83078240e-04 -2.61038770e-04  8.98697509e-07 -3.05974695e-05
  5.95910322e-05 -4.14613269e-05  1.31738170e-06 -1.13115534e-04  3.11048110e-05
 -1.55501159e-01 -1.28779554e-01  1.05337651e-05 -1.54565804e-06  2.01570270e-06
 -1.18658342e-03  1.31648665e-05 -4.57424439e-06  3.82098026e-06  1.55945267e-04
 -6.40483834e-05  1.45122090e-05 -1.46477340e-05 -4.59180751e-06  7.01227968e-06
  3.86467253e-07  1.13153033e-05 -9.27601229e-06 -5.40538207e-01 -4.47650553e-01
 -4.26932472e-05  6.03155721e-06 -7.95805784e-06 -4.20850843e-03 -4.47549510e-05
  1.20094452e-05 -1.12986092e-05  1.71882078e-03 -2.77308555e-04 -7.80663154e-05
  7.80653980e-06 -2.34660708e-05  2.46592314e-05  4.08346711e-07  5.02693256e-05
 -2.71152865e-05 -1.92438728e-06  8.50515965e-05  3.68487212e-05  2.03561305e-05
 -6.50510215e-07 -1.16247421e-05 -1.96548215e-06  8.52214648e-05  3.66981628e-05
  1.78108169e-05  1.08813955e-05  1.07946785e-05  2.06799065e-05  3.03615496e-05
  1.42226543e-05 -9.89583260e-06  8.66710604e-06  1.09442981e-06  2.06804605e-05
  3.03356335e-05  1.41523528e-05 -8.70279429e-06  3.29487347e-06 -9.35350646e-06
 -9.85596122e-05 -3.02680271e-05 -6.95626653e-05 -5.87156445e-06 -1.01075154e-06
 -3.58987015e-06 -9.85529246e-05 -3.03642508e-05 -6.95900501e-05 -6.48841196e-06
  1.77355590e-06  1.79470595e-06 -9.93905905e-05 -1.34633018e-05 -7.10880993e-05
 -4.06140565e-06  1.55111231e-06 -1.27076280e-06 -3.26247466e-04 -2.56712137e-04
 -2.20399108e-04  3.36057331e-05 -2.16736959e-05 -1.68749891e-05 -3.26251563e-04
 -2.56619100e-04 -2.20368183e-04  2.78282338e-05  3.78386182e-06  3.30652951e-05
 -3.36902296e-04 -1.56980286e-04 -1.62618622e-04  2.70187177e-05  7.54550940e-06
 -7.31326132e-07  3.25321400e-02  2.69976464e-02  1.16591888e-04 -2.63943382e-05
  2.67923647e-05  1.00020105e-06  2.79038507e-04 -4.66017678e-05  5.56351226e-05
 -5.77386268e-04  4.49608858e-04 -2.30845078e-05  6.29656154e-05  6.17766330e-05
 -4.30178969e-05  2.39211142e-06 -1.15816466e-04  3.29966636e-05 -1.16228640e-02
 -9.64620607e-03  2.77221720e-05 -1.54775467e-05  1.11214547e-05  2.62947846e-05
  5.15059342e-05 -2.95981702e-05  2.11903945e-05  1.57328176e-04  4.30038862e-04
 -4.15211570e-05  7.07827336e-05 -2.11214201e-05  1.51766238e-05 -2.41575221e-06
  3.75622442e-05 -1.23183325e-05 -5.40458752e-01 -4.47584674e-01  4.36723834e-05
 -6.14599810e-06  8.20712377e-06 -4.22335333e-03  4.48553205e-05 -1.12129082e-05
  1.07285988e-05  1.93053660e-03  3.67277192e-04  8.26049790e-05 -7.96734560e-07
 -2.48680569e-05  2.46713136e-05  3.58981679e-07  5.22571294e-05 -2.63181951e-05
  1.55212570e-01  1.28540201e-01  1.42862560e-05 -1.95346639e-06  2.63164673e-06
  1.23701606e-03  1.25953497e-05 -2.09050406e-06  2.52943768e-06 -8.92932130e-04
  2.49261315e-04  3.18849251e-05  1.25766775e-05  9.33144394e-06 -7.16441598e-06
  1.41565670e-07 -1.81396580e-05  6.09007475e-06  2.55660875e-05 -1.74950166e-05
 -6.32639593e-06 -2.49440050e-06 -3.49879630e-06  1.83380580e-05  2.55986077e-05
 -1.76730553e-05 -6.29303929e-06  5.26555414e-07 -1.70419850e-05 -8.07820233e-06
 -1.52116093e-05  8.13400918e-05  3.46039161e-05 -1.47939657e-05 -1.82130443e-05
 -1.34115631e-05 -1.52670860e-05  8.15760267e-05  3.43795974e-05 -1.86000263e-05
 -1.32681430e-06  1.96366266e-05 -3.23259329e-04 -2.83959393e-04 -2.16453334e-04
 -2.92927912e-05 -3.97053619e-06 -3.67184620e-05 -3.23293248e-04 -2.83688870e-04
 -2.16507009e-04 -3.55107011e-05  2.45331306e-05  1.86859469e-05 -3.35360540e-04
 -1.76555279e-04 -1.47519187e-04 -2.92783663e-05 -9.72124228e-06  1.69016219e-06
  8.81339692e-05  1.25107263e-04  5.60090594e-05 -1.34092716e-05  1.15094205e-05
  8.44961779e-06  8.81443774e-05  1.24956304e-04  5.59841477e-05 -1.05171632e-05
 -1.19817367e-06 -1.64456201e-05  9.38403501e-05  8.23859070e-05  1.80526798e-05
 -1.21142881e-05 -6.53220270e-06  1.92345694e-06  6.65499020e-02  1.09686662e-01
 -2.20933546e-03 -1.56477888e-02  7.75433263e-03 -2.77652635e-01 -1.08264857e-03
 -3.67729774e-02  1.86938868e-02 -1.53345636e-01  5.77140691e-03 -7.82743697e-03
  4.66676392e-03  6.25833097e-03  1.09035570e-03  4.26746600e-03 -3.28590647e-03
 -5.73450241e-03  6.65501697e-02  1.09687164e-01  2.20564892e-03  1.56428607e-02
 -7.77275676e-03 -2.77655154e-01  1.07899377e-03  3.67604223e-02 -1.87301291e-02
 -1.53346443e-01 -5.77102746e-03  7.82380967e-03 -4.67865692e-03  6.25552437e-03
  1.08025558e-03  4.26831845e-03 -3.28519423e-03 -5.73858296e-03  4.28507236e-02
  7.05263189e-02 -2.02175475e-02  6.74409286e-04 -2.64962537e-03 -1.77808561e-01
 -4.34225351e-02  2.47223675e-03 -6.21703889e-03 -8.24963313e-02 -5.56270722e-03
 -1.58564091e-03  1.84721314e-04  4.30085404e-03 -2.62374747e-03  5.39361024e-05
 -8.02010318e-03  1.60785065e-03  4.28537439e-02  7.05313817e-02  2.02205099e-02
 -6.63367759e-04  2.66899678e-03 -1.77822407e-01  4.34242829e-02 -2.45351290e-03
  6.25527841e-03 -8.25080468e-02  5.56316877e-03  1.59535365e-03 -1.69296097e-04
  4.29277107e-03 -2.63799388e-03  5.74657206e-05 -8.02186591e-03  1.60064048e-03
 -4.27149160e-02 -5.61364777e-02  4.30363549e-03  1.56420328e-03 -1.84122485e-03
  1.23734762e-02 -4.27130923e-02 -5.61293911e-02  4.30236677e-03  3.57702772e-03
 -1.08757703e-02 -5.27793080e-03 -4.27142233e-02 -5.61335522e-02  4.30476617e-03
 -3.58415696e-03  1.08774573e-02  5.26958696e-03 -4.27069305e-02 -5.61245785e-02
  4.30084231e-03 -1.55488567e-03  1.83452547e-03 -1.23744609e-02 -2.78454903e-02
 -3.68108373e-02  9.77261147e-04 -1.86466831e-03  8.42038870e-04 -7.77960172e-03
 -2.78529234e-02 -3.68191542e-02  9.66546469e-04 -3.13346554e-03  6.58956453e-03
  3.38617780e-03 -2.54127035e-02 -3.59722801e-02  1.67378078e-04 -5.17248341e-03
 -5.80022010e-03  2.39744363e-03 -2.78508169e-02 -3.68150205e-02  9.77262801e-04
  3.14446730e-03 -6.57527512e-03 -3.40589126e-03 -2.78535493e-02 -3.68201644e-02
  9.67470853e-04  1.85474560e-03 -8.67722898e-04  7.77957339e-03 -2.54096018e-02
 -3.59692040e-02  1.67102247e-04  5.16964919e-03  5.81315499e-03 -2.37057650e-03
  3.69621321e-02  6.10107522e-02  3.86754976e-02  8.96442347e-03 -1.74954305e-04
 -1.54072690e-01  7.28220889e-02  1.38356722e-02  1.22750563e-03 -1.15369510e-01
  1.81598372e-02 -2.85480337e-03  3.52187205e-03  2.38334597e-03 -5.31244431e-03
 -1.49453897e-03 -8.57879834e-03  7.58855444e-03 -3.69628710e-02 -6.10119694e-02
  3.86722850e-02  8.97183450e-03 -1.52457484e-04  1.54075977e-01  7.28143760e-02
  1.38512655e-02  1.27029162e-03  1.15370775e-01  1.81537212e-02 -2.83946607e-03
  3.55544755e-03 -2.37627935e-03  5.33140526e-03  1.49266341e-03  8.57757841e-03
 -7.57914314e-03  6.64992357e-02  1.09684497e-01 -1.04463077e-02  3.05406026e-03
 -2.75140869e-03 -2.77892428e-01 -2.58391264e-02  6.75715307e-03 -6.39995623e-03
 -1.54861725e-01  2.79695958e-04  2.08894180e-03 -1.03402082e-03  2.40379020e-03
 -1.85076868e-03  6.70177563e-04 -3.79665661e-03  1.72311178e-03 -6.64920518e-02
 -1.09672792e-01 -1.04524715e-02  3.04219301e-03 -2.76848919e-03  2.77865106e-01
 -2.58433508e-02  6.73718777e-03 -6.43536162e-03  1.54850076e-01  2.78592312e-04
  2.08413225e-03 -1.04107713e-03 -2.40191967e-03  1.86236596e-03 -6.68538644e-04
  3.79494157e-03 -1.71777750e-03 -2.56680477e-02 -3.33684107e-02  3.47741635e-04
  2.29878364e-03 -4.31152235e-04  6.59037036e-03 -2.56731265e-02 -3.33816680e-02
  3.38151614e-04  3.39074681e-03 -5.33606486e-03 -2.98970030e-03  2.56685812e-02
  3.33684251e-02 -3.47527975e-04  3.39511758e-03 -5.33585965e-03 -2.98486701e-03
  2.56728129e-02  3.33813644e-02 -3.37353034e-04  2.29291246e-03 -4.28305475e-04
  6.59260438e-03 -4.86108030e-02 -6.65199401e-02  3.12150337e-05 -2.43632981e-03
  1.35654235e-03 -1.22621837e-02 -4.86028772e-02 -6.65141558e-02  3.32471209e-05
 -4.44143570e-03  1.04501703e-02  5.40322618e-03 -5.01575064e-02 -6.72535239e-02
 -1.47179831e-03 -7.45095482e-03 -9.40970638e-03  3.99699899e-03  4.86069251e-02
  6.65141706e-02 -3.34368990e-05 -4.46033547e-03  1.04256707e-02  5.43408158e-03
  4.85952847e-02  6.65041562e-02 -3.38038168e-05 -2.41819393e-03  1.39754236e-03
 -1.22590870e-02  5.01431578e-02  6.72365634e-02  1.47138979e-03 -7.44540630e-03
 -9.42922630e-03  3.95278237e-03  3.90891818e-02  6.47849453e-02 -4.54708850e-02
 -1.12259601e-02  5.75982698e-04 -1.66261752e-01 -7.99872369e-02 -2.32288018e-02
  2.79527029e-03 -1.21861262e-01 -2.37791524e-02 -6.63669823e-03  6.94081875e-04
 -3.11741538e-03  5.46952173e-03  3.03514562e-03  1.19612244e-02 -7.01886398e-03
  3.90733692e-02  6.47587889e-02  4.54695816e-02  1.12600768e-02 -5.31746351e-04
 -1.66194832e-01  7.99874190e-02  2.32865795e-02 -2.71581525e-03 -1.21817246e-01
  2.37769946e-02  6.65554442e-03 -6.71749587e-04 -3.11219794e-03  5.48365350e-03
  3.03624993e-03  1.19616476e-02 -7.01609072e-03 -5.86741419e-02 -9.70766501e-02
 -3.41866599e-02  8.03549383e-04 -4.30810995e-03  2.45795761e-01 -5.36622693e-02
  1.22479079e-03 -6.74438921e-03  1.81267382e-01 -1.67374688e-02  1.63261394e-03
 -2.74279197e-03  4.10310068e-03 -2.57561280e-03  4.79562659e-05 -7.69146759e-03
  1.66639062e-03 -5.86746490e-02 -9.70776868e-02  3.41670315e-02 -7.92638132e-04
  4.33382009e-03  2.45801126e-01  5.36326029e-02 -1.20484664e-03  6.78411163e-03
  1.81276249e-01  1.67274926e-02 -1.62401461e-03  2.75766670e-03  4.09313443e-03
 -2.58837608e-03  5.28669169e-05 -7.69166945e-03  1.65809979e-03 -3.57932408e-02
 -4.87712375e-02 -3.32498239e-03 -6.73434085e-04 -1.45757210e-03  7.74695712e-03
 -3.58106841e-02 -4.87950448e-02 -3.32843987e-03  5.92109459e-04 -7.14186516e-03
 -3.35563082e-03 -3.57766834e-02 -4.87478055e-02 -3.32341783e-03 -5.95984471e-04