Generated by Psi4
        SP                        DF-MP2                      6-311G**
Number of atoms                            I                4
Charge                                     I                0
Multiplicity                               I                1
Number of electrons                        I               10
Number of alpha electrons                  I                5
Number of beta electrons                   I                5
Number of basis functions                  I               36
Number of independent functions            I               36
Atomic numbers                             I   N=           4
           7           1           1           1
Nuclear charges                            R   N=           4
  7.00000000e+00  1.00000000e+00  1.00000000e+00  1.00000000e+00
Current cartesian coordinates              R   N=          12
 -4.34059129e-02 -1.21552571e-01  1.71735293e-02 -6.36224896e-01  1.07125565e+00
  1.40199116e+00 -6.36153838e-01  6.40892371e-01 -1.64393540e+00  1.87547569e+00
 -2.32540207e-02  3.32920663e-03
Integer atomic weights                     I   N=           4
          14           1           1           1
Real atomic weights                        R   N=           4
  1.40030740e+01  1.00782503e+00  1.00782503e+00  1.00782503e+00
Number of primitive shells                 I               35
Number of contracted shells                I               20
Pure/Cartesian d shells                    I                0
Pure/Cartesian f shells                    I                0
Highest angular momentum                   I                2
Largest degree of contraction              I                6
Shell types                                I   N=          20
           0           0           1           0           1           0
           1          -2           0           0           0           1
           0           0           0           1           0           0
           0           1
Number of primitives per shell             I   N=          20
           6           3           3           1           1           1
           1           1           3           1           1           1
           3           1           1           1           3           1
           1           1
Shell to atom map                          I   N=          20
           1           1           1           1           1           1
           1           1           2           2           2           2
           3           3           3           3           4           4
           4           4
Primitive exponents                        R   N=          35
  6.29348000e+03  9.49044000e+02  2.18776000e+02  6.36916000e+01  1.88282000e+01
  2.72023000e+00  3.06331000e+01  7.02614000e+00  2.11205000e+00  3.06331000e+01
  7.02614000e+00  2.11205000e+00  6.84009000e-01  6.84009000e-01  2.00878000e-01
  2.00878000e-01  9.13000000e-01  3.38650000e+01  5.09479000e+00  1.15879000e+00
  3.25840000e-01  1.02741000e-01  7.50000000e-01  3.38650000e+01  5.09479000e+00
  1.15879000e+00  3.25840000e-01  1.02741000e-01  7.50000000e-01  3.38650000e+01
  5.09479000e+00  1.15879000e+00  3.25840000e-01  1.02741000e-01  7.50000000e-01
Contraction coefficients                   R   N=          35
  1.96978815e-03  1.49612859e-02  7.35005308e-02  2.48936766e-01  6.02459433e-01
  2.56201759e-01  1.11906080e-01  9.21666655e-01 -2.56919183e-03  3.83119186e-02
  2.37403116e-01  8.17592398e-01  1.00000000e+00  1.00000000e+00  1.00000000e+00
  1.00000000e+00  1.00000000e+00  2.54938145e-02  1.90373109e-01  8.52161486e-01
  1.00000000e+00  1.00000000e+00  1.00000000e+00  2.54938145e-02  1.90373109e-01
  8.52161486e-01  1.00000000e+00  1.00000000e+00  1.00000000e+00  2.54938145e-02
  1.90373109e-01  8.52161486e-01  1.00000000e+00  1.00000000e+00  1.00000000e+00
Coordinates of each shell                  R   N=          60
 -4.34059129e-02 -1.21552571e-01  1.71735293e-02 -4.34059129e-02 -1.21552571e-01
  1.71735293e-02 -4.34059129e-02 -1.21552571e-01  1.71735293e-02 -4.34059129e-02
 -1.21552571e-01  1.71735293e-02 -4.34059129e-02 -1.21552571e-01  1.71735293e-02
 -4.34059129e-02 -1.21552571e-01  1.71735293e-02 -4.34059129e-02 -1.21552571e-01
  1.71735293e-02 -4.34059129e-02 -1.21552571e-01  1.71735293e-02 -6.36224896e-01
  1.07125565e+00  1.40199116e+00 -6.36224896e-01  1.07125565e+00  1.40199116e+00
 -6.36224896e-01  1.07125565e+00  1.40199116e+00 -6.36224896e-01  1.07125565e+00
  1.40199116e+00 -6.36153838e-01  6.40892371e-01 -1.64393540e+00 -6.36153838e-01
  6.40892371e-01 -1.64393540e+00 -6.36153838e-01  6.40892371e-01 -1.64393540e+00
 -6.36153838e-01  6.40892371e-01 -1.64393540e+00  1.87547569e+00 -2.32540207e-02
  3.32920663e-03  1.87547569e+00 -2.32540207e-02  3.32920663e-03  1.87547569e+00
 -2.32540207e-02  3.32920663e-03  1.87547569e+00 -2.32540207e-02  3.32920663e-03
Total Energy                               R     -5.640872931238357e+01
Alpha Orbital Energies                     R   N=          36
 -1.55304664e+01 -1.13394646e+00 -6.19712402e-01 -6.19710908e-01 -4.23866753e-01
  1.55680930e-01  2.29620948e-01  2.29621037e-01  5.16573783e-01  5.16575081e-01
  6.65249374e-01  8.19119045e-01  9.54766556e-01  9.54766857e-01  1.11930711e+00
  1.35381477e+00  1.35381711e+00  1.79693078e+00  1.81365436e+00  1.90367620e+00
  1.90367741e+00  2.16735697e+00  2.16735939e+00  2.45340111e+00  2.68253398e+00
  2.68253735e+00  2.86129006e+00  2.98679089e+00  2.98679161e+00  3.12841638e+00
  3.44895233e+00  3.44895353e+00  4.42388025e+00  5.20670336e+00  5.20671057e+00
  3.70308799e+01
Alpha MO coefficients                      R   N=        1296
  5.57652323e-01  4.68275035e-01  6.54161063e-04  1.83191498e-03 -2.58819546e-04
  4.87131035e-03 -2.54986858e-04 -7.14060559e-04  1.00886638e-04 -8.19759831e-04
  3.87712871e-06  1.08598421e-05 -1.53417738e-06 -5.69359515e-05 -9.15001830e-06
 -2.56206880e-05 -7.91148743e-05  6.47584481e-05  2.57718085e-04  2.53706228e-04
  9.44637275e-05  6.62460820e-05 -1.65396146e-05 -1.07677313e-04  2.57717388e-04
  2.53708488e-04  9.44626675e-05  6.62413550e-05  1.39396953e-05  1.08048941e-04
  2.57717221e-04  2.53710584e-04  9.44617242e-05 -1.11644675e-04  6.09768649e-05
 -8.61813224e-06  1.07225425e-01  1.77382280e-01 -1.15566338e-02 -3.23634524e-02
  4.57229669e-03 -4.73247006e-01 -1.86060995e-02 -5.21048094e-02  7.36138864e-03
 -3.25482948e-01 -6.19289926e-03 -1.73427191e-02  2.45019529e-03 -1.91122270e-03
 -3.07085700e-04 -8.60073127e-04 -2.65549719e-03  2.17367794e-03 -8.98149864e-02
 -9.66429501e-02 -2.30310821e-03 -8.59378696e-03  1.25264541e-02  1.81537669e-02
 -8.98146768e-02 -9.66427476e-02 -2.30312702e-03 -8.59285449e-03  7.00648721e-03
 -2.09140035e-02 -8.98145675e-02 -9.66427153e-02 -2.30315695e-03  2.36218418e-02
 -1.51199694e-03  2.14174685e-04  2.57045813e-08  4.47442262e-08 -2.70529457e-02
  3.79766534e-02  2.00421343e-01 -1.18671988e-07 -4.22483261e-02  5.93077492e-02
  3.12996099e-01 -3.86168342e-07 -2.73974240e-02  3.84602008e-02  2.02973418e-01
 -5.45065509e-03 -7.68067933e-03  3.07743676e-02 -7.86134574e-03 -3.30543831e-03
  1.55017077e-01  2.34072796e-01  8.57393005e-02  1.07224321e-02 -1.73725213e-02
 -1.20057209e-02 -1.31709470e-01 -1.98878933e-01 -7.28480644e-02 -1.30560059e-02
  1.30761798e-02 -1.16936981e-02 -2.33076853e-02 -3.51942037e-02 -1.28914440e-02
  3.39500148e-03  2.80633865e-03  1.58357237e-02  6.80495150e-08  1.14127124e-07
  1.92108208e-01 -6.32433040e-02  3.79143685e-02 -3.23790849e-07  3.00013618e-01
 -9.87664882e-02  5.92105304e-02 -3.79084653e-07  1.94555191e-01 -6.40489101e-02
  3.83973230e-02 -1.68441004e-02 -3.30716377e-03  3.90406245e-03  2.37615533e-02
  1.52963047e-02 -6.25856594e-02 -9.45031052e-02 -3.46161789e-02  9.96267662e-03
  3.23472958e-03  1.42202794e-02 -1.02955599e-01 -1.55461119e-01 -5.69448487e-02
  6.61550634e-03  2.89139640e-03 -1.85077187e-02  1.65541509e-01  2.49965135e-01
  9.15612431e-02 -2.41154564e-02 -3.64482895e-03  2.79986228e-03  3.48515368e-02
  5.91270115e-02  8.36915291e-02  2.34371135e-01 -3.31127644e-02 -1.78144232e-01
  1.25320038e-01  3.50948290e-01 -4.95831960e-02 -2.33086734e-01  1.53047964e-01
  4.28597681e-01 -6.05537527e-02 -7.57864170e-03 -1.21783199e-03 -3.41041667e-03
 -1.05304524e-02  8.61979771e-03  4.45259193e-02  4.01962753e-02  2.89525127e-02
  1.04402829e-02  1.50608278e-02 -9.84635376e-03  4.45259582e-02  4.01964702e-02
  2.89527188e-02  1.04399208e-02  1.71992605e-02  5.28876210e-03  4.45257820e-02
  4.01962121e-02  2.89526275e-02 -2.04030277e-03  2.04994052e-02 -2.89644729e-03
  4.17653502e-02  6.74416082e-02 -1.82913565e-02 -5.12222864e-02  7.23706955e-03
 -9.79965433e-02 -3.05388903e-02 -8.55202512e-02  1.20827853e-02 -1.28893703e+00
 -7.95280638e-02 -2.22707029e-01  3.14655960e-02 -8.75623080e-04 -1.40657121e-04
 -3.94048613e-04 -1.21654913e-03  9.95799723e-04  2.16850546e-02 -1.14458649e-02
  7.01839861e-01  4.89116663e-04 -4.69198530e-03 -2.63750838e-03  2.16851785e-02
 -1.14460490e-02  7.01841294e-01  4.88934429e-04 -3.77752985e-03  3.83416161e-03
  2.16851780e-02 -1.14464590e-02  7.01842100e-01 -4.84741750e-03 -2.36641176e-03
  3.34262544e-04 -2.88407050e-09 -1.32520771e-09  3.67976202e-02  4.36424340e-03
  1.23895202e-01 -8.49773056e-08  3.26984836e-02  3.87799884e-03  1.10093137e-01
  7.40858551e-07  2.00145246e-01  2.37376980e-02  6.73877487e-01  5.02805390e-04
  5.80060423e-03  3.34983203e-03 -4.94100064e-05  2.52657554e-03 -1.41172881e-02
  1.07152597e-01 -1.28524523e+00  3.64349212e-03 -8.07863224e-03 -7.39251878e-03
  2.04330618e-02 -1.55087346e-01  1.86020643e+00 -4.55526635e-03  7.95782871e-03
 -1.39200338e-02 -6.31564818e-03  4.79350054e-02 -5.74962111e-01 -5.09862151e-03
 -5.92135957e-04  1.07543528e-03 -8.66450249e-08 -1.34236773e-07 -1.16235725e-01
  4.61544414e-02  3.28966762e-02  9.22535582e-08 -1.03287143e-01  4.10128509e-02
  2.92318357e-02  3.36554081e-06 -6.32216116e-01  2.51037922e-01  1.78928316e-01
 -4.17605315e-03  2.65840201e-03 -2.12920770e-04 -1.33908333e-03 -5.01623185e-03
 -1.54433072e-02  1.17215364e-01 -1.40594819e+00  2.73889726e-03 -8.50764252e-03
 -8.90447038e-03 -4.50465389e-03  3.41887648e-02 -4.10083767e-01  1.42800528e-04
 -1.37893718e-03  3.54833058e-03  1.99479818e-02 -1.51403760e-01  1.81602765e+00
  1.61040699e-02  2.34773753e-03 -1.73228331e-05  6.08381567e-08  1.18133247e-07
  7.15885381e-02 -2.36278071e-02  1.37011235e-02 -2.20724139e-07  1.20441130e-01
 -3.97517477e-02  2.30508452e-02 -6.36359308e-06  1.24649042e+00 -4.11407261e-01
  2.38561816e-01  5.82483237e-03 -5.50994010e-05  2.93507389e-03  3.28503163e-03
  1.02879921e-02  3.09691651e-02  5.87723337e-01 -1.85297446e-01  1.87480677e-02
 -1.11657626e-02 -4.55891782e-03  4.98917674e-02  9.46831740e-01 -2.98518520e-01
  2.07762042e-02 -1.11409925e-02  1.72913198e-02 -8.08604592e-02 -1.53454695e+00
  4.83815801e-01  4.20936058e-02 -4.63174605e-03  2.88820850e-03  5.83188651e-08
  9.24455023e-08 -9.67403562e-03  1.40091338e-02  7.47064614e-02 -2.71325256e-07
 -1.62758128e-02  2.35694250e-02  1.25687737e-01  2.90199284e-06 -1.68444762e-01
  2.43930878e-01  1.30079281e+00 -2.53574521e-03  1.03420377e-02  6.60873102e-03
 -1.45402497e-03  6.99641643e-05 -7.54892610e-02 -1.43262991e+00  4.51672314e-01
 -1.01786905e-02  1.78242704e-02  3.44103511e-02  6.45644766e-02  1.22529861e+00
 -3.86308133e-01  4.83677526e-03 -4.80876302e-03  3.46556184e-02  1.09250108e-02
  2.07332580e-01 -6.53675383e-02 -5.68761959e-03  2.95684604e-03  1.61081527e-02
  4.91530489e-02  8.92819395e-02 -5.92084027e-03 -1.65789736e-02  2.34251183e-03
 -1.99626942e-01 -1.00338966e-02 -2.80956109e-02  3.96951614e-03 -2.07289882e+00
 -3.60748670e-01 -1.01022963e+00  1.42724642e-01  9.19548677e-03  1.47770138e-03
  4.13787071e-03  1.27770843e-02 -1.04587102e-02  4.23252349e-02  1.56875303e+00
 -3.44614959e-01  3.48763893e-03 -4.03544474e-02 -2.15870986e-02  4.23252181e-02
  1.56874751e+00 -3.44617397e-01  3.48620213e-03 -3.27937360e-02  3.19219969e-02
  4.23252995e-02  1.56875604e+00 -3.44619395e-01 -4.06373955e-02 -2.11255858e-02
  2.98390923e-03  6.38441039e-04  7.63048778e-04 -8.04050309e-02 -2.25166545e-01
  3.18123657e-02 -7.05279811e-02 -2.80706789e-01 -7.86093313e-01  1.11062214e-01
  6.87974703e-01  4.32343913e-01  1.21073295e+00 -1.71057753e-01  1.42620958e-02
  2.29176024e-03  6.41797482e-03  1.98168686e-02 -1.62211056e-02  1.28813528e-02
 -1.13438472e-01 -1.87265296e-01 -4.84780001e-02  1.42199148e-02  7.96492869e-02
  1.28813952e-02 -1.13439760e-01 -1.87265509e-01 -4.84741389e-02 -8.40377484e-03
 -8.04734738e-02  1.28814238e-02 -1.13440629e-01 -1.87266311e-01  8.35613565e-02
 -4.33175600e-02  6.12231392e-03 -3.33389166e-08 -7.74600273e-08  2.18884795e-01
 -6.05250283e-02  1.24832227e-01  1.31001082e-06  6.98394502e-01 -1.93117455e-01
  3.98301142e-01 -6.55929773e-06 -1.45436582e+00  4.02152383e-01 -8.29439622e-01
  4.67504386e-02  1.85060187e-02 -1.72279086e-02 -3.58783530e-02 -6.92897640e-03
  1.73005530e-03 -3.58853911e-04 -7.77339895e-02  4.20907968e-02 -4.22351387e-03
  3.74744896e-02  2.27958904e-02 -4.77107124e-03 -1.02428957e+00 -1.57401494e-02
  5.82788024e-02 -1.41410027e-01 -2.45260719e-02  5.13863254e-03  1.10202371e+00
 -1.60788110e-01 -1.68822662e-02  2.72639541e-02 -1.53160434e-09  1.92034008e-08
 -1.08551839e-01  7.04827759e-02  2.24512041e-01 -1.18298773e-06 -3.46355616e-01
  2.24889152e-01  7.16348198e-01  6.54760748e-06  7.21265764e-01 -4.68315365e-01
 -1.49175574e+00 -9.43744500e-03  3.40026517e-02 -4.64981736e-02  2.57264106e-02
  9.53843302e-03 -2.73208851e-02  5.71683961e-03  1.22762947e+00  5.17828224e-02
 -1.22771980e-01 -1.21911038e-01  1.51587320e-02 -3.17823988e-03 -6.81133578e-01
 -6.48444436e-02  6.24505493e-02 -6.37556870e-02  1.21624950e-02 -2.54993005e-03
 -5.46494674e-01  7.97336636e-02  1.70320822e-02  4.77713448e-02  1.02196729e-01
  2.10724719e-01 -1.11806934e-02 -3.13118182e-02  4.42366881e-03 -1.68113274e+00
  6.16169411e-02  1.72550621e-01 -2.43777735e-02  4.29070635e+00  2.21836107e-01
  6.21223531e-01 -8.77677793e-02  6.37333127e-03  1.02384738e-03  2.86824804e-03
  8.85453578e-03 -7.24865461e-03  1.93889074e-02 -9.28734392e-01 -4.22447673e-01
 -5.64054140e-02  2.28151289e-01  1.77988203e-01  1.93890602e-02 -9.28732878e-01
 -4.22444902e-01 -5.63954254e-02  1.69907213e-01 -2.34232438e-01  1.93892136e-02
 -9.28736933e-01 -4.22440979e-01  2.83517202e-01  8.00221392e-02 -1.12998866e-02
  1.28992378e-08  2.41556896e-08 -5.13767777e-04  2.94874224e-03  1.95724870e-02
 -1.42951787e-07 -1.98460188e-03  1.13924340e-02  7.56154813e-02  1.08238374e-06
 -8.89398386e-03  5.10401180e-02  3.38782527e-01  2.72077598e-02 -2.05081968e-01
 -9.29897222e-02  1.45424898e-02 -2.40781994e-02  3.43163483e-02 -2.65667499e-01
  1.79623559e-02 -4.14064932e-01 -2.58856552e-01  7.63017340e-02 -3.32433446e-02
  2.57359418e-01 -1.74009875e-02  4.26994876e-01  2.50150965e-01 -1.28441546e-02
 -1.07302898e-03  8.30700805e-03 -5.61530410e-04 -1.37283502e-03 -5.76191706e-02
 -5.03697985e-01 -2.85706855e-07 -6.48979923e-07  1.86605607e-02 -6.45655269e-03
  1.46262735e-03  5.21435991e-06  7.20909485e-02 -2.49441409e-02  5.65076295e-03
 -1.01061203e-05  3.22993820e-01 -1.11761357e-01  2.53162463e-02 -1.34874525e-01
  1.90347372e-02 -4.15538102e-02 -3.51478197e-02 -1.75277016e-01 -1.85729865e-02
  1.43791428e-01 -9.72086271e-03 -2.46586446e-01  2.64570052e-01 -3.50002575e-01
 -2.04315561e-02  1.58179243e-01 -1.06940279e-02 -2.23463643e-01  3.65486883e-01
  2.62681396e-01  3.90058871e-02 -3.01965815e-01  2.04179756e-02  5.03216214e-02
 -4.84830891e-01  5.44232972e-02  2.38003404e-12  5.14267251e-12  2.11467503e-08
 -9.19254558e-09 -1.16375830e-08 -4.00690532e-11 -2.13047756e-07  4.85358428e-07
  2.89682303e-06  8.38311596e-11  7.51357130e-07 -1.95407813e-06 -1.19322308e-05
  3.68170437e-07  1.44861986e-06 -1.51593808e-06  1.87429349e-07  1.57528466e-07
 -1.76961790e-06  8.32473934e-06 -4.68499435e-07  5.05630640e-01 -1.33708137e-01
  3.31626288e-01  1.82808460e-06 -8.03528090e-06  6.63210421e-07 -5.05646001e-01
  2.20348601e-01  2.81577664e-01 -5.84546492e-08 -2.89579419e-07 -1.94702185e-07
  1.44668530e-05 -8.66379527e-02 -6.13188435e-01  3.75257755e-02  8.60758869e-02
  2.26936685e-02  6.35523441e-02 -8.97872539e-03 -8.06494005e-01  1.97730002e-02
  5.53733828e-02 -7.82238891e-03  2.26535505e+00  3.72115975e-01  1.04207957e+00
 -1.47227987e-01  1.58921566e-01  2.55371859e-02  7.15149216e-02  2.20817390e-01
 -1.80751381e-01  4.97435395e-02 -9.33114627e-01 -1.49092061e-02 -2.50746526e-01
 -4.47182693e-01  2.02029107e-01  4.97441987e-02 -9.33113383e-01 -1.49077628e-02
 -2.50739273e-01 -4.85652445e-01 -7.02378574e-02  4.97432999e-02 -9.33110697e-01
 -1.49078746e-02 -2.62354678e-02 -5.45014829e-01  7.70051256e-02 -2.05384650e-08
 -5.02990419e-08  1.39733106e-04  1.85132075e-04  1.66308102e-03  5.05327107e-08
 -3.62776427e-03 -4.80326481e-03 -4.31664457e-02  4.47900868e-06  8.90089843e-02
  1.17869642e-01  1.05923368e+00 -5.71470321e-02 -1.65062023e-01  1.61985120e-01
 -1.02512784e-02 -2.19994721e-02  2.50267829e-01 -8.70702418e-01  1.25622972e-01
  1.23819222e-03  3.89123886e-01 -4.67035266e-01 -2.77267856e-01  9.64631320e-01
 -1.39176978e-01 -1.03095712e-01 -5.13243717e-01 -3.21072608e-01  2.69999977e-02
 -9.39341378e-02  1.35533507e-02 -1.30514076e-02 -2.80414367e-02 -5.79309989e-01
  5.22484947e-08  1.16752184e-07  1.57685125e-03 -5.72685112e-04 -6.88241497e-05
 -1.26342485e-06 -4.09298471e-02  1.48685755e-02  1.78452634e-03  2.25361031e-06
  1.00436577e+00 -3.64836530e-01 -4.38038323e-02 -1.78725127e-01  1.25540013e-02
 -3.82868647e-02  1.53276778e-01  1.67387413e-02 -1.75670304e-01  6.11163131e-01
 -8.81798667e-02 -5.79232949e-01 -1.20197831e-01 -5.14971591e-02 -1.28905722e-01
  4.48463430e-01 -6.47068786e-02 -5.69988516e-01 -1.11155300e-02  1.41440560e-01
  3.04576301e-01 -1.05963071e+00  1.52887380e-01 -1.47376757e-01  6.02302653e-01
 -3.33977202e-02 -8.16229818e-08 -2.30648416e-07  1.38982913e-01 -4.57029972e-02
  2.77913778e-02  1.17699924e-06  3.47397689e-01 -1.14236350e-01  6.94665022e-02
  8.16106851e-06  1.07620332e-01 -3.53869395e-02  2.15198653e-02  2.56698487e-01
  4.70913452e-02 -4.67305946e-02 -3.25139128e-01 -1.83351091e-01  2.13381720e-01
 -2.40788334e-01  1.92796596e-01 -2.67222997e-01 -1.25841781e-01 -2.30262467e-01
  3.54240640e-01 -3.99734828e-01  3.20067428e-01 -2.35012614e-01 -1.85746424e-01
  3.08987398e-01 -5.67617313e-01  6.40506027e-01 -5.12862486e-01  4.12365837e-01
  3.41142670e-01 -9.66944969e-02  2.00180298e-08  3.74944012e-08 -1.99162612e-02
  2.75950149e-02  1.44980812e-01  7.27419959e-07 -4.97812398e-02  6.89744017e-02
  3.62384753e-01 -8.00696163e-06 -1.54214098e-02  2.13636467e-02  1.12256576e-01
  6.82433632e-02  1.41326203e-01 -4.13858884e-01  1.07211964e-01  4.72016771e-02
 -5.32239533e-01  6.00598174e-01 -4.80892773e-01 -7.64698757e-02  5.10360830e-01
  8.70451860e-02  4.50913001e-01 -5.08819742e-01  4.07412849e-01  1.48422743e-01
 -4.31469013e-01  1.44078955e-01  8.13256608e-02 -9.17677700e-02  7.34804014e-02
 -5.90732723e-02 -9.67348164e-02 -3.24870437e-01  2.27555637e-02  3.08230815e-02
 -5.87775359e-02 -1.64599308e-01  2.32551730e-02 -9.85750681e-03  3.84962435e-03
  1.07983449e-02 -1.52203659e-03  5.67406592e-01  2.38616437e-02  6.68258745e-02
 -9.43826042e-03  1.87222721e-01  3.00831773e-02  8.42521808e-02  2.60137090e-01
 -2.12936551e-01  7.66417175e-01 -1.10340586e+00  2.96189966e-01  1.28193416e-01
  1.46210369e-01 -1.36513586e-01  7.66414016e-01 -1.10339262e+00  2.96188637e-01
  1.28190333e-01  1.78305570e-01  9.06741546e-02  7.66412573e-01 -1.10338584e+00
  2.96187566e-01 -5.91551608e-02  2.27840676e-01 -3.21935723e-02  1.23907116e-07
  3.69434963e-07 -1.50004506e-03  2.53859331e-03  1.41794496e-02 -4.67999019e-06
  1.29209408e-01 -2.18717521e-01 -1.22149379e+00 -2.23311247e-08  5.86614649e-02
 -9.92985225e-02 -5.54568477e-01  5.54078675e-02  2.40152665e-01 -3.59048653e-01
  8.52771174e-02  4.47653815e-02 -7.82308382e-01  2.21148888e+00 -4.88216785e-01
  3.72498556e-01 -7.84942626e-01 -8.67971766e-01  6.88491129e-01 -1.94626319e+00
  4.29665667e-01 -3.32053253e-01  4.53985801e-01 -9.22994185e-01  9.38269364e-02
 -2.65232125e-01  5.85540930e-02  1.46880694e-01  1.38655807e-02  2.00662217e-02
  1.47101392e-07  3.94778356e-07  1.35719269e-02 -4.52885159e-03  2.24650112e-03
 -3.94325519e-07 -1.16913945e+00  3.90143430e-01 -1.93526884e-01 -1.86634693e-05
 -5.30797477e-01  1.77121162e-01 -8.78623700e-02  3.12122305e-01  4.02531421e-02
 -8.18544910e-03 -3.02176412e-01 -9.22884167e-02  3.43323555e-01 -9.70527703e-01
  2.14261125e-01 -1.43913251e-01  3.39308076e-01  3.93745942e-01  5.05835090e-01
 -1.42991670e+00  3.15678998e-01 -2.21732988e-01  3.23858998e-01 -6.90502968e-01
 -8.49179183e-01  2.40048993e+00 -5.29945722e-01 -1.32935740e+00 -9.75372347e-02
  1.61833526e-02  3.17440806e-02  8.98714181e-02 -2.75245318e-02 -7.70800079e-02
  1.08903617e-02 -5.91492375e-01 -1.45912412e-01 -4.08640670e-01  5.77331882e-02
 -2.54937828e+00 -3.75974098e-01 -1.05286995e+00  1.48754627e-01  2.77316315e-01
  4.45706381e-02  1.24797675e-01  3.85345603e-01 -3.15444309e-01 -4.99089268e-01
  1.75759617e+00 -1.19511241e-01  4.22120305e-01 -2.04749583e-02 -6.51867556e-01
 -4.99091499e-01  1.75759665e+00 -1.19512019e-01  4.22091871e-01  1.60931592e-01
  6.32040340e-01 -4.99084469e-01  1.75757545e+00 -1.19506466e-01 -6.36596310e-01
  4.40891796e-01 -6.23112444e-02 -1.28595224e-06 -3.36653162e-06 -6.27139891e-02
  2.39422676e-02  1.09312556e-02  2.19900863e-05 -5.85886278e-02  2.23790223e-02
  1.02104721e-02  7.69643010e-05 -4.70189603e-01  1.79509069e-01  8.19583453e-02
 -6.22291894e-01  3.26661845e-01 -6.68377911e-02 -2.67845987e-01 -8.54640389e-01
 -8.73816296e-03 -2.04039284e-01 -6.51299274e-02  2.20082683e-01 -2.11243936e-01
  3.87727875e-01 -4.02034922e-03 -9.40530882e-02 -3.00115621e-02  3.91196399e-01
 -2.69305636e-01 -3.06078070e-01  1.27919149e-02  2.97943991e-01  9.51479588e-02
 -1.34035337e-01  2.98380217e-01 -1.64842486e-01  1.53998877e-08  5.15805517e-08
  1.33634932e-02  4.62722891e-03  6.65254059e-02 -4.34397262e-07  1.24850583e-02
  4.32213427e-03  6.21489484e-02 -6.56131702e-07  1.00188881e-01  3.46918103e-02
  4.98772525e-01 -1.11997812e-02  9.20650099e-01  5.90319198e-01 -2.59971637e-02
  3.22027707e-01 -9.70910829e-03 -2.26308757e-01 -7.22614504e-02 -4.66582031e-01
 -4.64282199e-02 -3.60156305e-02  1.24313513e-02  2.89814390e-01  9.25369202e-02
  3.36310719e-01  1.58170577e-01  8.46882627e-02 -2.72459874e-03 -6.35020721e-02
 -2.02762726e-02  2.85815269e-02 -1.46956447e-01 -5.54926419e-01  7.29442524e-02
  1.69224981e-01 -8.10334884e-02 -2.26916578e-01  3.20607065e-02 -9.63259472e-01
 -1.65662372e-01 -4.63925471e-01  6.55432995e-02 -3.17262872e+00 -2.70616779e-01
 -7.57800650e-01  1.07067542e-01 -4.28496319e-01 -6.88522821e-02 -1.92821014e-01
 -5.95387053e-01  4.87340239e-01  6.05199944e-02  1.54581617e+00  7.28093894e-02
  2.75185332e-01 -6.70009629e-01 -6.89716957e-01  6.05197207e-02  1.54581680e+00
  7.28104480e-02  2.75150907e-01 -4.52691693e-01  8.48359667e-01  6.05237580e-02
  1.54581934e+00  7.28152965e-02 -9.93136007e-01 -1.17316769e-01  1.65520307e-02
  3.88528238e-08  7.09764345e-08  2.94224369e-01 -3.14093780e-02  5.21331158e-01
 -2.27668622e-07  1.61837324e-02 -1.72740885e-03  2.86772511e-02 -5.08125847e-07
  3.99492213e-01 -4.26464560e-02  7.07853806e-01 -6.11709762e-01 -5.60517460e-01
  7.52705640e-01  3.05345918e-01  5.38216871e-02 -3.05085168e-01 -1.76591455e-01
 -2.10874674e-01 -6.11497753e-02  2.03503178e-01  2.95723991e-01  6.36617815e-01
  3.68493073e-01  4.40029979e-01  2.38888986e-01 -2.85573243e-01  6.48598080e-01
 -3.31531654e-01 -1.91901937e-01 -2.29154906e-01  3.89251002e-01  2.15401939e-02
  6.03167861e-02 -5.20322634e-07 -1.16199962e-06 -4.82534771e-01  2.12596579e-01
  2.85139027e-01  8.15019214e-06 -2.65413443e-02  1.16958195e-02  1.56848814e-02
  1.20650761e-05 -6.55175916e-01  2.88657697e-01  3.87156315e-01  5.56329674e-01
 -3.00390483e-01  5.54823610e-01 -7.58665748e-01 -2.60630294e-01 -5.58966485e-01
 -3.23547788e-01 -3.86356020e-01 -2.37251845e-01  4.05967828e-01  4.59693267e-01
  1.52681757e-02  8.83456414e-03  1.05544652e-02 -5.42781058e-02  1.93035463e-02
  4.89688514e-02  5.43687488e-01  3.14701874e-01  3.75798133e-01 -6.38343917e-01
 -1.55802779e-02  4.08168449e-02  3.46603244e-02  7.05240821e-02  4.29377775e-01
  1.20243547e+00 -1.69884711e-01 -3.90585298e-01 -5.94788694e-01 -1.66565918e+00
  2.35329601e-01 -1.52481585e+00  6.95113255e-03  1.94692837e-02 -2.75104229e-03
 -6.89339225e-02 -1.10763703e-02 -3.10204552e-02 -9.57779429e-02  7.83999586e-02
  1.21313394e-01  7.14827599e-01  9.96515399e-03  2.21682558e-01 -1.49064603e-01
 -3.98108910e-01  1.21311916e-01  7.14826250e-01  9.96466363e-03  2.21662679e-01
 -3.29310124e-02  4.23833068e-01  1.21310954e-01  7.14823644e-01  9.96510250e-03
 -4.56095300e-01  1.46287955e-01 -2.06798544e-02 -6.37566868e-08 -1.71419184e-07
  1.17364604e+00 -3.79958554e-01  2.77017853e-01  3.07349305e-06 -2.33051028e+00
  7.54485498e-01 -5.50074224e-01 -2.64352068e-06  7.84354989e-02 -2.53937298e-02
  1.85132959e-02  6.42194815e-01  1.19541145e-01 -9.73143286e-02 -6.77142800e-01
 -2.84222482e-01 -2.05655576e-01 -3.09778327e-01  7.80242092e-02  6.93070035e-03
  2.08575997e-01  3.32439354e-01 -3.88417155e-01 -5.85073347e-01  1.47362586e-01
 -1.08538968e-01  2.57574668e-01 -6.44687893e-01  5.94071057e-01  8.94853435e-01
 -2.25386382e-01 -1.05643128e+00 -9.12434221e-02  3.89143230e-02  1.45922042e-07
  3.16835678e-07 -2.08490623e-01  2.47140099e-01  1.22229565e+00 -3.95326987e-06
  4.14001854e-01 -4.90749610e-01 -2.42712269e+00 -3.51906704e-07 -1.39333303e-02
  1.65165325e-02  8.16851388e-02  1.00240173e-01  4.31007200e-01 -8.40863912e-01
  2.43982199e-01  1.14402399e-01  5.67247613e-01  8.54438950e-01 -2.15206150e-01
  3.34156604e-01 -6.68715051e-01 -6.85249989e-01 -4.61725127e-01 -6.95495111e-01
  1.75173371e-01 -3.16075195e-01  3.87696863e-01 -6.62200771e-01 -1.05518173e-01
 -1.58942853e-01  4.00329120e-02  1.87638596e-01  3.71614415e-02  1.41397993e-01
  2.14960930e+00 -2.28331478e+00 -9.81075389e-03 -2.74743652e-02  3.88155041e-03
  4.31266808e-01  4.43113124e-02  1.24092014e-01 -1.75313101e-02  9.33424021e-02
  1.89407677e-02  5.30418089e-02 -7.49377025e-03  2.08691671e-02  3.35318973e-03
  9.39138033e-03  2.89962303e-02 -2.37353251e-02 -3.37620506e-03 -1.78189854e-01
  3.32790711e-02 -4.48018038e-02  7.06582306e-02  9.67995131e-02 -3.37578017e-03
 -1.78188558e-01  3.32788496e-02 -4.47965285e-02  4.10730195e-02 -1.12587541e-01
 -3.37565183e-03 -1.78187753e-01  3.32785634e-02  1.27859665e-01 -4.58236417e-03
  6.50380214e-04
Total SCF Density                          R   N=         666
  6.47376069e-01  5.64430437e-01  5.08483970e-01  4.08484049e-03  6.40967192e-03
  8.95513622e-02  1.14391552e-02  1.79495927e-02  1.36263029e-02  1.22845039e-01
 -1.61617572e-03 -2.53599965e-03 -1.92518775e-03 -5.39124735e-03  8.54472843e-02
 -1.08472428e-01 -1.84395312e-01 -1.88737865e-02 -5.28540384e-02  7.46745085e-03
  5.11443652e-01  4.46074860e-03  7.98007068e-03  1.38962206e-01  1.87895752e-02
 -2.65467781e-03 -2.70421907e-02  2.15688912e-01  1.24918483e-02  2.23473366e-02
  1.87895715e-02  1.84871523e-01 -7.43410434e-03 -7.57288444e-02  2.56271158e-02
  2.78304704e-01 -1.76490162e-03 -3.15732568e-03 -2.65467593e-03 -7.43410053e-03
  1.33302995e-01  1.06992808e-02 -3.62071262e-03 -1.01393913e-02  2.07970277e-01
 -8.69612388e-02 -1.43801005e-01 -3.14929932e-02 -8.81930860e-02  1.24601238e-02
  3.91105790e-01 -4.63087174e-02 -1.29683128e-01  1.83219055e-02  3.20538495e-01
  9.34419025e-03  1.59051894e-02  1.01994440e-01  4.54513606e-02 -6.42149855e-03
 -4.86677639e-02  1.57643807e-01  6.63883720e-02 -9.37953193e-03 -6.73156669e-02
  1.24128745e-01  2.61675201e-02  4.45409775e-02  4.54512856e-02  2.13046939e-01
 -1.79829636e-02 -1.36289492e-01  6.63882621e-02  3.19852257e-01 -2.62667707e-02
 -1.88511348e-01  1.04377292e-01  3.79156385e-01 -3.69703163e-03 -6.29289231e-03
 -6.42148224e-03 -1.79829476e-02  8.83046416e-02  1.92554204e-02 -9.37950832e-03
 -2.62667481e-02  1.37647798e-01  2.66333760e-02 -1.47467054e-02 -4.12971987e-02
  9.26906464e-02 -1.00162146e-03 -1.62756665e-03 -7.40130345e-03 -1.71237294e-03
 -2.97767042e-03  4.50860095e-03 -1.14747184e-02 -2.43944047e-03 -4.68336725e-03
  4.77721281e-03 -8.55166633e-03 -4.69166019e-03 -2.59774809e-03  7.49050368e-04
 -1.60947325e-04 -2.61527548e-04 -1.05185527e-03 -7.16067214e-04 -3.25167405e-03
  7.24469085e-04 -1.62920215e-03 -1.08055146e-03 -5.08343818e-03  7.67646721e-04
 -1.23496008e-03 -1.20042920e-03 -3.22593616e-03  2.14775750e-04  1.43015334e-04
 -4.50732697e-04 -7.32410369e-04 -7.16070102e-04  3.00572916e-04  1.28497252e-02
  2.02888674e-03 -1.08055606e-03  5.75040558e-04  2.00523682e-02  2.14973932e-03
 -1.20042773e-03 -1.02648708e-03  1.32013807e-02 -4.12018615e-04 -4.89723516e-04
  1.94934946e-03 -1.39171288e-03 -2.26143497e-03  7.85357833e-03 -8.36708938e-03
 -6.76212082e-04  6.26450658e-03  1.23813404e-02 -1.27406150e-02 -1.10211805e-03
  6.63777337e-03  6.48618956e-03 -1.25830506e-02 -1.04224272e-04 -5.45012459e-04
 -9.12472303e-06 -2.21924354e-04  1.48872104e-03  1.13920079e-03  1.85112238e-03
  7.44858706e-03  1.71416870e-03 -7.16068090e-04 -5.12788585e-03  1.15370443e-02
  2.40999510e-03 -1.08055257e-03 -5.43342642e-03  8.74463469e-03  5.09977813e-03
 -1.20042845e-03 -6.18240232e-04 -7.27298724e-05 -1.46546656e-04  5.85802927e-04
  6.47865682e-04 -1.58698732e-02 -2.63564397e-02 -2.29046353e-02  4.63758782e-02
  5.36214625e-02  6.91477900e-02 -3.61494627e-02  7.13619674e-02  8.38902717e-02
  3.77091961e-02 -1.81052321e-02  6.12237516e-02  5.22898959e-02  8.69005872e-05
 -2.02060396e-03  8.90320621e-03 -5.87234067e-03 -2.56227290e-03  7.59932291e-02
 -1.76404000e-02 -2.92945145e-02 -4.00121198e-02  5.48300020e-02  8.31144059e-02
  7.71529818e-02 -6.28118398e-02  8.47165319e-02  1.29927665e-01  4.41723025e-02