Generated by Psi4
        SP                        DF-MP2                      6-311G**
Number of atoms                            I               15
Charge                                     I                0
Multiplicity                               I                1
Number of electrons                        I               42
Number of alpha electrons                  I               21
Number of beta electrons                   I               21
Number of basis functions                  I              150
Number of independent functions            I              150
Atomic numbers                             I   N=          15
           8           6           6           6           6           1
           1           1           1           1           1           1
           1           1           1
Nuclear charges                            R   N=          15
  8.00000000e+00  6.00000000e+00  6.00000000e+00  6.00000000e+00  6.00000000e+00
  1.00000000e+00  1.00000000e+00  1.00000000e+00  1.00000000e+00  1.00000000e+00
  1.00000000e+00  1.00000000e+00  1.00000000e+00  1.00000000e+00  1.00000000e+00
Current cartesian coordinates              R   N=          45
 -4.31259208e+00  6.75890069e-01 -1.04011834e+00  1.20877831e-01  4.04698280e-01
 -4.32362260e-01  2.31859343e+00 -7.80473009e-01  1.00638078e+00 -2.42727865e+00
 -5.49996147e-01  4.51863876e-01  4.87580497e+00  1.98481470e-01  1.08894639e-01
  1.56666329e-01  2.46386088e+00 -2.18811738e-01  2.97942634e-01  8.21919186e-03
 -2.45685266e+00  2.25180386e+00 -2.84097314e+00  7.90959329e-01  2.10348480e+00
 -3.97778186e-01  3.03207359e+00 -2.52553974e+00 -2.61469615e+00  2.28722019e-01
 -2.68106768e+00 -1.25403854e-01  2.47114413e+00  5.15692385e+00 -2.14558011e-01
 -1.89652762e+00  6.42851160e+00 -6.68591341e-01  1.16086674e+00  5.00600939e+00
  2.24644581e+00  3.55010858e-01 -5.95131911e+00  7.63192883e-02 -4.70747546e-01
Integer atomic weights                     I   N=          15
          15          12          12          12          12           1
           1           1           1           1           1           1
           1           1           1
Real atomic weights                        R   N=          15
  1.59949146e+01  1.20000000e+01  1.20000000e+01  1.20000000e+01  1.20000000e+01
  1.00782503e+00  1.00782503e+00  1.00782503e+00  1.00782503e+00  1.00782503e+00
  1.00782503e+00  1.00782503e+00  1.00782503e+00  1.00782503e+00  1.00782503e+00
Number of primitive shells                 I              145
Number of contracted shells                I               80
Pure/Cartesian d shells                    I                0
Pure/Cartesian f shells                    I                0
Highest angular momentum                   I                2
Largest degree of contraction              I                6
Shell types                                I   N=          80
           0           0           1           0           1           0
           1          -2           0           0           1           0
           1           0           1          -2           0           0
           1           0           1           0           1          -2
           0           0           1           0           1           0
           1          -2           0           0           1           0
           1           0           1          -2           0           0
           0           1           0           0           0           1
           0           0           0           1           0           0
           0           1           0           0           0           1
           0           0           0           1           0           0
           0           1           0           0           0           1
           0           0           0           1           0           0
           0           1
Number of primitives per shell             I   N=          80
           6           3           3           1           1           1
           1           1           6           3           3           1
           1           1           1           1           6           3
           3           1           1           1           1           1
           6           3           3           1           1           1
           1           1           6           3           3           1
           1           1           1           1           3           1
           1           1           3           1           1           1
           3           1           1           1           3           1
           1           1           3           1           1           1
           3           1           1           1           3           1
           1           1           3           1           1           1
           3           1           1           1           3           1
           1           1
Shell to atom map                          I   N=          80
           1           1           1           1           1           1
           1           1           2           2           2           2
           2           2           2           2           3           3
           3           3           3           3           3           3
           4           4           4           4           4           4
           4           4           5           5           5           5
           5           5           5           5           6           6
           6           6           7           7           7           7
           8           8           8           8           9           9
           9           9          10          10          10          10
          11          11          11          11          12          12
          12          12          13          13          13          13
          14          14          14          14          15          15
          15          15
Primitive exponents                        R   N=         145
  8.58850000e+03  1.29723000e+03  2.99296000e+02  8.73771000e+01  2.56789000e+01
  3.74004000e+00  4.21175000e+01  9.62837000e+00  2.85332000e+00  4.21175000e+01
  9.62837000e+00  2.85332000e+00  9.05661000e-01  9.05661000e-01  2.55611000e-01
  2.55611000e-01  1.29200000e+00  4.56324000e+03  6.82024000e+02  1.54973000e+02
  4.44553000e+01  1.30290000e+01  1.82773000e+00  2.09642000e+01  4.80331000e+00
  1.45933000e+00  2.09642000e+01  4.80331000e+00  1.45933000e+00  4.83456000e-01
  4.83456000e-01  1.45585000e-01  1.45585000e-01  6.26000000e-01  4.56324000e+03
  6.82024000e+02  1.54973000e+02  4.44553000e+01  1.30290000e+01  1.82773000e+00
  2.09642000e+01  4.80331000e+00  1.45933000e+00  2.09642000e+01  4.80331000e+00
  1.45933000e+00  4.83456000e-01  4.83456000e-01  1.45585000e-01  1.45585000e-01
  6.26000000e-01  4.56324000e+03  6.82024000e+02  1.54973000e+02  4.44553000e+01
  1.30290000e+01  1.82773000e+00  2.09642000e+01  4.80331000e+00  1.45933000e+00
  2.09642000e+01  4.80331000e+00  1.45933000e+00  4.83456000e-01  4.83456000e-01
  1.45585000e-01  1.45585000e-01  6.26000000e-01  4.56324000e+03  6.82024000e+02
  1.54973000e+02  4.44553000e+01  1.30290000e+01  1.82773000e+00  2.09642000e+01
  4.80331000e+00  1.45933000e+00  2.09642000e+01  4.80331000e+00  1.45933000e+00
  4.83456000e-01  4.83456000e-01  1.45585000e-01  1.45585000e-01  6.26000000e-01
  3.38650000e+01  5.09479000e+00  1.15879000e+00  3.25840000e-01  1.02741000e-01
  7.50000000e-01  3.38650000e+01  5.09479000e+00  1.15879000e+00  3.25840000e-01
  1.02741000e-01  7.50000000e-01  3.38650000e+01  5.09479000e+00  1.15879000e+00
  3.25840000e-01  1.02741000e-01  7.50000000e-01  3.38650000e+01  5.09479000e+00
  1.15879000e+00  3.25840000e-01  1.02741000e-01  7.50000000e-01  3.38650000e+01
  5.09479000e+00  1.15879000e+00  3.25840000e-01  1.02741000e-01  7.50000000e-01
  3.38650000e+01  5.09479000e+00  1.15879000e+00  3.25840000e-01  1.02741000e-01
  7.50000000e-01  3.38650000e+01  5.09479000e+00  1.15879000e+00  3.25840000e-01
  1.02741000e-01  7.50000000e-01  3.38650000e+01  5.09479000e+00  1.15879000e+00
  3.25840000e-01  1.02741000e-01  7.50000000e-01  3.38650000e+01  5.09479000e+00
  1.15879000e+00  3.25840000e-01  1.02741000e-01  7.50000000e-01  3.38650000e+01
  5.09479000e+00  1.15879000e+00  3.25840000e-01  1.02741000e-01  7.50000000e-01
Contraction coefficients                   R   N=         145
  1.89515008e-03  1.43859006e-02  7.07320031e-02  2.40001011e-01  5.94797026e-01
  2.80802012e-01  1.13889012e-01  9.20811101e-01 -3.27447036e-03  3.65113974e-02
  2.37152983e-01  8.19701941e-01  1.00000000e+00  1.00000000e+00  1.00000000e+00
  1.00000000e+00  1.00000000e+00  1.96665025e-03  1.52306019e-02  7.61269097e-02
  2.60801033e-01  6.16462078e-01  2.21006028e-01  1.14660081e-01  9.19999648e-01
 -3.03068213e-03  4.02486927e-02  2.37593957e-01  8.15853851e-01  1.00000000e+00
  1.00000000e+00  1.00000000e+00  1.00000000e+00  1.00000000e+00  1.96665025e-03
  1.52306019e-02  7.61269097e-02  2.60801033e-01  6.16462078e-01  2.21006028e-01
  1.14660081e-01  9.19999648e-01 -3.03068213e-03  4.02486927e-02  2.37593957e-01
  8.15853851e-01  1.00000000e+00  1.00000000e+00  1.00000000e+00  1.00000000e+00
  1.00000000e+00  1.96665025e-03  1.52306019e-02  7.61269097e-02  2.60801033e-01
  6.16462078e-01  2.21006028e-01  1.14660081e-01  9.19999648e-01 -3.03068213e-03
  4.02486927e-02  2.37593957e-01  8.15853851e-01  1.00000000e+00  1.00000000e+00
  1.00000000e+00  1.00000000e+00  1.00000000e+00  1.96665025e-03  1.52306019e-02
  7.61269097e-02  2.60801033e-01  6.16462078e-01  2.21006028e-01  1.14660081e-01
  9.19999648e-01 -3.03068213e-03  4.02486927e-02  2.37593957e-01  8.15853851e-01
  1.00000000e+00  1.00000000e+00  1.00000000e+00  1.00000000e+00  1.00000000e+00
  2.54938145e-02  1.90373109e-01  8.52161486e-01  1.00000000e+00  1.00000000e+00
  1.00000000e+00  2.54938145e-02  1.90373109e-01  8.52161486e-01  1.00000000e+00
  1.00000000e+00  1.00000000e+00  2.54938145e-02  1.90373109e-01  8.52161486e-01
  1.00000000e+00  1.00000000e+00  1.00000000e+00  2.54938145e-02  1.90373109e-01
  8.52161486e-01  1.00000000e+00  1.00000000e+00  1.00000000e+00  2.54938145e-02
  1.90373109e-01  8.52161486e-01  1.00000000e+00  1.00000000e+00  1.00000000e+00
  2.54938145e-02  1.90373109e-01  8.52161486e-01  1.00000000e+00  1.00000000e+00
  1.00000000e+00  2.54938145e-02  1.90373109e-01  8.52161486e-01  1.00000000e+00
  1.00000000e+00  1.00000000e+00  2.54938145e-02  1.90373109e-01  8.52161486e-01
  1.00000000e+00  1.00000000e+00  1.00000000e+00  2.54938145e-02  1.90373109e-01
  8.52161486e-01  1.00000000e+00  1.00000000e+00  1.00000000e+00  2.54938145e-02
  1.90373109e-01  8.52161486e-01  1.00000000e+00  1.00000000e+00  1.00000000e+00
Coordinates of each shell                  R   N=         240
 -4.31259208e+00  6.75890069e-01 -1.04011834e+00 -4.31259208e+00  6.75890069e-01
 -1.04011834e+00 -4.31259208e+00  6.75890069e-01 -1.04011834e+00 -4.31259208e+00
  6.75890069e-01 -1.04011834e+00 -4.31259208e+00  6.75890069e-01 -1.04011834e+00
 -4.31259208e+00  6.75890069e-01 -1.04011834e+00 -4.31259208e+00  6.75890069e-01
 -1.04011834e+00 -4.31259208e+00  6.75890069e-01 -1.04011834e+00  1.20877831e-01
  4.04698280e-01 -4.32362260e-01  1.20877831e-01  4.04698280e-01 -4.32362260e-01
  1.20877831e-01  4.04698280e-01 -4.32362260e-01  1.20877831e-01  4.04698280e-01
 -4.32362260e-01  1.20877831e-01  4.04698280e-01 -4.32362260e-01  1.20877831e-01
  4.04698280e-01 -4.32362260e-01  1.20877831e-01  4.04698280e-01 -4.32362260e-01
  1.20877831e-01  4.04698280e-01 -4.32362260e-01  2.31859343e+00 -7.80473009e-01
  1.00638078e+00  2.31859343e+00 -7.80473009e-01  1.00638078e+00  2.31859343e+00
 -7.80473009e-01  1.00638078e+00  2.31859343e+00 -7.80473009e-01  1.00638078e+00
  2.31859343e+00 -7.80473009e-01  1.00638078e+00  2.31859343e+00 -7.80473009e-01
  1.00638078e+00  2.31859343e+00 -7.80473009e-01  1.00638078e+00  2.31859343e+00
 -7.80473009e-01  1.00638078e+00 -2.42727865e+00 -5.49996147e-01  4.51863876e-01
 -2.42727865e+00 -5.49996147e-01  4.51863876e-01 -2.42727865e+00 -5.49996147e-01
  4.51863876e-01 -2.42727865e+00 -5.49996147e-01  4.51863876e-01 -2.42727865e+00
 -5.49996147e-01  4.51863876e-01 -2.42727865e+00 -5.49996147e-01  4.51863876e-01
 -2.42727865e+00 -5.49996147e-01  4.51863876e-01 -2.42727865e+00 -5.49996147e-01
  4.51863876e-01  4.87580497e+00  1.98481470e-01  1.08894639e-01  4.87580497e+00
  1.98481470e-01  1.08894639e-01  4.87580497e+00  1.98481470e-01  1.08894639e-01
  4.87580497e+00  1.98481470e-01  1.08894639e-01  4.87580497e+00  1.98481470e-01
  1.08894639e-01  4.87580497e+00  1.98481470e-01  1.08894639e-01  4.87580497e+00
  1.98481470e-01  1.08894639e-01  4.87580497e+00  1.98481470e-01  1.08894639e-01
  1.56666329e-01  2.46386088e+00 -2.18811738e-01  1.56666329e-01  2.46386088e+00
 -2.18811738e-01  1.56666329e-01  2.46386088e+00 -2.18811738e-01  1.56666329e-01
  2.46386088e+00 -2.18811738e-01  2.97942634e-01  8.21919186e-03 -2.45685266e+00
  2.97942634e-01  8.21919186e-03 -2.45685266e+00  2.97942634e-01  8.21919186e-03
 -2.45685266e+00  2.97942634e-01  8.21919186e-03 -2.45685266e+00  2.25180386e+00
 -2.84097314e+00  7.90959329e-01  2.25180386e+00 -2.84097314e+00  7.90959329e-01
  2.25180386e+00 -2.84097314e+00  7.90959329e-01  2.25180386e+00 -2.84097314e+00
  7.90959329e-01  2.10348480e+00 -3.97778186e-01  3.03207359e+00  2.10348480e+00
 -3.97778186e-01  3.03207359e+00  2.10348480e+00 -3.97778186e-01  3.03207359e+00
  2.10348480e+00 -3.97778186e-01  3.03207359e+00 -2.52553974e+00 -2.61469615e+00
  2.28722019e-01 -2.52553974e+00 -2.61469615e+00  2.28722019e-01 -2.52553974e+00
 -2.61469615e+00  2.28722019e-01 -2.52553974e+00 -2.61469615e+00  2.28722019e-01
 -2.68106768e+00 -1.25403854e-01  2.47114413e+00 -2.68106768e+00 -1.25403854e-01
  2.47114413e+00 -2.68106768e+00 -1.25403854e-01  2.47114413e+00 -2.68106768e+00
 -1.25403854e-01  2.47114413e+00  5.15692385e+00 -2.14558011e-01 -1.89652762e+00
  5.15692385e+00 -2.14558011e-01 -1.89652762e+00  5.15692385e+00 -2.14558011e-01
 -1.89652762e+00  5.15692385e+00 -2.14558011e-01 -1.89652762e+00  6.42851160e+00
 -6.68591341e-01  1.16086674e+00  6.42851160e+00 -6.68591341e-01  1.16086674e+00
  6.42851160e+00 -6.68591341e-01  1.16086674e+00  6.42851160e+00 -6.68591341e-01
  1.16086674e+00  5.00600939e+00  2.24644581e+00  3.55010858e-01  5.00600939e+00
  2.24644581e+00  3.55010858e-01  5.00600939e+00  2.24644581e+00  3.55010858e-01
  5.00600939e+00  2.24644581e+00  3.55010858e-01 -5.95131911e+00  7.63192883e-02
 -4.70747546e-01 -5.95131911e+00  7.63192883e-02 -4.70747546e-01 -5.95131911e+00
  7.63192883e-02 -4.70747546e-01 -5.95131911e+00  7.63192883e-02 -4.70747546e-01
Total Energy                               R     -2.330262477246561e+02
Alpha Orbital Energies                     R   N=         150
 -2.05445453e+01 -1.12710916e+01 -1.12202635e+01 -1.12131587e+01 -1.12122951e+01
 -1.34796683e+00 -1.07148626e+00 -9.73575514e-01 -8.51501171e-01 -7.93133933e-01
 -6.81612986e-01 -6.58369808e-01 -6.00695584e-01 -5.90477925e-01 -5.59792076e-01
 -5.19635958e-01 -5.11120774e-01 -4.74495578e-01 -4.68542839e-01 -4.64060892e-01
 -4.38481035e-01  1.55575702e-01  1.62127503e-01  1.84049232e-01  1.86049857e-01
  2.02998128e-01  2.42206399e-01  2.46959042e-01  2.57280007e-01  2.59746624e-01
  2.85813876e-01  3.29966351e-01  3.85325594e-01  3.97516611e-01  4.38428958e-01
  4.50868729e-01  4.54028422e-01  4.92553121e-01  5.28285953e-01  5.32507827e-01
  5.49523539e-01  6.05553676e-01  6.61971435e-01  7.19874488e-01  7.41052806e-01
  7.47187226e-01  7.90126175e-01  7.92742801e-01  8.07669955e-01  8.08356570e-01
  8.16107055e-01  8.22120858e-01  8.26586926e-01  8.31699455e-01  8.38155158e-01
  8.69792029e-01  8.88366994e-01  9.38422405e-01  1.06825960e+00  1.11192092e+00
  1.12863932e+00  1.13419183e+00  1.16663642e+00  1.21464156e+00  1.24221260e+00
  1.33557345e+00  1.43077114e+00  1.45132596e+00  1.51125859e+00  1.52294198e+00
  1.57605743e+00  1.62051434e+00  1.65388774e+00  1.68392994e+00  1.72217855e+00
  1.73084046e+00  1.73905089e+00  1.77238914e+00  1.78716766e+00  1.80085610e+00
  1.82330628e+00  1.83202921e+00  1.90137029e+00  1.90345210e+00  1.93911784e+00
  1.95961843e+00  1.96711328e+00  1.98818237e+00  2.01493519e+00  2.03069387e+00
  2.07744119e+00  2.13960514e+00  2.14044074e+00  2.21477781e+00  2.27388483e+00
  2.29887730e+00  2.31812846e+00  2.33872084e+00  2.38600099e+00  2.43172387e+00
  2.47184166e+00  2.51063165e+00  2.57985081e+00  2.60175673e+00  2.65260678e+00
  2.67758060e+00  2.73523165e+00  2.75112715e+00  2.76854673e+00  2.79365301e+00
  2.81423239e+00  2.83409692e+00  2.84568146e+00  2.86009087e+00  2.86390579e+00
  2.88569170e+00  2.94215352e+00  2.96454454e+00  2.99903843e+00  3.01376123e+00
  3.07564936e+00  3.08331550e+00  3.11989963e+00  3.18586570e+00  3.21318943e+00
  3.32798731e+00  3.39909082e+00  3.50785283e+00  3.57982539e+00  3.60165881e+00
  3.68120888e+00  3.79187031e+00  4.16569618e+00  4.19623741e+00  4.20530696e+00
  4.21929372e+00  4.23143037e+00  4.25728503e+00  4.36555189e+00  4.51058744e+00
  4.63550398e+00  4.78849963e+00  5.43876829e+00  5.82060298e+00  6.20079390e+00
  2.49478370e+01  2.50336412e+01  2.50543015e+01  2.51051294e+01  5.16050604e+01
Alpha MO coefficients                      R   N=       22500
  5.51469578e-01  4.71673352e-01 -3.50317239e-04 -1.13677969e-03  1.25190803e-03
  5.56865613e-03  1.83079224e-04  4.29778037e-04 -4.70073365e-04 -9.30296923e-04
 -2.87874586e-04  1.72173465e-05 -3.71851368e-05  5.12905997e-05 -5.15635789e-05
  1.17539910e-04 -1.20263325e-04  2.67611201e-05  2.02562758e-06 -5.96508152e-06
  7.73492235e-06  1.54357063e-06 -1.17120017e-06  6.01217964e-05 -5.89305981e-06
 -7.11428523e-06  7.88153234e-06 -6.97294738e-04  1.15723449e-06  2.11050767e-04
 -2.26281220e-04 -1.98041344e-06 -1.24878555e-05  3.93344202e-06  8.30614672e-07
  1.13739301e-05 -4.40653254e-07  1.29388610e-06  3.50265366e-06 -1.99213951e-07
  4.93916592e-07 -4.91377848e-05 -1.68608491e-05 -2.96719762e-06  2.04206084e-06
  5.27652565e-04 -2.04401422e-04  6.20680951e-05 -8.19410206e-05 -1.95118382e-06
  1.04725822e-05  9.75039211e-07  4.73194943e-06 -8.99120470e-06 -3.09252812e-06
 -2.68846501e-05 -5.20587179e-06  2.04941763e-05 -2.31264787e-05  4.15421000e-05
 -2.21775388e-04  8.01498318e-05 -1.04618130e-04  8.55474997e-04  2.53986492e-05
  2.49807961e-04 -2.80094422e-04 -2.20227822e-05  1.00795781e-04 -3.18748813e-05
  5.62068455e-05 -8.24873677e-05  7.41165123e-08 -5.37522400e-08 -1.58416996e-06
 -3.27396549e-07  2.12108723e-07  6.96618100e-06  5.41815904e-06  1.39801352e-06
 -1.03775268e-06 -7.29104843e-05  4.08521434e-05 -1.93364619e-05  2.32340274e-05
  5.40092019e-07 -1.08198778e-07 -2.68509151e-06 -4.03066831e-07  1.93760507e-07
  1.23208589e-05 -3.98871099e-05 -1.75089916e-05  2.07516122e-05  4.85354072e-06
  1.15447337e-05  1.19179963e-05 -3.74742841e-05 -1.48141541e-05  2.14462754e-05
 -1.05732476e-05 -1.87180576e-06  7.42179488e-06 -7.34476631e-05  1.26944764e-05
  4.80848834e-06 -9.15177242e-06 -2.34760122e-06  7.48599268e-06 -7.38127100e-05
  1.38611694e-05  4.03021211e-06  3.37883391e-06  9.21752271e-06  7.99611131e-06
 -6.04485754e-05  3.79877525e-06  1.37828432e-05 -6.10426873e-06  3.65618989e-05
  7.88523681e-06 -5.81832788e-05  4.98486816e-06  1.57370442e-05 -3.47196763e-05
  1.04227575e-05 -5.40975148e-07  1.57335028e-05  4.39338657e-06  1.92264146e-07
  4.17666588e-06  4.78996221e-07 -9.65554124e-07  1.70006010e-06 -2.70138700e-06
 -4.35195356e-06 -1.51550695e-06  1.40055414e-06 -5.41721204e-07  1.58646733e-05
  5.06368723e-06  4.81277318e-07 -8.62633003e-07 -4.07326329e-06  2.00284638e-04
  1.21058091e-04  4.09249462e-05  1.23532223e-04  2.05314683e-06  5.42260563e-06
 -6.55168535e-05 -1.15327917e-04  6.09193640e-05 -4.53413422e-05  5.46144743e-05
  2.29468421e-04  3.68049823e-04 -2.39650187e-04  2.91644945e-04  5.40686698e-04
  1.46035897e-04 -1.13123119e-04  1.35960538e-04  8.93627116e-07  1.51201380e-04
 -1.05949292e-04  3.91563267e-05 -1.25670300e-04  3.14342694e-03  2.55346987e-03
 -1.22790129e-04 -5.80661364e-05  5.59603593e-05  2.50025035e-04 -2.23070107e-04
 -5.78363291e-05  4.87628891e-05  5.70467766e-04 -3.51256344e-04 -1.39133968e-04
  1.31018406e-04 -4.84210848e-05 -3.68370111e-05 -2.25412941e-06  7.99591808e-05
  4.33017468e-05 -3.49438167e-05 -2.71387943e-05  4.29726556e-06  4.03964183e-07
 -1.29121463e-07 -3.08809752e-05  1.31127366e-05  1.14756337e-06 -7.67946785e-07
 -2.84209987e-05 -3.11139786e-04 -1.14453040e-04  1.03246362e-04 -7.34755099e-06
  5.11127586e-06  4.88085974e-06  1.20961170e-05 -3.49727644e-06  5.63489631e-01
  4.66562400e-01 -7.91469314e-04  3.70211369e-04 -4.64415780e-04  3.99742539e-03
  6.08454195e-04 -2.79581793e-04  3.51330217e-04 -2.10199132e-03 -4.87370400e-04
 -1.29192459e-05 -1.82193140e-05  1.29204578e-05 -1.75958796e-04  1.02295154e-04
 -6.50732235e-05  1.44899785e-04  1.01099634e-05  9.27248211e-06  2.90222991e-07
 -5.29201280e-07  5.78459058e-07 -3.31364103e-05 -9.34312142e-07  2.31651951e-06
 -2.58830317e-06  4.10688898e-04 -1.62425467e-04 -2.73959051e-05  1.85418348e-05
 -2.51853876e-06  2.00729184e-06  1.32993713e-06  4.52286328e-06 -1.39696523e-06
 -1.01222110e-05  2.99203661e-05  3.00072617e-05 -8.49568476e-06 -1.67468855e-05
  2.16619005e-06 -1.01103522e-05  2.94654250e-05  3.06497916e-05 -9.25871593e-06
 -1.29648092e-06  1.60464401e-05  3.14019081e-06 -6.52290435e-05 -3.92707675e-05
  1.83024516e-05 -5.86566454e-06 -7.83491393e-06  2.96652030e-06 -6.42114699e-05
 -3.79764919e-05  1.71416432e-05  9.44663165e-06  5.79769566e-06  3.13934518e-04
  3.22682014e-04  2.47042598e-04 -3.17428594e-06  5.68049133e-05 -1.89554491e-05
  3.13889957e-04  3.22981537e-04  2.47111387e-04 -2.40035229e-08  1.27308617e-05
 -5.88506092e-05  5.06212369e-06 -5.34884696e-05 -1.55487620e-06  3.20694791e-06
 -2.38949419e-06 -7.33755095e-06  2.67484709e-06 -3.57320072e-05  3.05248144e-05
  4.41256577e-06 -2.59866518e-06  3.19661694e-06  5.01180466e-06 -5.29444635e-05
 -1.76526081e-06  2.60563428e-06  7.62950847e-06  1.94278105e-06 -1.20463333e-05
 -4.70631691e-05 -4.04168426e-05  8.74313281e-06  1.47376051e-05 -1.59058321e-05
 -3.45258325e-07  1.19025440e-06  3.24524923e-06  1.06531775e-06 -9.28206601e-07
 -1.84750848e-05 -7.95589018e-06 -5.64805738e-06  5.65485919e-06  7.42049544e-05
  7.41166432e-05  7.21786450e-06 -2.95743588e-06 -9.18333988e-07  2.40521067e-06
 -1.11781160e-08  1.83089070e-06 -1.91400698e-06  2.45958499e-02  2.03129029e-02
  8.97777263e-05 -5.77934603e-05  6.91034106e-05  3.95586785e-04  2.65668661e-04
 -1.25301359e-04  1.54466906e-04  8.18841474e-04  3.18168247e-04 -2.07249602e-04
  2.48309761e-04 -2.52629559e-05  9.80401882e-05 -4.49563514e-05  6.26831823e-05
 -7.98140676e-05  5.62426882e-01  4.65741763e-01  1.59578537e-05  7.10908748e-06
 -5.83254585e-06  4.43651529e-03 -2.46830662e-05 -1.88977074e-05  1.84784519e-05
 -2.65160575e-03  1.54367236e-05 -2.34085300e-04  2.55908433e-04  2.73055016e-05
 -1.01132005e-05  2.99074522e-05 -5.30942852e-05  1.26645163e-06 -1.04797943e-04
 -8.67776586e-05  1.96735193e-07  2.46859283e-06 -2.78282469e-06 -1.90275184e-05
  1.00835350e-05 -8.51424099e-07  2.44086133e-06 -3.95104851e-06 -2.88534121e-06
 -5.38479964e-05  6.08234902e-05 -4.72997300e-06 -4.28518816e-06  2.51481342e-06
  7.56833177e-06  4.55669782e-06  2.16217184e-02  1.78475872e-02 -1.03129504e-04
 -4.26112916e-05  3.96029080e-05  3.83195348e-04 -3.12968259e-04 -1.16872647e-04
  1.06892903e-04  8.16512733e-04 -3.02446790e-04 -1.27935998e-04  1.20062744e-04
 -5.54772870e-05 -6.02459939e-05 -2.43986349e-05  9.20274215e-05  6.80711610e-05
  8.71713334e-06  1.20092958e-05  3.70676341e-05  3.04835550e-06 -2.31974506e-05
 -1.02787038e-06  8.60874682e-06  1.30254026e-05  3.71937809e-05  1.60933157e-06
  3.24987343e-06  2.34053602e-05  3.24829409e-04  3.53606534e-04  2.18947560e-04
  4.02462835e-06  5.87011824e-05 -1.56769810e-05  3.24931007e-04  3.53763636e-04
  2.18753355e-04  6.90287507e-06  1.09931147e-05 -5.95207308e-05  9.12261711e-07
 -3.51447863e-05 -3.86120155e-05 -9.54723788e-06 -5.89282258e-06 -4.95587194e-06
  1.26335391e-06 -3.69766333e-05 -3.86918792e-05 -1.05497166e-05  4.94178791e-06
  5.29305402e-06  1.13051893e-05 -1.33365693e-05  6.40333713e-06 -1.27119431e-05
  1.06971930e-07  1.82084393e-05  2.06493905e-05 -6.54585077e-05 -2.96839590e-05
  7.06045985e-07  2.49649554e-06 -2.74539185e-06  1.13578773e-05 -1.39267720e-05
  6.24464902e-06 -1.14666555e-05 -1.87855659e-05  7.44483728e-07  5.23993496e-08
  1.74550943e-05  1.98295097e-05  5.63260557e-07  2.67496402e-06 -3.07337608e-06
  2.90003866e-06  3.39074534e-06 -7.82124726e-06 -3.12884788e-07 -1.73916721e-07
  7.28244478e-06 -2.43300210e-06 -9.66147470e-10 -3.65689514e-07 -1.91761917e-04
  2.13734447e-05  3.58410185e-05 -3.84063949e-05  1.83531522e-06  6.16050774e-06
  1.51842887e-06 -2.81219533e-06 -5.84739126e-06  5.62697368e-01  4.65987548e-01
 -1.56339010e-05 -4.51736649e-05  4.96092099e-05  4.52357907e-03 -3.03896370e-05
  5.49488205e-05 -6.33064453e-05 -2.88621738e-03  8.35702099e-05  2.47111832e-04
 -2.62496780e-04  2.99875303e-05 -1.66736070e-05  4.28646331e-05 -6.10558113e-05
  6.07591308e-06 -2.42232346e-02 -2.01148667e-02 -9.03810857e-05  5.51211968e-05
 -6.62038228e-05  6.36900961e-06 -2.89062400e-04  1.29902368e-04 -1.60590644e-04
  1.01500504e-03 -2.91521849e-04  1.96790789e-04 -2.34557508e-04 -2.74643398e-05
  1.03375856e-04 -4.64590922e-05  6.77719448e-05 -8.43198457e-05 -3.24347994e-03
 -2.74688596e-03  1.23603799e-04  4.80982757e-05 -4.48631654e-05  2.11732880e-04
  2.97243424e-04  1.15805817e-04 -1.08196926e-04  9.95250150e-04  3.74505584e-04
  1.55627016e-04 -1.49836692e-04 -6.15249709e-05 -5.88111966e-05 -1.73706070e-05
  1.01702252e-04  6.69135044e-05 -1.24902745e-02 -1.03387966e-02  8.64748502e-06
  1.69486813e-06 -1.27159051e-06 -1.34745219e-04  2.08670043e-05  6.23353712e-06
 -5.42292225e-06 -3.78716481e-05  1.94941569e-05  4.51349162e-05 -4.75475544e-05
 -4.20215916e-07 -8.83975840e-07  1.25096411e-06  3.44984272e-07  7.77697332e-07
  3.24035790e-04  3.55736553e-04  2.32180144e-04 -8.86136548e-07 -4.86232808e-05
  1.68554609e-05  3.23792998e-04  3.56708156e-04  2.32718591e-04 -2.63349033e-06
 -1.24922944e-05  4.97366169e-05 -1.82016181e-05 -2.95418939e-05  4.61280121e-06
 -7.89551306e-06  1.70011200e-05 -1.06804328e-06 -1.82284958e-05 -2.95694748e-05
  4.20972305e-06 -6.64548203e-06 -8.83847815e-07 -1.72484409e-05 -7.16679902e-06
 -2.11512780e-05  1.62265849e-06  1.02749326e-05  1.73912887e-05  1.69077798e-08
 -7.32969908e-06 -1.96997066e-05  2.86612198e-06  1.14991185e-05 -1.10836122e-06
 -1.69101373e-05 -6.32537425e-06 -3.23038138e-05 -4.58129017e-05  1.29247066e-05
 -1.49733517e-06 -6.51675222e-06 -9.80784027e-06  3.51641826e-05  4.65844792e-05
 -1.43659140e-05 -1.78184142e-06  9.36052860e-07 -6.30342449e-06 -3.25668850e-05
 -4.61134699e-05  1.23815264e-05  7.52117841e-06  1.68333858e-06 -4.73614383e-06
  1.21777591e-04 -7.76194149e-06  3.17768439e-05  5.06388304e-06 -3.89268722e-06
  2.01287718e-07  7.71755809e-08 -9.22890319e-08  5.06895126e-07 -5.63293220e-07
  5.74323428e-06 -1.33196591e-06 -1.20069473e-06  1.20952120e-06 -6.86343797e-05
  1.46294171e-05  2.35175561e-05 -2.53444685e-05  8.49912032e-07  1.80141777e-06
  1.31668012e-06 -1.57599281e-06 -1.83894503e-06  1.15462123e-02  9.56563108e-03
 -6.94245360e-06  2.82841211e-06 -3.45737249e-06  5.32389943e-05 -3.27426893e-05
  3.58431091e-06 -6.56033672e-06 -7.83860390e-05  3.44817506e-04  1.10218862e-04
 -9.92594899e-05  2.18671400e-06  6.94467078e-06  3.54186347e-06 -3.45854411e-06
 -6.92975358e-06 -2.22397235e-02 -1.84769347e-02  1.11463246e-04  4.78199575e-05
 -4.48130652e-05  7.95164107e-05  2.75342939e-04  1.09672135e-04 -1.01058589e-04
  5.86030276e-04  3.39701455e-04  9.62003880e-05 -8.16076386e-05 -5.47156033e-05
 -6.97326896e-05 -2.14105391e-05  8.91558536e-05  7.62725492e-05 -7.94814277e-05
 -6.60189407e-05  3.23303825e-06  2.26897135e-06 -2.32533937e-06 -3.20874988e-05
  8.58542407e-06 -2.51352993e-06  3.54106693e-06  4.62999765e-04  1.62688342e-04
  5.08084713e-05 -4.50942565e-05 -4.39412444e-06 -2.50724158e-06  1.65578863e-06
  6.92083567e-06  3.01250200e-06  5.62804882e-01  4.66089193e-01  1.52434232e-05
  1.40507877e-07  9.27466597e-07  4.39803369e-03  5.28005856e-05  2.88502105e-05
 -2.81911199e-05 -1.89014797e-03  3.43085955e-04  1.35378021e-05  8.37629843e-06
  2.27904636e-05  4.27479432e-05  1.17205138e-05 -3.58463073e-05 -4.43175265e-05
  1.33826192e-05 -7.03047662e-05 -3.09570998e-05 -2.21677828e-05  1.07511264e-05
  7.44382749e-06  1.35114836e-05 -7.08805836e-05 -3.12663767e-05 -2.11182835e-05
 -9.81658962e-06 -1.15673860e-05 -1.71735533e-05 -1.58120198e-06 -2.49939109e-06
  1.20605587e-06  1.73942989e-05 -7.49948527e-07 -1.71230121e-05 -1.99300475e-06
 -2.86234421e-06  2.28582318e-06 -6.50765108e-07 -1.71794700e-05  4.70718471e-06
 -5.36664384e-05  1.22061780e-05 -1.25844572e-06 -7.23734617e-06 -5.83261899e-07
  4.76874287e-06 -5.39634171e-05  1.17951680e-05 -1.95444129e-06  1.26617891e-06
  7.13853087e-06  3.37428617e-04  2.78086821e-04  2.28488551e-04 -3.03770792e-05
  6.84024265e-06  3.33691246e-05  3.50601855e-04  1.68713869e-04  1.60344791e-04
 -3.07392023e-05 -1.48413963e-06 -4.81469523e-07  3.37416013e-04  2.78052474e-04
  2.28524187e-04 -2.78373687e-05 -3.58425936e-05 -5.62932837e-06 -1.68980584e-06
  4.60268487e-05 -1.30140293e-07  1.21131860e-05  1.50411198e-06 -9.93852192e-07
  1.09189368e-01  1.82382821e-01  2.48811564e-03  2.17545205e-02 -2.42321845e-02
 -5.17048669e-01  3.33995076e-03  3.88079418e-02 -4.32929232e-02 -4.03869372e-01
 -1.43029815e-02  2.27725712e-02 -2.64246982e-02  2.06705118e-03 -1.33090101e-03
  5.83384124e-03 -5.01590997e-03  3.36184443e-04  8.70212517e-03  1.42992158e-02
  7.85199527e-03  1.04383276e-03 -6.10228195e-04 -3.38218752e-02  2.00540895e-02
  5.11155930e-03 -4.27603015e-03 -5.47836884e-02  8.47761191e-03  1.20481733e-02