
    -----------------------------------------------------------------------
          Psi4: An Open-Source Ab Initio Electronic Structure Package
                               Psi4 1.3.2 release

                         Git: Rev {HEAD} ecbda83 


    R. M. Parrish, L. A. Burns, D. G. A. Smith, A. C. Simmonett,
    A. E. DePrince III, E. G. Hohenstein, U. Bozkaya, A. Yu. Sokolov,
    R. Di Remigio, R. M. Richard, J. F. Gonthier, A. M. James,
    H. R. McAlexander, A. Kumar, M. Saitow, X. Wang, B. P. Pritchard,
    P. Verma, H. F. Schaefer III, K. Patkowski, R. A. King, E. F. Valeev,
    F. A. Evangelista, J. M. Turney, T. D. Crawford, and C. D. Sherrill,
    J. Chem. Theory Comput. 13(7) pp 3185--3197 (2017).
    (doi: 10.1021/acs.jctc.7b00174)


                         Additional Contributions by
    P. Kraus, H. Kruse, M. H. Lechner, M. C. Schieber, R. A. Shaw,
    A. Alenaizan, R. Galvelis, Z. L. Glick, S. Lehtola, and J. P. Misiewicz

    -----------------------------------------------------------------------


    Psi4 started on: Thursday, 27 May 2021 10:46AM

    Process ID: 224674
    Host:       daniele-Precision-5750
    PSIDATADIR: /home/daniele/anaconda3/envs/poltype/share/psi4
    Memory:     500.0 MiB
    Threads:    1
    
  ==> Input File <==

--------------------------------------------------------------------------
molecule { 
0 1
 O   -2.584100    0.281700   -0.852300
 C   -0.286300    0.202400   -0.447400
 C    0.843000   -0.333500    0.401600
 C   -1.637300   -0.283000    0.010700
 C    2.132000    0.244300   -0.185000
 H   -0.292600    1.310600   -0.462800
 H   -0.088200   -0.131900   -1.486900
 H    0.913200   -1.436500    0.324900
 H    0.760400   -0.073500    1.455200
 H   -1.688700   -1.389200   -0.010300
 H   -1.858600    0.133400    1.017300
 H    1.980400    0.376300   -1.275200
 H    2.958800   -0.485900   -0.032500
 H    2.310600    1.197500    0.330200
 H   -3.462600    0.387200   -0.441400
}
set {
  geom_maxiter 400
  g_convergence GAU_LOOSE
  dynamic_level 1
}
memory 700MB
set_num_threads(8)
psi4_io.set_default_path("/home/daniele/PSI4_sctatch/Psi4-1butanol_3D")
for _ in range(1):
  try:
    set opt_coordinates both
    optimize('mp2/6-31G*')
    break
  except OptimizationConvergenceError:
    break
  else:
    try:
      set opt_coordinates cartesian
      optimize('mp2/6-31G*')
      break
    except OptimizationConvergenceError:
      pass
clean()
--------------------------------------------------------------------------

  Memory set to 667.572 MiB by Python driver.
  Threads set to 8 by Python driver.
gradient() will perform analytic gradient computation.
    SCF Algorithm Type (re)set to DF.

*** tstart() called on daniele-Precision-5750
*** at Thu May 27 10:46:23 2021

   => Loading Basis Set <=

    Name: 6-31G*
    Role: ORBITAL
    Keyword: BASIS
    atoms 1    entry O          line   145 file /home/daniele/anaconda3/envs/poltype/share/psi4/basis/6-31gs.gbs 
    atoms 2-5  entry C          line   111 file /home/daniele/anaconda3/envs/poltype/share/psi4/basis/6-31gs.gbs 
    atoms 6-15 entry H          line    44 file /home/daniele/anaconda3/envs/poltype/share/psi4/basis/6-31gs.gbs 


         ---------------------------------------------------------
                                   SCF
               by Justin Turney, Rob Parrish, Andy Simmonett
                          and Daniel G. A. Smith
                              RHF Reference
                        8 Threads,    667 MiB Core
         ---------------------------------------------------------

  ==> Geometry <==

    Molecular point group: c1
    Full point group: C1

    Geometry (in Angstrom), charge = 0, multiplicity = 1:

       Center              X                  Y                   Z               Mass       
    ------------   -----------------  -----------------  -----------------  -----------------
         O           -2.217287464545     0.249903180645    -0.624691040673    15.994914619570
         C            0.080512535455     0.170603180645    -0.219791040673    12.000000000000
         C            1.209812535455    -0.365296819355     0.629208959327    12.000000000000
         C           -1.270487464545    -0.314796819355     0.238308959327    12.000000000000
         C            2.498812535455     0.212503180645     0.042608959327    12.000000000000
         H            0.074212535455     1.278803180645    -0.235191040673     1.007825032230
         H            0.278612535455    -0.163696819355    -1.259291040673     1.007825032230
         H            1.280012535455    -1.468296819355     0.552508959327     1.007825032230
         H            1.127212535455    -0.105296819355     1.682808959327     1.007825032230
         H           -1.321887464545    -1.420996819355     0.217308959327     1.007825032230
         H           -1.491787464545     0.101603180645     1.244908959327     1.007825032230
         H            2.347212535455     0.344503180645    -1.047591040673     1.007825032230
         H            3.325612535455    -0.517696819355     0.195108959327     1.007825032230
         H            2.677412535455     1.165703180645     0.557808959327     1.007825032230
         H           -3.095787464545     0.355403180645    -0.213791040673     1.007825032230

  Running in c1 symmetry.

  Rotational constants: A =      0.58777  B =      0.06968  C =      0.06557 [cm^-1]
  Rotational constants: A =  17620.90121  B =   2088.84132  C =   1965.78941 [MHz]
  Nuclear repulsion =  186.925859655831260

  Charge       = 0
  Multiplicity = 1
  Electrons    = 42
  Nalpha       = 21
  Nbeta        = 21

  ==> Algorithm <==

  SCF Algorithm Type is DF.
  DIIS enabled.
  MOM disabled.
  Fractional occupation disabled.
  Guess Type is SAD.
  Energy threshold   = 1.00e-10
  Density threshold  = 1.00e-10
  Integral threshold = 0.00e+00

  ==> Primary Basis <==

  Basis Set: 6-31G*
    Blend: 6-31G*
    Number of shells: 50
    Number of basis function: 95
    Number of Cartesian functions: 95
    Spherical Harmonics?: false
    Max angular momentum: 2

   => Loading Basis Set <=

    Name: (6-31G* AUX)
    Role: JKFIT
    Keyword: DF_BASIS_SCF
    atoms 1    entry O          line   221 file /home/daniele/anaconda3/envs/poltype/share/psi4/basis/cc-pvdz-jkfit.gbs 
    atoms 2-5  entry C          line   121 file /home/daniele/anaconda3/envs/poltype/share/psi4/basis/cc-pvdz-jkfit.gbs 
    atoms 6-15 entry H          line    51 file /home/daniele/anaconda3/envs/poltype/share/psi4/basis/cc-pvdz-jkfit.gbs 

  ==> Pre-Iterations <==

   -------------------------------------------------------
    Irrep   Nso     Nmo     Nalpha   Nbeta   Ndocc  Nsocc
   -------------------------------------------------------
     A         95      95       0       0       0       0
   -------------------------------------------------------
    Total      95      95      21      21      21       0
   -------------------------------------------------------

  ==> Integral Setup <==

  DFHelper Memory: AOs need 0.048 GiB; user supplied 0.489 GiB. Using in-core AOs.

  ==> MemDFJK: Density-Fitted J/K Matrices <==

    J tasked:                   Yes
    K tasked:                   Yes
    wK tasked:                   No
    OpenMP threads:               8
    Memory [MiB]:               500
    Algorithm:                 Core
    Schwarz Cutoff:           1E-12
    Mask sparsity (%):       3.7895
    Fitting Condition:        1E-10

   => Auxiliary Basis Set <=

  Basis Set: (6-31G* AUX)
    Blend: CC-PVDZ-JKFIT
    Number of shells: 210
    Number of basis function: 655
    Number of Cartesian functions: 655
    Spherical Harmonics?: false
    Max angular momentum: 3

  Minimum eigenvalue in the overlap matrix is 3.2918939097E-03.
  Using Symmetric Orthogonalization.

  SCF Guess: Superposition of Atomic Densities via on-the-fly atomic UHF.

  ==> Iterations <==

                           Total Energy        Delta E     RMS |[F,P]|

   @DF-RHF iter SAD:  -231.25783914177055   -2.31258e+02   0.00000e+00 
   @DF-RHF iter   1:  -231.98745112028109   -7.29612e-01   5.18739e-03 DIIS
   @DF-RHF iter   2:  -232.10453683452442   -1.17086e-01   2.52145e-03 DIIS
   @DF-RHF iter   3:  -232.12765848301629   -2.31216e-02   4.66395e-04 DIIS
   @DF-RHF iter   4:  -232.12917442098885   -1.51594e-03   1.36058e-04 DIIS
   @DF-RHF iter   5:  -232.12926209482225   -8.76738e-05   2.91902e-05 DIIS
   @DF-RHF iter   6:  -232.12926807763768   -5.98282e-06   5.84229e-06 DIIS
   @DF-RHF iter   7:  -232.12926836811866   -2.90481e-07   1.60977e-06 DIIS
   @DF-RHF iter   8:  -232.12926839021853   -2.20999e-08   5.52326e-07 DIIS
   @DF-RHF iter   9:  -232.12926839352895   -3.31042e-09   1.09906e-07 DIIS
   @DF-RHF iter  10:  -232.12926839368632   -1.57371e-10   2.22063e-08 DIIS
   @DF-RHF iter  11:  -232.12926839369183   -5.51381e-12   6.01326e-09 DIIS
   @DF-RHF iter  12:  -232.12926839369183    0.00000e+00   1.90660e-09 DIIS
   @DF-RHF iter  13:  -232.12926839369214   -3.12639e-13   3.96646e-10 DIIS
   @DF-RHF iter  14:  -232.12926839369240   -2.55795e-13   1.08391e-10 DIIS
   @DF-RHF iter  15:  -232.12926839369209    3.12639e-13   3.37459e-11 DIIS
  Energy and wave function converged.


  ==> Post-Iterations <==

    Orbital Energies [Eh]
    ---------------------

    Doubly Occupied:                                                      

       1A    -20.549273     2A    -11.270115     3A    -11.216639  
       4A    -11.214118     5A    -11.213883     6A     -1.350420  
       7A     -1.075056     8A     -0.967787     9A     -0.842943  
      10A     -0.789316    11A     -0.684731    12A     -0.660227  
      13A     -0.607964    14A     -0.595261    15A     -0.546053  
      16A     -0.522228    17A     -0.495898    18A     -0.481250  
      19A     -0.465320    20A     -0.452055    21A     -0.426563  

    Virtual:                                                              

      22A      0.220073    23A      0.231148    24A      0.273711  
      25A      0.276195    26A      0.284924    27A      0.311071  
      28A      0.336436    29A      0.336619    30A      0.360832  
      31A      0.373315    32A      0.388165    33A      0.440387  
      34A      0.454524    35A      0.483759    36A      0.717748  
      37A      0.744438    38A      0.761685    39A      0.773521  
      40A      0.804923    41A      0.851827    42A      0.900338  
      43A      0.938794    44A      0.969362    45A      0.979464  
      46A      1.026925    47A      1.084542    48A      1.097342  
      49A      1.119442    50A      1.149963    51A      1.151766  
      52A      1.168904    53A      1.180290    54A      1.181971  
      55A      1.202865    56A      1.222866    57A      1.241052  
      58A      1.258056    59A      1.290855    60A      1.375891  
      61A      1.501431    62A      1.564744    63A      1.647909  
      64A      1.684037    65A      1.721263    66A      1.809732  
      67A      1.872603    68A      1.995912    69A      2.079620  
      70A      2.128440    71A      2.157258    72A      2.221855  
      73A      2.257279    74A      2.291375    75A      2.355512  
      76A      2.387126    77A      2.414420    78A      2.455255  
      79A      2.537638    80A      2.567014    81A      2.589680  
      82A      2.624672    83A      2.750739    84A      2.767830  
      85A      2.838941    86A      2.880272    87A      2.912032  
      88A      2.994997    89A      3.174866    90A      3.260420  
      91A      4.212109    92A      4.585935    93A      4.683132  
      94A      4.803342    95A      4.973660  

    Final Occupation by Irrep:
              A 
    DOCC [    21 ]

  @DF-RHF Final Energy:  -232.12926839369209

   => Energetics <=

    Nuclear Repulsion Energy =            186.9258596558312604
    One-Electron Energy =                -685.2560497109749349
    Two-Electron Energy =                 266.2009216614516163
    Total Energy =                       -232.1292683936920866

Computation Completed


Properties will be evaluated at   0.000000,   0.000000,   0.000000 [a0]

Properties computed using the SCF density matrix

  Nuclear Dipole Moment: [e a0]
     X:     4.8650      Y:    -0.4019      Z:     1.5856

  Electronic Dipole Moment: [e a0]
     X:    -5.0301      Y:     0.2626      Z:    -0.9534

  Dipole Moment: [e a0]
     X:    -0.1652      Y:    -0.1393      Z:     0.6323     Total:     0.6682

  Dipole Moment: [D]
     X:    -0.4198      Y:    -0.3540      Z:     1.6070     Total:     1.6983


*** tstop() called on daniele-Precision-5750 at Thu May 27 10:46:25 2021
Module time:
	user time   =       7.17 seconds =       0.12 minutes
	system time =       0.11 seconds =       0.00 minutes
	total time  =          2 seconds =       0.03 minutes
Total time:
	user time   =       7.17 seconds =       0.12 minutes
	system time =       0.11 seconds =       0.00 minutes
	total time  =          2 seconds =       0.03 minutes

*** tstart() called on daniele-Precision-5750
*** at Thu May 27 10:46:25 2021


  //>>>>>>>>>>>>>>>>>>>>>>>>>>>>>>>>>>>//
  //               DFMP2               //
  //<<<<<<<<<<<<<<<<<<<<<<<<<<<<<<<<<<<//

   => Loading Basis Set <=

    Name: (6-31G* AUX)
    Role: RIFIT
    Keyword: DF_BASIS_MP2
    atoms 1    entry O          line   235 file /home/daniele/anaconda3/envs/poltype/share/psi4/basis/cc-pvdz-ri.gbs 
    atoms 2-5  entry C          line   159 file /home/daniele/anaconda3/envs/poltype/share/psi4/basis/cc-pvdz-ri.gbs 
    atoms 6-15 entry H          line    19 file /home/daniele/anaconda3/envs/poltype/share/psi4/basis/cc-pvdz-ri.gbs 

	 --------------------------------------------------------
	                          DF-MP2                         
	      2nd-Order Density-Fitted Moller-Plesset Theory     
	              RMP2 Wavefunction,   8 Threads             
	                                                         
	        Rob Parrish, Justin Turney, Andy Simmonett,      
	           Ed Hohenstein, and C. David Sherrill          
	 --------------------------------------------------------

   => Auxiliary Basis Set <=

  Basis Set: (6-31G* AUX)
    Blend: CC-PVDZ-RI
    Number of shells: 150
    Number of basis function: 420
    Number of Cartesian functions: 480
    Spherical Harmonics?: true
    Max angular momentum: 3

	 --------------------------------------------------------
	                 NBF =    95, NAUX =   420
	 --------------------------------------------------------
	   CLASS    FOCC     OCC    AOCC    AVIR     VIR    FVIR
	   PAIRS       0      21      21      74      74       0
	 --------------------------------------------------------

  DFHelper Memory: AOs need 0.048 GiB; user supplied 0.489 GiB. Using in-core AOs.


         ------------------------------------------------------------
                                     CPHF                           
                                  Rob Parrish                       
         ------------------------------------------------------------

  ==> Geometry <==

    Molecular point group: c1
    Full point group: C1

    Geometry (in Angstrom), charge = 0, multiplicity = 1:

       Center              X                  Y                   Z               Mass       
    ------------   -----------------  -----------------  -----------------  -----------------
         O           -2.217287464545     0.249903180645    -0.624691040673    15.994914619570
         C            0.080512535455     0.170603180645    -0.219791040673    12.000000000000
         C            1.209812535455    -0.365296819355     0.629208959327    12.000000000000
         C           -1.270487464545    -0.314796819355     0.238308959327    12.000000000000
         C            2.498812535455     0.212503180645     0.042608959327    12.000000000000
         H            0.074212535455     1.278803180645    -0.235191040673     1.007825032230
         H            0.278612535455    -0.163696819355    -1.259291040673     1.007825032230
         H            1.280012535455    -1.468296819355     0.552508959327     1.007825032230
         H            1.127212535455    -0.105296819355     1.682808959327     1.007825032230
         H           -1.321887464545    -1.420996819355     0.217308959327     1.007825032230
         H           -1.491787464545     0.101603180645     1.244908959327     1.007825032230
         H            2.347212535455     0.344503180645    -1.047591040673     1.007825032230
         H            3.325612535455    -0.517696819355     0.195108959327     1.007825032230
         H            2.677412535455     1.165703180645     0.557808959327     1.007825032230
         H           -3.095787464545     0.355403180645    -0.213791040673     1.007825032230

  Nuclear repulsion =  186.925859655831260
  Reference energy  = -232.129268393692087

  ==> Basis Set <==

  Basis Set: 6-31G*
    Blend: 6-31G*
    Number of shells: 50
    Number of basis function: 95
    Number of Cartesian functions: 95
    Spherical Harmonics?: false
    Max angular momentum: 2

  ==> CGRSolver (by Rob Parrish) <==

   Number of roots    =         1
   Preconditioning    =    JACOBI
   Convergence cutoff =     1E-06
   Maximum iterations =       100

  ==> CPHFRHamiltonian (by Rob Parrish) <== 

  ==> MemDFJK: Density-Fitted J/K Matrices <==

    J tasked:                   Yes
    K tasked:                   Yes
    wK tasked:                   No
    OpenMP threads:               8
    Memory [MiB]:               500
    Algorithm:                 Core
    Schwarz Cutoff:           1E-12
    Mask sparsity (%):       3.7895
    Fitting Condition:        1E-10

   => Auxiliary Basis Set <=

  Basis Set: (6-31G* AUX)
    Blend: CC-PVDZ-JKFIT
    Number of shells: 210
    Number of basis function: 655
    Number of Cartesian functions: 655
    Spherical Harmonics?: false
    Max angular momentum: 3

  ==> CPHF Iterations <==

  => Iterations <=

             Iter  Converged  Remaining    Residual
  CGR           1          0          1   8.399E-02
  CGR           2          0          1   1.593E-02
  CGR           3          0          1   5.453E-03
  CGR           4          0          1   9.039E-04
  CGR           5          0          1   3.261E-04
  CGR           6          0          1   9.304E-05
  CGR           7          0          1   2.134E-05
  CGR           8          0          1   5.717E-06
  CGR           9          0          1   1.467E-06
  CGR          10          1          0   5.382E-07

    CGRSolver converged.

  ==> DFCorrGrad: Density-Fitted Correlated Gradients <==

    OpenMP threads:              8
    Integrals threads:           8
    Memory [GiB]:            0.489
    Schwarz Cutoff:          0E+00
    Fitting Condition:       1E-10

   => Auxiliary Basis Set <=

  Basis Set: (6-31G* AUX)
    Blend: CC-PVDZ-JKFIT
    Number of shells: 210
    Number of basis function: 655
    Number of Cartesian functions: 655
    Spherical Harmonics?: false
    Max angular momentum: 3

	-----------------------------------------------------------
	 ==================> DF-MP2 Energies <==================== 
	-----------------------------------------------------------
	 Reference Energy          =    -232.1292683936920866 [Eh]
	 Singles Energy            =      -0.0000000000000000 [Eh]
	 Same-Spin Energy          =      -0.1756352877033385 [Eh]
	 Opposite-Spin Energy      =      -0.5510841037985379 [Eh]
	 Correlation Energy        =      -0.7267193915018764 [Eh]
	 Total Energy              =    -232.8559877851939746 [Eh]
	-----------------------------------------------------------
	 ================> DF-SCS-MP2 Energies <================== 
	-----------------------------------------------------------
	 SCS Same-Spin Scale       =       0.3333333333333333 [-]
	 SCS Opposite-Spin Scale   =       1.2000000000000000 [-]
	 SCS Same-Spin Energy      =      -0.0585450959011128 [Eh]
	 SCS Opposite-Spin Energy  =      -0.6613009245582454 [Eh]
	 SCS Correlation Energy    =      -0.7198460204593582 [Eh]
	 SCS Total Energy          =    -232.8491144141514440 [Eh]
	-----------------------------------------------------------


  -Total Gradient:
     Atom            X                  Y                   Z
    ------   -----------------  -----------------  -----------------
       1        0.020683720526    -0.009871520272     0.026293973053
       2        0.004221177526     0.003123280590     0.002615727891
       3       -0.013295915371     0.008931556759     0.014026837104
       4        0.006821449181    -0.009146196082    -0.014383734980
       5       -0.004725867227     0.012411020758    -0.004560255621
       6       -0.000602728026     0.008650784100    -0.001409097898
       7        0.007803334560    -0.003445261904    -0.007416672024
       8        0.008133295078    -0.007034322001    -0.002499265425
       9        0.003612589604    -0.000043558623    -0.003769315948
      10       -0.000608412957    -0.005625489035    -0.006226989950
      11       -0.009405978776     0.014606901483     0.000262543471
      12       -0.008371949616    -0.003431258087    -0.011196114167
      13        0.003330192551    -0.016750230050     0.000443206299
      14       -0.009180861483     0.001791207958     0.010286633183
      15       -0.008414045567     0.005833084407    -0.002467474986


*** tstop() called on daniele-Precision-5750 at Thu May 27 10:46:27 2021
Module time:
	user time   =      15.76 seconds =       0.26 minutes
	system time =       0.23 seconds =       0.00 minutes
	total time  =          2 seconds =       0.03 minutes
Total time:
	user time   =      22.94 seconds =       0.38 minutes
	system time =       0.34 seconds =       0.01 minutes
	total time  =          4 seconds =       0.07 minutes

			-----------------------------------------
			 OPTKING 2.0: for geometry optimizations 
			  - R.A. King,  Bethel University        
			-----------------------------------------
	At level 1: Red. Int., RFO, no backsteps, dynamic trust

	Internal coordinates to be generated automatically.
	Detected frag 1 with atoms:  1 2 3 4 5 6 7 8 9 10 11 12 13 14 15
	---Fragment 1 Bond Connectivity---
	 1 : 4 15
	 2 : 3 4 6 7
	 3 : 2 5 8 9
	 4 : 1 2 10 11
	 5 : 3 12 13 14
	 6 : 2
	 7 : 2
	 8 : 3
	 9 : 3
	 10 : 4
	 11 : 4
	 12 : 5
	 13 : 5
	 14 : 5
	 15 : 1

	---Fragment 1 Geometry and Gradient---
	 O          -4.1900660494        0.4722485693       -1.1804949799
	 C           0.1521466417        0.3223932876       -0.4153448717
	 C           2.2862143552       -0.6903109431        1.1890326088
	 C          -2.4008733538       -0.5948797737        0.4503386664
	 C           4.7220713309        0.4015728122        0.0805192636
	 H           0.1402413671        2.4165877798       -0.4444466540
	 H           0.5265013871       -0.3093421562       -2.3797151791
	 H           2.4188731292       -2.7746788595        1.0440906150
	 H           2.1301229772       -0.1989821505        3.1800480546
	 H          -2.4980052767       -2.6852948137        0.4106544177
	 H          -2.8190697454        0.1920021849        2.3525369843
	 H           4.4355888503        0.6510166608       -1.9796601584
	 H           6.2844968914       -0.9783052046        0.3687024978
	 H           5.0595764169        2.2028597550        1.0541061635
	 H          -5.8501904506        0.6716146755       -0.4040065149
	             0.0206837205       -0.0098715203        0.0262939731
	             0.0042211775        0.0031232806        0.0026157279
	            -0.0132959154        0.0089315568        0.0140268371
	             0.0068214492       -0.0091461961       -0.0143837350
	            -0.0047258672        0.0124110208       -0.0045602556
	            -0.0006027280        0.0086507841       -0.0014090979
	             0.0078033346       -0.0034452619       -0.0074166720
	             0.0081332951       -0.0070343220       -0.0024992654
	             0.0036125896       -0.0000435586       -0.0037693159
	            -0.0006084130       -0.0056254890       -0.0062269899
	            -0.0094059788        0.0146069015        0.0002625435
	            -0.0083719496       -0.0034312581       -0.0111961142
	             0.0033301926       -0.0167502300        0.0004432063
	            -0.0091808615        0.0017912080        0.0102866332
	            -0.0084140456        0.0058330844       -0.0024674750

	Previous optimization step data not found.  Starting new optimization.

	---Fragment 1 Intrafragment Coordinates---
	 - Coordinate -           - BOHR/RAD -       - ANG/DEG -
	 R(1,4)           =         2.645674	       1.400030
	 R(1,15)          =         1.843555	       0.975567
	 R(2,3)           =         2.855493	       1.511062
	 R(2,4)           =         2.847579	       1.506874
	 R(2,6)           =         2.094431	       1.108325
	 R(2,7)           =         2.097137	       1.109757
	 R(3,5)           =         2.890400	       1.529534
	 R(3,8)           =         2.093608	       1.107890
	 R(3,9)           =         2.056675	       1.088345
	 R(4,10)          =         2.093047	       1.107593
	 R(4,11)          =         2.100578	       1.111578
	 R(5,12)          =         2.094907	       1.108577
	 R(5,13)          =         2.104349	       1.113574
	 R(5,14)          =         2.075191	       1.098144
	 B(1,4,2)         =         1.863972	     106.797716
	 B(1,4,10)        =         1.938818	     111.086089
	 B(1,4,11)        =         1.846754	     105.811232
	 B(2,3,5)         =         1.854978	     106.282404
	 B(2,3,8)         =         1.940719	     111.195011
	 B(2,3,9)         =         1.985015	     113.732956
	 B(2,4,10)        =         1.936452	     110.950503
	 B(2,4,11)        =         1.910407	     109.458269
	 B(3,2,4)         =         1.966001	     112.643580
	 B(3,2,6)         =         1.946220	     111.510168
	 B(3,2,7)         =         1.860892	     106.621240
	 B(3,5,12)        =         1.882722	     107.872053
	 B(3,5,13)        =         1.902319	     108.994864
	 B(3,5,14)        =         1.859839	     106.560930
	 B(4,1,15)        =         1.974660	     113.139665
	 B(4,2,6)         =         1.897809	     108.736439
	 B(4,2,7)         =         1.925985	     110.350817
	 B(5,3,8)         =         1.871450	     107.226189
	 B(5,3,9)         =         1.923020	     110.180957
	 B(6,2,7)         =         1.864190	     106.810229
	 B(8,3,9)         =         1.885642	     108.039336
	 B(10,4,11)       =         1.962823	     112.461464
	 B(12,5,13)       =         1.890504	     108.317928
	 B(12,5,14)       =         1.960878	     112.350034
	 B(13,5,14)       =         1.965109	     112.592454
	 D(1,4,2,3)       =        -3.141492	    -179.994230
	 D(1,4,2,6)       =         0.975284	      55.879637
	 D(1,4,2,7)       =        -1.063992	     -60.962234
	 D(2,3,5,12)      =        -0.541191	     -31.007976
	 D(2,3,5,13)      =        -2.590252	    -148.410493
	 D(2,3,5,14)      =         1.567959	      89.837451
	 D(2,4,1,15)      =        -2.676977	    -153.379490
	 D(3,2,4,10)      =        -1.026198	     -58.796811
	 D(3,2,4,11)      =         1.150081	      65.894784
	 D(4,2,3,5)       =        -3.141385	    -179.988096
	 D(4,2,3,8)       =         1.110760	      63.641873
	 D(4,2,3,9)       =        -1.022542	     -58.587333
	 D(5,3,2,6)       =        -1.001927	     -57.406197
	 D(5,3,2,7)       =         1.026761	      58.829048
	 D(6,2,3,8)       =        -3.032967	    -173.776227
	 D(6,2,3,9)       =         1.116916	      63.994567
	 D(6,2,4,10)      =         3.090578	     177.077057
	 D(6,2,4,11)      =        -1.016329	     -58.231349
	 D(7,2,3,8)       =        -1.004280	     -57.540982
	 D(7,2,3,9)       =        -3.137582	    -179.770188
	 D(7,2,4,10)      =         1.051302	      60.235186
	 D(7,2,4,11)      =        -3.055604	    -175.073220
	 D(8,3,5,12)      =         1.535856	      87.998044
	 D(8,3,5,13)      =        -0.513205	     -29.404473
	 D(8,3,5,14)      =        -2.638179	    -151.156529
	 D(9,3,5,12)      =        -2.699237	    -154.654895
	 D(9,3,5,13)      =         1.534888	      87.942588
	 D(9,3,5,14)      =        -0.590087	     -33.809468
	 D(10,4,1,15)     =         1.492418	      85.509267
	 D(11,4,1,15)     =        -0.642619	     -36.819373

	Current energy   :      -232.8559877852

	Generating empirical Hessian (Schlegel '84) for each fragment.
	Taking RFO optimization step.
	Going to follow RFO solution 1.
	Using RFO vector 1.
	Norm of target step-size    0.42070
	Projected energy change by RFO approximation:        -0.0313813893

	Back-transformation to cartesian coordinates...
	Could not converge backtransformation.
	Using first guess instead.

	--- Internal Coordinate Step in ANG or DEG, aJ/ANG or AJ/DEG ---
	 ---------------------------------------------------------------------------
	   Coordinate                Previous        Force       Change         New 
	   ----------                --------       ------       ------       ------
	    1 R(1,4)          =      1.400030     0.202784     0.028261     1.428291
	    2 R(1,15)         =      0.975567    -0.059058    -0.000958     0.974609
	    3 R(2,3)          =      1.511062     0.101515     0.020573     1.531635
	    4 R(2,4)          =      1.506874     0.047178     0.009498     1.516372
	    5 R(2,6)          =      1.108325    -0.071453    -0.013002     1.095323
	    6 R(2,7)          =      1.109757    -0.077262    -0.011175     1.098582
	    7 R(3,5)          =      1.529534     0.134288     0.032781     1.562315
	    8 R(3,8)          =      1.107890    -0.063369    -0.009271     1.098619
	    9 R(3,9)          =      1.088345     0.032408     0.006628     1.094973
	   10 R(4,10)         =      1.107593    -0.047494    -0.008474     1.099119
	   11 R(4,11)         =      1.111578    -0.062467    -0.005881     1.105697
	   12 R(5,12)         =      1.108577    -0.096779    -0.007088     1.101489
	   13 R(5,13)         =      1.113574    -0.111362    -0.017067     1.096507
	   14 R(5,14)         =      1.098144    -0.040268    -0.004914     1.093230
	   15 B(1,4,2)        =    106.797716     0.000190     1.389250   108.186966
	   16 B(1,4,10)       =    111.086089    -0.000130    -0.597941   110.488148
	   17 B(1,4,11)       =    105.811232     0.000668     5.819423   111.630655
	   18 B(2,3,5)        =    106.282404     0.001882     6.528290   112.810694
	   19 B(2,3,8)        =    111.195011    -0.000638    -2.270910   108.924101
	   20 B(2,3,9)        =    113.732956    -0.000764    -3.913167   109.819789
	   21 B(2,4,10)       =    110.950503    -0.000111    -1.684975   109.265528
	   22 B(2,4,11)       =    109.458269    -0.000167    -0.578099   108.880170
	   23 B(3,2,4)        =    112.643580     0.000441     1.457820   114.101400
	   24 B(3,2,6)        =    111.510168    -0.000270    -1.163754   110.346414
	   25 B(3,2,7)        =    106.621240     0.000247     2.306412   108.927652
	   26 B(3,5,12)       =    107.872053     0.000647     3.045839   110.917891
	   27 B(3,5,13)       =    108.994864     0.000697     3.130359   112.125223
	   28 B(3,5,14)       =    106.560930     0.001149     4.296038   110.856968
	   29 B(4,1,15)       =    113.139665    -0.001029    -4.263887   108.875777
	   30 B(4,2,6)        =    108.736439    -0.000086    -0.692478   108.043962
	   31 B(4,2,7)        =    110.350817    -0.000430    -2.005020   108.345797
	   32 B(5,3,8)        =    107.226189    -0.000124     2.430186   109.656375
	   33 B(5,3,9)        =    110.180957    -0.000585    -1.333056   108.847900
	   34 B(6,2,7)        =    106.810229     0.000075    -0.001665   106.808564
	   35 B(8,3,9)        =    108.039336     0.000255    -1.447056   106.592279
	   36 B(10,4,11)      =    112.461464    -0.000391    -4.108758   108.352706
	   37 B(12,5,13)      =    108.317928    -0.000485    -1.704721   106.613207
	   38 B(12,5,14)      =    112.350034    -0.000898    -4.566582   107.783451
	   39 B(13,5,14)      =    112.592454    -0.000962    -4.248117   108.344337
	   40 D(1,4,2,3)      =   -179.994230     0.000039     1.858141  -178.136089
	   41 D(1,4,2,6)      =     55.879637     0.000064     2.868313    58.747951
	   42 D(1,4,2,7)      =    -60.962234     0.000110     4.341310   -56.620924
	   43 D(2,3,5,12)     =    -31.007976    -0.000022    -3.574795   -34.582771
	   44 D(2,3,5,13)     =   -148.410493    -0.000059    -5.238005  -153.648498
	   45 D(2,3,5,14)     =     89.837451    -0.000039    -4.715846    85.121605
	   46 D(2,4,1,15)     =   -153.379490    -0.000047    -4.554345  -157.933836
	   47 D(3,2,4,10)     =    -58.796811     0.000016     0.998867   -57.797944
	   48 D(3,2,4,11)     =     65.894784    -0.000144    -5.525768    60.369015
	   49 D(4,2,3,5)      =   -179.988096     0.000035     2.772818  -177.215278
	   50 D(4,2,3,8)      =     63.641873    -0.000104    -2.860188    60.781685
	   51 D(4,2,3,9)      =    -58.587333     0.000059     2.980862   -55.606471
	   52 D(5,3,2,6)      =    -57.406197     0.000037     2.047872   -55.358324
	   53 D(5,3,2,7)      =     58.829048     0.000059     2.762568    61.591617
	   54 D(6,2,3,8)      =   -173.776227    -0.000102    -3.585134  -177.361361
	   55 D(6,2,3,9)      =     63.994567     0.000062     2.255916    66.250483
	   56 D(6,2,4,10)     =    177.077057     0.000040     2.009039   179.086095
	   57 D(6,2,4,11)     =    -58.231349    -0.000119    -4.515596   -62.746945
	   58 D(7,2,3,8)      =    -57.540982    -0.000081    -2.870438   -60.411420
	   59 D(7,2,3,9)      =   -179.770188     0.000083     2.970612  -176.799576
	   60 D(7,2,4,10)     =     60.235186     0.000087     3.482035    63.717220
	   61 D(7,2,4,11)     =   -175.073220    -0.000073    -3.042600  -178.115820
	   62 D(8,3,5,12)     =     87.998044     0.000017    -0.991208    87.006836
	   63 D(8,3,5,13)     =    -29.404473    -0.000020    -2.654418   -32.058892
	   64 D(8,3,5,14)     =   -151.156529    -0.000001    -2.132259  -153.288788
	   65 D(9,3,5,12)     =   -154.654895    -0.000002    -2.084888  -156.739783
	   66 D(9,3,5,13)     =     87.942588    -0.000039    -3.748098    84.194490
	   67 D(9,3,5,14)     =    -33.809468    -0.000020    -3.225939   -37.035407
	   68 D(10,4,1,15)    =     85.509267    -0.000026    -3.014220    82.495047
	   69 D(11,4,1,15)    =    -36.819373     0.000003    -1.333452   -38.152825
	 ---------------------------------------------------------------------------
	Successfully symmetrized geometry.

  ==> Convergence Check <==

  Measures of convergence in internal coordinates in au.
  Criteria marked as inactive (o), active & met (*), and active & unmet ( ).
  --------------------------------------------------------------------------------------------- ~
   Step     Total Energy     Delta E     MAX Force     RMS Force      MAX Disp      RMS Disp    ~
  --------------------------------------------------------------------------------------------- ~
    Convergence Criteria             o    2.50e-03 *    1.70e-03 *    1.00e-02 *    6.70e-03 *  ~
  --------------------------------------------------------------------------------------------- ~
      1    -232.85598779   -2.33e+02 o    2.47e-02      7.77e-03      1.14e-01      5.12e-02    ~
  ---------------------------------------------------------------------------------------------

	Writing optimization data to binary file.
	Structure for next step:
	Cartesian Geometry (in Angstrom)
	    O    -2.3204897826   0.2506748131  -0.6302723188
	    C     0.0338944821   0.1799335704  -0.2517789694
	    C     1.2130776048  -0.3569862874   0.5650134774
	    C    -1.3230142459  -0.2842463979   0.2408866981
	    C     2.5902860030   0.1943817788   0.0749941914
	    H     0.0382122273   1.2752483617  -0.2521476682
	    H     0.1498493397  -0.1385601850  -1.2967666918
	    H     1.2138415712  -1.4542638387   0.5107392091
	    H     1.0829416087  -0.0962216446   1.6204906990
	    H    -1.3550591214  -1.3828743231   0.2337209582
	    H    -1.4631468508   0.0613531869   1.2817945480
	    H     2.5930936353   0.3302408507  -1.0180808379
	    H     3.4153649683  -0.4891734039   0.3080685430
	    H     2.8066361428   1.1634376967   0.5324593115
	    H    -3.1732995722   0.2700035338  -0.1588867663
			--------------------------
			 OPTKING Finished Execution 
			--------------------------

    Structure for next step:
    Molecular point group: c1
    Full point group: C1

    Geometry (in Angstrom), charge = 0, multiplicity = 1:

    O           -2.298955175051     0.246056426509    -0.620058191620
    C            0.055429098874     0.175315183563    -0.241564840753
    C            1.234612226212    -0.361604676404     0.575227609297
    C           -1.301479634420    -0.288864786580     0.251100828690
    C            2.611820629783     0.189763392019     0.085208321369
    H            0.059746844091     1.270629979127    -0.241933539501
    H            0.171383956967    -0.143178573176    -1.286552567231
    H            1.235376192584    -1.458882232003     0.520953340763
    H            1.104476229609    -0.100840032594     1.630704835046
    H           -1.333524510054    -1.387492716125     0.243935088756
    H           -1.441612239896     0.056734799538     1.292008682716
    H            2.614628262134     0.325622464458    -1.007866712241
    H            3.436899598332    -0.493791793415     0.318282673924
    H            2.828170770441     1.158819313665     0.542673443227
    H           -3.151764968039     0.265385147324    -0.148672637287

gradient() will perform analytic gradient computation.
    SCF Algorithm Type (re)set to DF.

*** tstart() called on daniele-Precision-5750
*** at Thu May 27 10:46:27 2021

   => Loading Basis Set <=

    Name: 6-31G*
    Role: ORBITAL
    Keyword: BASIS
    atoms 1    entry O          line   145 file /home/daniele/anaconda3/envs/poltype/share/psi4/basis/6-31gs.gbs 
    atoms 2-5  entry C          line   111 file /home/daniele/anaconda3/envs/poltype/share/psi4/basis/6-31gs.gbs 
    atoms 6-15 entry H          line    44 file /home/daniele/anaconda3/envs/poltype/share/psi4/basis/6-31gs.gbs 


         ---------------------------------------------------------
                                   SCF
               by Justin Turney, Rob Parrish, Andy Simmonett
                          and Daniel G. A. Smith
                              RHF Reference
                        8 Threads,    667 MiB Core
         ---------------------------------------------------------

  ==> Geometry <==

    Molecular point group: c1
    Full point group: C1

    Geometry (in Angstrom), charge = 0, multiplicity = 1:

       Center              X                  Y                   Z               Mass       
    ------------   -----------------  -----------------  -----------------  -----------------
         O           -2.298955175051     0.246056426509    -0.620058191620    15.994914619570
         C            0.055429098874     0.175315183563    -0.241564840753    12.000000000000
         C            1.234612226212    -0.361604676404     0.575227609297    12.000000000000
         C           -1.301479634420    -0.288864786580     0.251100828690    12.000000000000
         C            2.611820629783     0.189763392019     0.085208321369    12.000000000000
         H            0.059746844091     1.270629979127    -0.241933539501     1.007825032230
         H            0.171383956967    -0.143178573176    -1.286552567231     1.007825032230
         H            1.235376192584    -1.458882232003     0.520953340763     1.007825032230
         H            1.104476229609    -0.100840032594     1.630704835046     1.007825032230
         H           -1.333524510054    -1.387492716125     0.243935088756     1.007825032230
         H           -1.441612239896     0.056734799538     1.292008682716     1.007825032230
         H            2.614628262134     0.325622464458    -1.007866712241     1.007825032230
         H            3.436899598332    -0.493791793415     0.318282673924     1.007825032230
         H            2.828170770441     1.158819313665     0.542673443227     1.007825032230
         H           -3.151764968039     0.265385147324    -0.148672637287     1.007825032230

  Running in c1 symmetry.

  Rotational constants: A =      0.61555  B =      0.06507  C =      0.06163 [cm^-1]
  Rotational constants: A =  18453.82513  B =   1950.65277  C =   1847.61218 [MHz]
  Nuclear repulsion =  183.925824402707661

  Charge       = 0
  Multiplicity = 1
  Electrons    = 42
  Nalpha       = 21
  Nbeta        = 21

  ==> Algorithm <==

  SCF Algorithm Type is DF.
  DIIS enabled.
  MOM disabled.
  Fractional occupation disabled.
  Guess Type is READ.
  Energy threshold   = 1.00e-10
  Density threshold  = 1.00e-10
  Integral threshold = 0.00e+00

  ==> Primary Basis <==

  Basis Set: 6-31G*
    Blend: 6-31G*
    Number of shells: 50
    Number of basis function: 95
    Number of Cartesian functions: 95
    Spherical Harmonics?: false
    Max angular momentum: 2

   => Loading Basis Set <=

    Name: (6-31G* AUX)
    Role: JKFIT
    Keyword: DF_BASIS_SCF
    atoms 1    entry O          line   221 file /home/daniele/anaconda3/envs/poltype/share/psi4/basis/cc-pvdz-jkfit.gbs 
    atoms 2-5  entry C          line   121 file /home/daniele/anaconda3/envs/poltype/share/psi4/basis/cc-pvdz-jkfit.gbs 
    atoms 6-15 entry H          line    51 file /home/daniele/anaconda3/envs/poltype/share/psi4/basis/cc-pvdz-jkfit.gbs 

   => Loading Basis Set <=

    Name: 6-31G*
    Role: ORBITAL
    Keyword: BASIS
    atoms 1    entry O          line   145 file /home/daniele/anaconda3/envs/poltype/share/psi4/basis/6-31gs.gbs 
    atoms 2-5  entry C          line   111 file /home/daniele/anaconda3/envs/poltype/share/psi4/basis/6-31gs.gbs 
    atoms 6-15 entry H          line    44 file /home/daniele/anaconda3/envs/poltype/share/psi4/basis/6-31gs.gbs 

  Reading orbitals from file 180, no projection.

  ==> Pre-Iterations <==

   -------------------------------------------------------
    Irrep   Nso     Nmo     Nalpha   Nbeta   Ndocc  Nsocc
   -------------------------------------------------------
     A         95      95       0       0       0       0
   -------------------------------------------------------
    Total      95      95      21      21      21       0
   -------------------------------------------------------

  ==> Integral Setup <==

  DFHelper Memory: AOs need 0.048 GiB; user supplied 0.489 GiB. Using in-core AOs.

  ==> MemDFJK: Density-Fitted J/K Matrices <==

    J tasked:                   Yes
    K tasked:                   Yes
    wK tasked:                   No
    OpenMP threads:               8
    Memory [MiB]:               500
    Algorithm:                 Core
    Schwarz Cutoff:           1E-12
    Mask sparsity (%):       4.2992
    Fitting Condition:        1E-10

   => Auxiliary Basis Set <=

  Basis Set: (6-31G* AUX)
    Blend: CC-PVDZ-JKFIT
    Number of shells: 210
    Number of basis function: 655
    Number of Cartesian functions: 655
    Spherical Harmonics?: false
    Max angular momentum: 3

  Minimum eigenvalue in the overlap matrix is 3.7244909471E-03.
  Using Symmetric Orthogonalization.

  SCF Guess: Orbitals guess was supplied from a previous computation.

  ==> Iterations <==

                           Total Energy        Delta E     RMS |[F,P]|

   @DF-RHF iter   0:  -232.14877905286488   -2.32149e+02   1.90021e-03 
   @DF-RHF iter   1:  -232.13863129214238    1.01478e-02   3.34234e-04 DIIS
   @DF-RHF iter   2:  -232.13943643208816   -8.05140e-04   1.32112e-04 DIIS
   @DF-RHF iter   3:  -232.13955170182064   -1.15270e-04   5.50019e-05 DIIS
   @DF-RHF iter   4:  -232.13957815796618   -2.64561e-05   1.11225e-05 DIIS
   @DF-RHF iter   5:  -232.13957938508167   -1.22712e-06   5.13864e-06 DIIS
   @DF-RHF iter   6:  -232.13957963069927   -2.45618e-07   1.39207e-06 DIIS
   @DF-RHF iter   7:  -232.13957965558777   -2.48885e-08   3.49525e-07 DIIS
   @DF-RHF iter   8:  -232.13957965699257   -1.40480e-09   1.06998e-07 DIIS
   @DF-RHF iter   9:  -232.13957965709901   -1.06439e-10   2.74597e-08 DIIS
   @DF-RHF iter  10:  -232.13957965710884   -9.83391e-12   7.23085e-09 DIIS
   @DF-RHF iter  11:  -232.13957965710952   -6.82121e-13   1.93232e-09 DIIS
   @DF-RHF iter  12:  -232.13957965710972   -1.98952e-13   6.70955e-10 DIIS
   @DF-RHF iter  13:  -232.13957965711009   -3.69482e-13   1.84319e-10 DIIS
   @DF-RHF iter  14:  -232.13957965710975    3.41061e-13   5.62547e-11 DIIS
  Energy and wave function converged.


  ==> Post-Iterations <==

    Orbital Energies [Eh]
    ---------------------

    Doubly Occupied:                                                      

       1A    -20.556863     2A    -11.273298     3A    -11.224455  
       4A    -11.216741     5A    -11.214548     6A     -1.345430  
       7A     -1.064852     8A     -0.968717     9A     -0.852969  
      10A     -0.791364    11A     -0.682801    12A     -0.652693  
      13A     -0.598656    14A     -0.587389    15A     -0.551683  
      16A     -0.524955    17A     -0.503734    18A     -0.475328  
      19A     -0.469450    20A     -0.461250    21A     -0.433843  

    Virtual:                                                              

      22A      0.222578    23A      0.232734    24A      0.269828  
      25A      0.279751    26A      0.294359    27A      0.313232  
      28A      0.331072    29A      0.335723    30A      0.360915  
      31A      0.369894    32A      0.376473    33A      0.432570  
      34A      0.445483    35A      0.470160    36A      0.709966  
      37A      0.741611    38A      0.755360    39A      0.756201  
      40A      0.795303    41A      0.848019    42A      0.898670  
      43A      0.913979    44A      0.967390    45A      0.977130  
      46A      1.018570    47A      1.075572    48A      1.105981  
      49A      1.122945    50A      1.150792    51A      1.159115  
      52A      1.174471    53A      1.179910    54A      1.187669  
      55A      1.209946    56A      1.224056    57A      1.241015  
      58A      1.251301    59A      1.279499    60A      1.354616  
      61A      1.504464    62A      1.553624    63A      1.651148  
      64A      1.670410    65A      1.729938    66A      1.788891  
      67A      1.854007    68A      1.968387    69A      2.075751  
      70A      2.091270    71A      2.144038    72A      2.214028  
      73A      2.236485    74A      2.275065    75A      2.314734  
      76A      2.363359    77A      2.369660    78A      2.408852  
      79A      2.515595    80A      2.567116    81A      2.600863  
      82A      2.642523    83A      2.747746    84A      2.765693  
      85A      2.799781    86A      2.851156    87A      2.916474  
      88A      2.989929    89A      3.134723    90A      3.245856  
      91A      4.178066    92A      4.558111    93A      4.680912  
      94A      4.806977    95A      4.952927  

    Final Occupation by Irrep:
              A 
    DOCC [    21 ]

  @DF-RHF Final Energy:  -232.13957965710975

   => Energetics <=

    Nuclear Repulsion Energy =            183.9258244027076614
    One-Electron Energy =                -679.2287721083941960
    Two-Electron Energy =                 263.1633680485767286
    Total Energy =                       -232.1395796571097776

Computation Completed


Properties will be evaluated at   0.000000,   0.000000,   0.000000 [a0]

Properties computed using the SCF density matrix

  Nuclear Dipole Moment: [e a0]
     X:     5.1673      Y:    -0.4741      Z:     1.7440

  Electronic Dipole Moment: [e a0]
     X:    -5.2559      Y:     0.2894      Z:    -1.0792

  Dipole Moment: [e a0]
     X:    -0.0886      Y:    -0.1847      Z:     0.6648     Total:     0.6957

  Dipole Moment: [D]
     X:    -0.2252      Y:    -0.4694      Z:     1.6898     Total:     1.7682


*** tstop() called on daniele-Precision-5750 at Thu May 27 10:46:28 2021
Module time:
	user time   =       5.07 seconds =       0.08 minutes
	system time =       0.08 seconds =       0.00 minutes
	total time  =          1 seconds =       0.02 minutes
Total time:
	user time   =      28.28 seconds =       0.47 minutes
	system time =       0.43 seconds =       0.01 minutes
	total time  =          5 seconds =       0.08 minutes

*** tstart() called on daniele-Precision-5750
*** at Thu May 27 10:46:28 2021


  //>>>>>>>>>>>>>>>>>>>>>>>>>>>>>>>>>>>//
  //               DFMP2               //
  //<<<<<<<<<<<<<<<<<<<<<<<<<<<<<<<<<<<//

   => Loading Basis Set <=

    Name: (6-31G* AUX)
    Role: RIFIT
    Keyword: DF_BASIS_MP2
    atoms 1    entry O          line   235 file /home/daniele/anaconda3/envs/poltype/share/psi4/basis/cc-pvdz-ri.gbs 
    atoms 2-5  entry C          line   159 file /home/daniele/anaconda3/envs/poltype/share/psi4/basis/cc-pvdz-ri.gbs 
    atoms 6-15 entry H          line    19 file /home/daniele/anaconda3/envs/poltype/share/psi4/basis/cc-pvdz-ri.gbs 

	 --------------------------------------------------------
	                          DF-MP2                         
	      2nd-Order Density-Fitted Moller-Plesset Theory     
	              RMP2 Wavefunction,   8 Threads             
	                                                         
	        Rob Parrish, Justin Turney, Andy Simmonett,      
	           Ed Hohenstein, and C. David Sherrill          
	 --------------------------------------------------------

   => Auxiliary Basis Set <=

  Basis Set: (6-31G* AUX)
    Blend: CC-PVDZ-RI
    Number of shells: 150
    Number of basis function: 420
    Number of Cartesian functions: 480
    Spherical Harmonics?: true
    Max angular momentum: 3

	 --------------------------------------------------------
	                 NBF =    95, NAUX =   420
	 --------------------------------------------------------
	   CLASS    FOCC     OCC    AOCC    AVIR     VIR    FVIR
	   PAIRS       0      21      21      74      74       0
	 --------------------------------------------------------

  DFHelper Memory: AOs need 0.048 GiB; user supplied 0.489 GiB. Using in-core AOs.


         ------------------------------------------------------------
                                     CPHF                           
                                  Rob Parrish                       
         ------------------------------------------------------------

  ==> Geometry <==

    Molecular point group: c1
    Full point group: C1

    Geometry (in Angstrom), charge = 0, multiplicity = 1:

       Center              X                  Y                   Z               Mass       
    ------------   -----------------  -----------------  -----------------  -----------------
         O           -2.298955175051     0.246056426509    -0.620058191620    15.994914619570
         C            0.055429098874     0.175315183563    -0.241564840753    12.000000000000
         C            1.234612226212    -0.361604676404     0.575227609297    12.000000000000
         C           -1.301479634420    -0.288864786580     0.251100828690    12.000000000000
         C            2.611820629783     0.189763392019     0.085208321369    12.000000000000
         H            0.059746844091     1.270629979127    -0.241933539501     1.007825032230
         H            0.171383956967    -0.143178573176    -1.286552567231     1.007825032230
         H            1.235376192584    -1.458882232003     0.520953340763     1.007825032230
         H            1.104476229609    -0.100840032594     1.630704835046     1.007825032230
         H           -1.333524510054    -1.387492716125     0.243935088756     1.007825032230
         H           -1.441612239896     0.056734799538     1.292008682716     1.007825032230
         H            2.614628262134     0.325622464458    -1.007866712241     1.007825032230
         H            3.436899598332    -0.493791793415     0.318282673924     1.007825032230
         H            2.828170770441     1.158819313665     0.542673443227     1.007825032230
         H           -3.151764968039     0.265385147324    -0.148672637287     1.007825032230

  Nuclear repulsion =  183.925824402707661
  Reference energy  = -232.139579657109749

  ==> Basis Set <==

  Basis Set: 6-31G*
    Blend: 6-31G*
    Number of shells: 50
    Number of basis function: 95
    Number of Cartesian functions: 95
    Spherical Harmonics?: false
    Max angular momentum: 2

  ==> CGRSolver (by Rob Parrish) <==

   Number of roots    =         1
   Preconditioning    =    JACOBI
   Convergence cutoff =     1E-06
   Maximum iterations =       100

  ==> CPHFRHamiltonian (by Rob Parrish) <== 

  ==> MemDFJK: Density-Fitted J/K Matrices <==

    J tasked:                   Yes
    K tasked:                   Yes
    wK tasked:                   No
    OpenMP threads:               8
    Memory [MiB]:               500
    Algorithm:                 Core
    Schwarz Cutoff:           1E-12
    Mask sparsity (%):       4.2992
    Fitting Condition:        1E-10

   => Auxiliary Basis Set <=

  Basis Set: (6-31G* AUX)
    Blend: CC-PVDZ-JKFIT
    Number of shells: 210
    Number of basis function: 655
    Number of Cartesian functions: 655
    Spherical Harmonics?: false
    Max angular momentum: 3

  ==> CPHF Iterations <==

  => Iterations <=

             Iter  Converged  Remaining    Residual
  CGR           1          0          1   8.328E-02
  CGR           2          0          1   1.700E-02
  CGR           3          0          1   5.592E-03
  CGR           4          0          1   8.995E-04
  CGR           5          0          1   3.162E-04
  CGR           6          0          1   8.952E-05
  CGR           7          0          1   1.946E-05
  CGR           8          0          1   5.102E-06
  CGR           9          0          1   1.330E-06
  CGR          10          1          0   5.039E-07

    CGRSolver converged.

  ==> DFCorrGrad: Density-Fitted Correlated Gradients <==

    OpenMP threads:              8
    Integrals threads:           8
    Memory [GiB]:            0.489
    Schwarz Cutoff:          0E+00
    Fitting Condition:       1E-10

   => Auxiliary Basis Set <=

  Basis Set: (6-31G* AUX)
    Blend: CC-PVDZ-JKFIT
    Number of shells: 210
    Number of basis function: 655
    Number of Cartesian functions: 655
    Spherical Harmonics?: false
    Max angular momentum: 3

	-----------------------------------------------------------
	 ==================> DF-MP2 Energies <==================== 
	-----------------------------------------------------------
	 Reference Energy          =    -232.1395796571097492 [Eh]
	 Singles Energy            =      -0.0000000000000000 [Eh]
	 Same-Spin Energy          =      -0.1749220246557235 [Eh]
	 Opposite-Spin Energy      =      -0.5508119687836277 [Eh]
	 Correlation Energy        =      -0.7257339934393512 [Eh]
	 Total Energy              =    -232.8653136505490977 [Eh]
	-----------------------------------------------------------
	 ================> DF-SCS-MP2 Energies <================== 
	-----------------------------------------------------------
	 SCS Same-Spin Scale       =       0.3333333333333333 [-]
	 SCS Opposite-Spin Scale   =       1.2000000000000000 [-]
	 SCS Same-Spin Energy      =      -0.0583073415519078 [Eh]
	 SCS Opposite-Spin Energy  =      -0.6609743625403532 [Eh]
	 SCS Correlation Energy    =      -0.7192817040922611 [Eh]
	 SCS Total Energy          =    -232.8588613612020026 [Eh]
	-----------------------------------------------------------


  -Total Gradient:
     Atom            X                  Y                   Z
    ------   -----------------  -----------------  -----------------
       1        0.001378890163    -0.002949648942    -0.000858956252
       2       -0.003847351088    -0.001559046828     0.003662122069
       3       -0.009822448625    -0.002333402436     0.005757925485
       4       -0.002417061459    -0.000291114892    -0.004945725057
       5        0.011546125689     0.005277564621     0.002608628401
       6       -0.000456994613    -0.000354712578     0.000069922080
       7        0.000901775706    -0.001251459693    -0.001338231652
       8       -0.000291381932    -0.001770751868     0.000268833755
       9        0.000139399053     0.000776092880    -0.001052761804
      10        0.001335411399     0.000454520336    -0.002152205133
      11        0.001142757359     0.002250893809     0.003831257487
      12        0.001353106092     0.000948671718    -0.004862179807
      13        0.002849776899    -0.001607655789    -0.002797161268
      14        0.000514534070     0.000097270665     0.000885275200
      15       -0.004326538710     0.002312779000     0.000923256497


*** tstop() called on daniele-Precision-5750 at Thu May 27 10:46:30 2021
Module time:
	user time   =      15.73 seconds =       0.26 minutes
	system time =       0.21 seconds =       0.00 minutes
	total time  =          2 seconds =       0.03 minutes
Total time:
	user time   =      44.01 seconds =       0.73 minutes
	system time =       0.64 seconds =       0.01 minutes
	total time  =          7 seconds =       0.12 minutes

			-----------------------------------------
			 OPTKING 2.0: for geometry optimizations 
			  - R.A. King,  Bethel University        
			-----------------------------------------
	At level 1: Red. Int., RFO, no backsteps, dynamic trust

	Previous internal coordinate definitions found.
	---Fragment 1 Geometry and Gradient---
	 O          -4.3443956556        0.4649792575       -1.1717401640
	 C           0.1047458163        0.3312976826       -0.4564913906
	 C           2.3330789787       -0.6833338041        1.0870226414
	 C          -2.4594400669       -0.5458753339        0.4745117961
	 C           4.9356256791        0.3586008396        0.1610203910
	 H           0.1129051722        2.4011426673       -0.4571881302
	 H           0.3238687410       -0.2705682903       -2.4312319981
	 H           2.3345226659       -2.7568878678        0.9844591382
	 H           2.0871575860       -0.1905600441        3.0815855297
	 H          -2.5199961056       -2.6219812345        0.4609705101
	 H          -2.7242523125        0.1072132329        2.4415425620
	 H           4.9409313353        0.6153372781       -1.9045920571
	 H           6.4947989615       -0.9331312526        0.6014670842
	 H           5.3444681922        2.1898511317        1.0255041833
	 H          -5.9559726014        0.5015052462       -0.2809505668
	             0.0013788902       -0.0029496489       -0.0008589563
	            -0.0038473511       -0.0015590468        0.0036621221
	            -0.0098224486       -0.0023334024        0.0057579255
	            -0.0024170615       -0.0002911149       -0.0049457251
	             0.0115461257        0.0052775646        0.0026086284
	            -0.0004569946       -0.0003547126        0.0000699221
	             0.0009017757       -0.0012514597       -0.0013382317
	            -0.0002913819       -0.0017707519        0.0002688338
	             0.0001393991        0.0007760929       -0.0010527618
	             0.0013354114        0.0004545203       -0.0021522051
	             0.0011427574        0.0022508938        0.0038312575
	             0.0013531061        0.0009486717       -0.0048621798
	             0.0028497769       -0.0016076558       -0.0027971613
	             0.0005145341        0.0000972707        0.0008852752
	            -0.0043265387        0.0023127790        0.0009232565

	---Fragment 1 Intrafragment Coordinates---
	 - Coordinate -           - BOHR/RAD -       - ANG/DEG -
	 R(1,4)           =         2.699079	       1.428291
	 R(1,15)          =         1.841744	       0.974609
	 R(2,3)           =         2.894371	       1.531635
	 R(2,4)           =         2.865528	       1.516372
	 R(2,6)           =         2.069861	       1.095323
	 R(2,7)           =         2.076020	       1.098582
	 R(3,5)           =         2.952348	       1.562315
	 R(3,8)           =         2.076090	       1.098619
	 R(3,9)           =         2.069199	       1.094973
	 R(4,10)          =         2.077033	       1.099119
	 R(4,11)          =         2.089464	       1.105697
	 R(5,12)          =         2.081513	       1.101489
	 R(5,13)          =         2.072097	       1.096507
	 R(5,14)          =         2.065905	       1.093230
	 B(1,4,2)         =         1.888219	     108.186966
	 B(1,4,10)        =         1.928382	     110.488148
	 B(1,4,11)        =         1.948322	     111.630655
	 B(2,3,5)         =         1.968918	     112.810694
	 B(2,3,8)         =         1.901084	     108.924101
	 B(2,3,9)         =         1.916717	     109.819789
	 B(2,4,10)        =         1.907043	     109.265528
	 B(2,4,11)        =         1.900317	     108.880170
	 B(3,2,4)         =         1.991445	     114.101400
	 B(3,2,6)         =         1.925908	     110.346414
	 B(3,2,7)         =         1.901146	     108.927652
	 B(3,5,12)        =         1.935882	     110.917891
	 B(3,5,13)        =         1.956954	     112.125223
	 B(3,5,14)        =         1.934819	     110.856968
	 B(4,1,15)        =         1.900241	     108.875777
	 B(4,2,6)         =         1.885723	     108.043962
	 B(4,2,7)         =         1.890991	     108.345797
	 B(5,3,8)         =         1.913865	     109.656375
	 B(5,3,9)         =         1.899754	     108.847900
	 B(6,2,7)         =         1.864161	     106.808564
	 B(8,3,9)         =         1.860386	     106.592279
	 B(10,4,11)       =         1.891111	     108.352706
	 B(12,5,13)       =         1.860751	     106.613207
	 B(12,5,14)       =         1.881176	     107.783451
	 B(13,5,14)       =         1.890965	     108.344337
	 D(1,4,2,3)       =        -3.109061	    -178.136089
	 D(1,4,2,6)       =         1.025345	      58.747951
	 D(1,4,2,7)       =        -0.988222	     -56.620924
	 D(2,3,5,12)      =        -0.603583	     -34.582771
	 D(2,3,5,13)      =        -2.681672	    -153.648498
	 D(2,3,5,14)      =         1.485652	      85.121605
	 D(2,4,1,15)      =        -2.756465	    -157.933836
	 D(3,2,4,10)      =        -1.008764	     -57.797944
	 D(3,2,4,11)      =         1.053638	      60.369015
	 D(4,2,3,5)       =        -3.092990	    -177.215278
	 D(4,2,3,8)       =         1.060841	      60.781685
	 D(4,2,3,9)       =        -0.970516	     -55.606471
	 D(5,3,2,6)       =        -0.966185	     -55.358324
	 D(5,3,2,7)       =         1.074976	      61.591617
	 D(6,2,3,8)       =        -3.095540	    -177.361361
	 D(6,2,3,9)       =         1.156289	      66.250483
	 D(6,2,4,10)      =         3.125642	     179.086095
	 D(6,2,4,11)      =        -1.095141	     -62.746945
	 D(7,2,3,8)       =        -1.054378	     -60.411420
	 D(7,2,3,9)       =        -3.085735	    -176.799576
	 D(7,2,4,10)      =         1.112075	      63.717220
	 D(7,2,4,11)      =        -3.108708	    -178.115820
	 D(8,3,5,12)      =         1.518556	      87.006836
	 D(8,3,5,13)      =        -0.559533	     -32.058892
	 D(8,3,5,14)      =        -2.675394	    -153.288788
	 D(9,3,5,12)      =        -2.735625	    -156.739783
	 D(9,3,5,13)      =         1.469471	      84.194490
	 D(9,3,5,14)      =        -0.646390	     -37.035407
	 D(10,4,1,15)     =         1.439810	      82.495047
	 D(11,4,1,15)     =        -0.665892	     -38.152825

	Current energy   :      -232.8653136505

	Energy change for the previous step:
		Projected    :        -0.0313813893
		Actual       :        -0.0093258654

	Performing BFGS update.
	Previous computed or guess Hessian on step 1.
	Steps to be used in Hessian update: 1
	Taking RFO optimization step.
	Going to follow RFO solution 1.
	Using RFO vector 1.

	Determining step-restricting scale parameter for RS-RFO.
	Maximum step size allowed    0.50000

	 Iter      |step|        alpha        rfo_root  
	------------------------------------------------
	    0     0.58102       1.00000           1
	    1     0.51227       1.26562           1
	    2     0.50037       1.32134           1
	    3     0.50000       1.32311           1
	------------------------------------------------
	Norm of target step-size    0.50000
	Projected energy change by RFO approximation:         0.0021654633

	Back-transformation to cartesian coordinates...
	Could not converge backtransformation.
	Using first guess instead.

	--- Internal Coordinate Step in ANG or DEG, aJ/ANG or AJ/DEG ---
	 ---------------------------------------------------------------------------
	   Coordinate                Previous        Force       Change         New 
	   ----------                --------       ------       ------       ------
	    1 R(1,4)          =      1.428291    -0.014672    -0.000769     1.427522
	    2 R(1,15)         =      0.974609    -0.035247     0.001110     0.975718
	    3 R(2,3)          =      1.531635    -0.039435    -0.006222     1.525413
	    4 R(2,4)          =      1.516372    -0.008226    -0.001189     1.515183
	    5 R(2,6)          =      1.095323     0.002937     0.000831     1.096155
	    6 R(2,7)          =      1.098582    -0.014261    -0.002368     1.096214
	    7 R(3,5)          =      1.562315    -0.142591    -0.027698     1.534618
	    8 R(3,8)          =      1.098619    -0.014460    -0.002769     1.095850
	    9 R(3,9)          =      1.094973     0.006974     0.001562     1.096535
	   10 R(4,10)         =      1.099119     0.003948     0.000666     1.099784
	   11 R(4,11)         =      1.105697    -0.034318    -0.006237     1.099460
	   12 R(5,12)         =      1.101489    -0.040745    -0.001146     1.100343
	   13 R(5,13)         =      1.096507    -0.021025     0.004658     1.101165
	   14 R(5,14)         =      1.093230    -0.004601     0.006211     1.099440
	   15 B(1,4,2)        =    108.186966    -0.000237    -0.622765   107.564200
	   16 B(1,4,10)       =    110.488148     0.000057     0.106172   110.594320
	   17 B(1,4,11)       =    111.630655    -0.000020    -0.144660   111.485995
	   18 B(2,3,5)        =    112.810694    -0.000249    -0.621967   112.188727
	   19 B(2,3,8)        =    108.924101     0.000140     0.659998   109.584099
	   20 B(2,3,9)        =    109.819789     0.000025    -0.303054   109.516735
	   21 B(2,4,10)       =    109.265528     0.000141     0.626586   109.892114
	   22 B(2,4,11)       =    108.880170     0.000211     1.008846   109.889016
	   23 B(3,2,4)        =    114.101400    -0.000396    -1.266596   112.834804
	   24 B(3,2,6)        =    110.346414     0.000083     0.039668   110.386082
	   25 B(3,2,7)        =    108.927652     0.000171     0.832846   109.760498
	   26 B(3,5,12)       =    110.917891    -0.000097    -0.400538   110.517354
	   27 B(3,5,13)       =    112.125223    -0.000192    -0.848220   111.277003
	   28 B(3,5,14)       =    110.856968     0.000036     0.011343   110.868310
	   29 B(4,1,15)       =    108.875777    -0.000287    -1.604153   107.271625
	   30 B(4,2,6)        =    108.043962     0.000155     0.344641   108.388603
	   31 B(4,2,7)        =    108.345797     0.000081     0.138487   108.484284
	   32 B(5,3,8)        =    109.656375     0.000033     0.171394   109.827769
	   33 B(5,3,9)        =    108.847900     0.000111     0.233987   109.081888
	   34 B(6,2,7)        =    106.808564    -0.000078    -0.025397   106.783167
	   35 B(8,3,9)        =    106.592279    -0.000051    -0.116541   106.475738
	   36 B(10,4,11)      =    108.352706    -0.000144    -0.928764   107.423941
	   37 B(12,5,13)      =    106.613207     0.000198     1.186819   107.800027
	   38 B(12,5,14)      =    107.783451     0.000030     0.183909   107.967361
	   39 B(13,5,14)      =    108.344337     0.000040    -0.059193   108.285144
	   40 D(1,4,2,3)      =   -178.136089    -0.000007     0.232143  -177.903946
	   41 D(1,4,2,6)      =     58.747951     0.000003     0.781148    59.529099
	   42 D(1,4,2,7)      =    -56.620924    -0.000004     0.557408   -56.063516
	   43 D(2,3,5,12)     =    -34.582771    -0.000016    -8.899641   -43.482411
	   44 D(2,3,5,13)     =   -153.648498    -0.000029    -9.570265  -163.218763
	   45 D(2,3,5,14)     =     85.121605    -0.000016    -8.923812    76.197793
	   46 D(2,4,1,15)     =   -157.933836    -0.000018    -5.845566  -163.779402
	   47 D(3,2,4,10)     =    -57.797944    -0.000005     0.351095   -57.446849
	   48 D(3,2,4,11)     =     60.369015     0.000002     0.188793    60.557809
	   49 D(4,2,3,5)      =   -177.215278    -0.000003     0.211244  -177.004034
	   50 D(4,2,3,8)      =     60.781685     0.000002    -0.056454    60.725231
	   51 D(4,2,3,9)      =    -55.606471    -0.000005    -0.122061   -55.728532
	   52 D(5,3,2,6)      =    -55.358324    -0.000007    -0.203552   -55.561877
	   53 D(5,3,2,7)      =     61.591617     0.000005     0.286605    61.878221
	   54 D(6,2,3,8)      =   -177.361361    -0.000002    -0.471250  -177.832612
	   55 D(6,2,3,9)      =     66.250483    -0.000009    -0.536857    65.713625
	   56 D(6,2,4,10)     =    179.086095     0.000006     0.900101   179.986196
	   57 D(6,2,4,11)     =    -62.746945     0.000013     0.737798   -62.009147
	   58 D(7,2,3,8)      =    -60.411420     0.000011     0.018907   -60.392514
	   59 D(7,2,3,9)      =   -176.799576     0.000003    -0.046700  -176.846277
	   60 D(7,2,4,10)     =     63.717220    -0.000001     0.676361    64.393582
	   61 D(7,2,4,11)     =   -178.115820     0.000006     0.514059  -177.601761
	   62 D(8,3,5,12)     =     87.006836    -0.000008    -8.357095    78.649741
	   63 D(8,3,5,13)     =    -32.058892    -0.000021    -9.027719   -41.086611
	   64 D(8,3,5,14)     =   -153.288788    -0.000008    -8.381266  -161.670054
	   65 D(9,3,5,12)     =   -156.739783    -0.000003    -8.267596  -165.007379
	   66 D(9,3,5,13)     =     84.194490    -0.000016    -8.938221    75.256269
	   67 D(9,3,5,14)     =    -37.035407    -0.000003    -8.291768   -45.327175
	   68 D(10,4,1,15)    =     82.495047    -0.000032    -6.287224    76.207823
	   69 D(11,4,1,15)    =    -38.152825     0.000004    -5.090543   -43.243368
	 ---------------------------------------------------------------------------
	Successfully symmetrized geometry.

  ==> Convergence Check <==

  Measures of convergence in internal coordinates in au.
  Criteria marked as inactive (o), active & met (*), and active & unmet ( ).
  ---------------------------------------------------------------------------------------------
   Step     Total Energy     Delta E     MAX Force     RMS Force      MAX Disp      RMS Disp   
  ---------------------------------------------------------------------------------------------
    Convergence Criteria             o    2.50e-03 *    1.70e-03 *    1.00e-02 *    6.70e-03 *
  ---------------------------------------------------------------------------------------------
      2    -232.86531365   -9.33e-03 o    1.73e-02      2.76e-03      1.67e-01      6.00e-02    ~
  ---------------------------------------------------------------------------------------------

	Writing optimization data to binary file.
	Structure for next step:
	Cartesian Geometry (in Angstrom)
	    O    -2.2787636275   0.2885267756  -0.5949839201
	    C     0.0683289340   0.2026013474  -0.2445237820
	    C     1.2334045470  -0.3726441222   0.5545852838
	    C    -1.2800947286  -0.2737825188   0.2560674317
	    C     2.5866974491   0.1761229185   0.0828820638
	    H     0.0837092102   1.2980154759  -0.2072943015
	    H     0.1670651246  -0.0796879096  -1.2991562509
	    H     1.2280134955  -1.4657136486   0.4767601895
	    H     1.1012124214  -0.1358601664   1.6170579590
	    H    -1.3225378289  -1.3724108173   0.2288676517
	    H    -1.4214355418   0.0353592313   1.3016611071
	    H     2.6336390815   0.1940200050  -1.0163138129
	    H     3.4189288008  -0.4472937731   0.4452452753
	    H     2.7411064775   1.2024256046   0.4456905160
	    H    -3.1340665560   0.2039934957  -0.1330990827
			--------------------------
			 OPTKING Finished Execution 
			--------------------------

    Structure for next step:
    Molecular point group: c1
    Full point group: C1

    Geometry (in Angstrom), charge = 0, multiplicity = 1:

    O           -2.284029281051     0.277308919977    -0.596946633636
    C            0.063063289680     0.191383491418    -0.246486494162
    C            1.228138907230    -0.383861980454     0.552622574720
    C           -1.285360378279    -0.285000376585     0.254104721459
    C            2.581431814595     0.164905062411     0.080919352902
    H            0.078443565929     1.286797624205    -0.209257013534
    H            0.161799480669    -0.090905766622    -1.301118967191
    H            1.222747855695    -1.476931511155     0.474797480127
    H            1.095946781066    -0.147078023650     1.615095254150
    H           -1.327803478763    -1.383628679406     0.226904941343
    H           -1.426701192061     0.024141374706     1.299698400962
    H            2.628373447232     0.182802149033    -1.018276528135
    H            3.413663169571    -0.458511631612     0.443282565822
    H            2.735840843640     1.191207752522     0.443727806487
    H           -3.139332212996     0.192775639758    -0.135061794452

gradient() will perform analytic gradient computation.
    SCF Algorithm Type (re)set to DF.

*** tstart() called on daniele-Precision-5750
*** at Thu May 27 10:46:30 2021

   => Loading Basis Set <=

    Name: 6-31G*
    Role: ORBITAL
    Keyword: BASIS
    atoms 1    entry O          line   145 file /home/daniele/anaconda3/envs/poltype/share/psi4/basis/6-31gs.gbs 
    atoms 2-5  entry C          line   111 file /home/daniele/anaconda3/envs/poltype/share/psi4/basis/6-31gs.gbs 
    atoms 6-15 entry H          line    44 file /home/daniele/anaconda3/envs/poltype/share/psi4/basis/6-31gs.gbs 


         ---------------------------------------------------------
                                   SCF
               by Justin Turney, Rob Parrish, Andy Simmonett
                          and Daniel G. A. Smith
                              RHF Reference
                        8 Threads,    667 MiB Core
         ---------------------------------------------------------

  ==> Geometry <==

    Molecular point group: c1
    Full point group: C1

    Geometry (in Angstrom), charge = 0, multiplicity = 1:

       Center              X                  Y                   Z               Mass       
    ------------   -----------------  -----------------  -----------------  -----------------
         O           -2.284029281051     0.277308919977    -0.596946633636    15.994914619570
         C            0.063063289680     0.191383491418    -0.246486494162    12.000000000000
         C            1.228138907230    -0.383861980454     0.552622574720    12.000000000000
         C           -1.285360378279    -0.285000376585     0.254104721459    12.000000000000
         C            2.581431814595     0.164905062411     0.080919352902    12.000000000000
         H            0.078443565929     1.286797624205    -0.209257013534     1.007825032230
         H            0.161799480669    -0.090905766622    -1.301118967191     1.007825032230
         H            1.222747855695    -1.476931511155     0.474797480127     1.007825032230
         H            1.095946781066    -0.147078023650     1.615095254150     1.007825032230
         H           -1.327803478763    -1.383628679406     0.226904941343     1.007825032230
         H           -1.426701192061     0.024141374706     1.299698400962     1.007825032230
         H            2.628373447232     0.182802149033    -1.018276528135     1.007825032230
         H            3.413663169571    -0.458511631612     0.443282565822     1.007825032230
         H            2.735840843640     1.191207752522     0.443727806487     1.007825032230
         H           -3.139332212996     0.192775639758    -0.135061794452     1.007825032230

  Running in c1 symmetry.

  Rotational constants: A =      0.61765  B =      0.06629  C =      0.06272 [cm^-1]
  Rotational constants: A =  18516.72049  B =   1987.42020  C =   1880.16603 [MHz]
  Nuclear repulsion =  184.926470651310467

  Charge       = 0
  Multiplicity = 1
  Electrons    = 42
  Nalpha       = 21
  Nbeta        = 21

  ==> Algorithm <==

  SCF Algorithm Type is DF.
  DIIS enabled.
  MOM disabled.
  Fractional occupation disabled.
  Guess Type is READ.
  Energy threshold   = 1.00e-10
  Density threshold  = 1.00e-10
  Integral threshold = 0.00e+00

  ==> Primary Basis <==

  Basis Set: 6-31G*
    Blend: 6-31G*
    Number of shells: 50
    Number of basis function: 95
    Number of Cartesian functions: 95
    Spherical Harmonics?: false
    Max angular momentum: 2

   => Loading Basis Set <=

    Name: (6-31G* AUX)
    Role: JKFIT
    Keyword: DF_BASIS_SCF
    atoms 1    entry O          line   221 file /home/daniele/anaconda3/envs/poltype/share/psi4/basis/cc-pvdz-jkfit.gbs 
    atoms 2-5  entry C          line   121 file /home/daniele/anaconda3/envs/poltype/share/psi4/basis/cc-pvdz-jkfit.gbs 
    atoms 6-15 entry H          line    51 file /home/daniele/anaconda3/envs/poltype/share/psi4/basis/cc-pvdz-jkfit.gbs 

   => Loading Basis Set <=

    Name: 6-31G*
    Role: ORBITAL
    Keyword: BASIS
    atoms 1    entry O          line   145 file /home/daniele/anaconda3/envs/poltype/share/psi4/basis/6-31gs.gbs 
    atoms 2-5  entry C          line   111 file /home/daniele/anaconda3/envs/poltype/share/psi4/basis/6-31gs.gbs 
    atoms 6-15 entry H          line    44 file /home/daniele/anaconda3/envs/poltype/share/psi4/basis/6-31gs.gbs 

  Reading orbitals from file 180, no projection.

  ==> Pre-Iterations <==

   -------------------------------------------------------
    Irrep   Nso     Nmo     Nalpha   Nbeta   Ndocc  Nsocc
   -------------------------------------------------------
     A         95      95       0       0       0       0
   -------------------------------------------------------
    Total      95      95      21      21      21       0
   -------------------------------------------------------

  ==> Integral Setup <==

  DFHelper Memory: AOs need 0.048 GiB; user supplied 0.489 GiB. Using in-core AOs.

  ==> MemDFJK: Density-Fitted J/K Matrices <==

    J tasked:                   Yes
    K tasked:                   Yes
    wK tasked:                   No
    OpenMP threads:               8
    Memory [MiB]:               500
    Algorithm:                 Core
    Schwarz Cutoff:           1E-12
    Mask sparsity (%):       4.2548
    Fitting Condition:        1E-10

   => Auxiliary Basis Set <=

  Basis Set: (6-31G* AUX)
    Blend: CC-PVDZ-JKFIT
    Number of shells: 210
    Number of basis function: 655
    Number of Cartesian functions: 655
    Spherical Harmonics?: false
    Max angular momentum: 3

  Minimum eigenvalue in the overlap matrix is 3.6054304403E-03.
  Using Symmetric Orthogonalization.

  SCF Guess: Orbitals guess was supplied from a previous computation.

  ==> Iterations <==

                           Total Energy        Delta E     RMS |[F,P]|

   @DF-RHF iter   0:  -232.13548077120075   -2.32135e+02   1.13650e-03 
   @DF-RHF iter   1:  -232.14060794743369   -5.12718e-03   2.73874e-04 DIIS
   @DF-RHF iter   2:  -232.14128610744854   -6.78160e-04   1.00846e-04 DIIS
   @DF-RHF iter   3:  -232.14140651684664   -1.20409e-04   2.91624e-05 DIIS
   @DF-RHF iter   4:  -232.14141398243370   -7.46559e-06   8.84559e-06 DIIS
   @DF-RHF iter   5:  -232.14141516013211   -1.17770e-06   3.10197e-06 DIIS
   @DF-RHF iter   6:  -232.14141528147275   -1.21341e-07   1.16126e-06 DIIS
   @DF-RHF iter   7:  -232.14141529476166   -1.32889e-08   2.44623e-07 DIIS
   @DF-RHF iter   8:  -232.14141529546134   -6.99686e-10   3.36866e-08 DIIS
   @DF-RHF iter   9:  -232.14141529547334   -1.19940e-11   9.23893e-09 DIIS
   @DF-RHF iter  10:  -232.14141529547402   -6.82121e-13   3.07891e-09 DIIS
   @DF-RHF iter  11:  -232.14141529547422   -1.98952e-13   9.74553e-10 DIIS
[...]
	-----------------------------------------------------------
	 Reference Energy          =    -232.1433311682391434 [Eh]
	 Singles Energy            =      -0.0000000000000000 [Eh]
	 Same-Spin Energy          =      -0.1752555423048375 [Eh]
	 Opposite-Spin Energy      =      -0.5503138142566342 [Eh]
	 Correlation Energy        =      -0.7255693565614717 [Eh]
	 Total Energy              =    -232.8689005248006083 [Eh]
	-----------------------------------------------------------
	 ================> DF-SCS-MP2 Energies <================== 
	-----------------------------------------------------------
	 SCS Same-Spin Scale       =       0.3333333333333333 [-]
	 SCS Opposite-Spin Scale   =       1.2000000000000000 [-]
	 SCS Same-Spin Energy      =      -0.0584185141016125 [Eh]
	 SCS Opposite-Spin Energy  =      -0.6603765771079609 [Eh]
	 SCS Correlation Energy    =      -0.7187950912095734 [Eh]
	 SCS Total Energy          =    -232.8621262594487291 [Eh]
	-----------------------------------------------------------


  -Total Gradient:
     Atom            X                  Y                   Z
    ------   -----------------  -----------------  -----------------
       1       -0.000284860892     0.000043350039    -0.000161837745
       2       -0.000025412240     0.000000685461     0.000019971624
       3        0.000019525520    -0.000011201452     0.000000236171
       4        0.000282754789    -0.000105570623     0.000198773589
       5        0.000022194196     0.000038981128    -0.000009141824
       6        0.000019644777    -0.000007767902     0.000010671210
       7       -0.000018326129    -0.000002376142     0.000003353817
       8       -0.000022124141    -0.000014882777    -0.000017058844
       9        0.000010973501    -0.000021648883    -0.000031994902
      10        0.000006707158     0.000012872379    -0.000022182260
      11       -0.000037479492     0.000024424015    -0.000014027690
      12       -0.000021084502     0.000020635134     0.000086507792
      13       -0.000016505293     0.000028952511    -0.000014068558
      14        0.000020786322    -0.000054314632    -0.000034912644
      15        0.000043206435     0.000047861744    -0.000014289736


*** tstop() called on daniele-Precision-5750 at Thu May 27 10:46:43 2021
Module time:
	user time   =      15.77 seconds =       0.26 minutes
	system time =       0.25 seconds =       0.00 minutes
	total time  =          2 seconds =       0.03 minutes
Total time:
	user time   =     148.08 seconds =       2.47 minutes
	system time =       2.10 seconds =       0.04 minutes
	total time  =         20 seconds =       0.33 minutes

			-----------------------------------------
			 OPTKING 2.0: for geometry optimizations 
			  - R.A. King,  Bethel University        
			-----------------------------------------
	At level 1: Red. Int., RFO, no backsteps, dynamic trust

	Previous internal coordinate definitions found.
	---Fragment 1 Geometry and Gradient---
	 O          -4.3125920783        0.6758900692       -1.0401183384
	 C           0.1208778306        0.4046982797       -0.4323622600
	 C           2.3185934334       -0.7804730090        1.0063807777
	 C          -2.4272786481       -0.5499961475        0.4518638761
	 C           4.8758049743        0.1984814696        0.1088946388
	 H           0.1566663289        2.4638608834       -0.2188117380
	 H           0.2979426340        0.0082191919       -2.4568526600
	 H           2.2518038614       -2.8409731419        0.7909593293
	 H           2.1034847998       -0.3977781859        3.0320735918
	 H          -2.5255397388       -2.6146961458        0.2287220194
	 H          -2.6810676795       -0.1254038540        2.4711441341
	 H           5.1569238477       -0.2145580106       -1.8965276217
	 H           6.4285116038       -0.6685913410        1.1608667358
	 H           5.0060093935        2.2464458106        0.3550108579
	 H          -5.9513191105        0.0763192883       -0.4707475460
	            -0.0002848609        0.0000433500       -0.0001618377
	            -0.0000254122        0.0000006855        0.0000199716
	             0.0000195255       -0.0000112015        0.0000002362
	             0.0002827548       -0.0001055706        0.0001987736
	             0.0000221942        0.0000389811       -0.0000091418
	             0.0000196448       -0.0000077679        0.0000106712
	            -0.0000183261       -0.0000023761        0.0000033538
	            -0.0000221241       -0.0000148828       -0.0000170588
	             0.0000109735       -0.0000216489       -0.0000319949
	             0.0000067072        0.0000128724       -0.0000221823
	            -0.0000374795        0.0000244240       -0.0000140277
	            -0.0000210845        0.0000206351        0.0000865078
	            -0.0000165053        0.0000289525       -0.0000140686
	             0.0000207863       -0.0000543146       -0.0000349126
	             0.0000432064        0.0000478617       -0.0000142897

	---Fragment 1 Intrafragment Coordinates---
	 - Coordinate -           - BOHR/RAD -       - ANG/DEG -
	 R(1,4)           =         2.698743	       1.428113
	 R(1,15)          =         1.835509	       0.971310
	 R(2,3)           =         2.881764	       1.524964
	 R(2,4)           =         2.861188	       1.514076
	 R(2,6)           =         2.070516	       1.095670
	 R(2,7)           =         2.070534	       1.095679
	 R(3,5)           =         2.881521	       1.524835
	 R(3,8)           =         2.072807	       1.096882
	 R(3,9)           =         2.072718	       1.096835
	 R(4,10)          =         2.079046	       1.100184
	 R(4,11)          =         2.078985	       1.100152
	 R(5,12)          =         2.066724	       1.093663
	 R(5,13)          =         2.066243	       1.093408
	 R(5,14)          =         2.066805	       1.093706
	 B(1,4,2)         =         1.875217	     107.441996
	 B(1,4,10)        =         1.937731	     111.023797
	 B(1,4,11)        =         1.937904	     111.033697
	 B(2,3,5)         =         1.962295	     112.431244
	 B(2,3,8)         =         1.909606	     109.412339
	 B(2,3,9)         =         1.910121	     109.441890
	 B(2,4,10)        =         1.918022	     109.894591
	 B(2,4,11)        =         1.918499	     109.921878
	 B(3,2,4)         =         1.968903	     112.809812
	 B(3,2,6)         =         1.922328	     110.141270
	 B(3,2,7)         =         1.922168	     110.132137
	 B(3,5,12)        =         1.933753	     110.795890
	 B(3,5,13)        =         1.945234	     111.453718
	 B(3,5,14)        =         1.934199	     110.821442
	 B(4,1,15)        =         1.879501	     107.687482
	 B(4,2,6)         =         1.891633	     108.382583
	 B(4,2,7)         =         1.890659	     108.326793
	 B(5,3,8)         =         1.911281	     109.508338
	 B(5,3,9)         =         1.911097	     109.497767
	 B(6,2,7)         =         1.864818	     106.846199
	 B(8,3,9)         =         1.856428	     106.365494
	 B(10,4,11)       =         1.876850	     107.535603
	 B(12,5,13)       =         1.883825	     107.935204
	 B(12,5,14)       =         1.880745	     107.758752
	 B(13,5,14)       =         1.883723	     107.929393
	 D(1,4,2,3)       =        -3.134141	    -179.573051
	 D(1,4,2,6)       =         1.015638	      58.191761
	 D(1,4,2,7)       =        -1.001624	     -57.388839
	 D(2,3,5,12)      =        -1.044606	     -59.851534
	 D(2,3,5,13)      =         3.140520	     179.938551
	 D(2,3,5,14)      =         1.042288	      59.718714
	 D(2,4,1,15)      =        -3.135205	    -179.634016
	 D(3,2,4,10)      =        -1.023954	     -58.668270
	 D(3,2,4,11)      =         1.038371	      59.494247
	 D(4,2,3,5)       =        -3.138368	    -179.815268
	 D(4,2,3,8)       =         1.017155	      58.278676
	 D(4,2,3,9)       =        -1.010577	     -57.901816
	 D(5,3,2,6)       =        -1.022304	     -58.573720
	 D(5,3,2,7)       =         1.030115	      59.021237
	 D(6,2,3,8)       =         3.133219	     179.520224
	 D(6,2,3,9)       =         1.105487	      63.339731
	 D(6,2,4,10)      =         3.125824	     179.096542
	 D(6,2,4,11)      =        -1.095036	     -62.740941
	 D(7,2,3,8)       =        -1.097547	     -62.884819
	 D(7,2,3,9)       =        -3.125279	    -179.065312
	 D(7,2,4,10)      =         1.108562	      63.515942
	 D(7,2,4,11)      =        -3.112298	    -178.321541
	 D(8,3,5,12)      =         1.082104	      61.999982
	 D(8,3,5,13)      =        -1.015955	     -58.209934
	 D(8,3,5,14)      =        -3.114187	    -178.429770
	 D(9,3,5,12)      =         3.111342	     178.266754
	 D(9,3,5,13)      =         1.013283	      58.056838
	 D(9,3,5,14)      =        -1.084949	     -62.162998
	 D(10,4,1,15)     =         1.050253	      60.175037
	 D(11,4,1,15)     =        -1.036794	     -59.403915

	Current energy   :      -232.8689005248

	Energy change for the previous step:
		Projected    :         0.0000014796
		Actual       :        -0.0000070897

	Performing BFGS update.
	Previous computed or guess Hessian on step 1.
	Steps to be used in Hessian update: 6 5
	Taking RFO optimization step.
	Going to follow RFO solution 1.
	Using RFO vector 1.
	Norm of target step-size    0.02313
	Projected energy change by RFO approximation:        -0.0000049201

	Back-transformation to cartesian coordinates...
	Could not converge backtransformation.
	Using first guess instead.

	--- Internal Coordinate Step in ANG or DEG, aJ/ANG or AJ/DEG ---
	 ---------------------------------------------------------------------------
	   Coordinate                Previous        Force       Change         New 
	   ----------                --------       ------       ------       ------
	    1 R(1,4)          =      1.428113    -0.002534    -0.000434     1.427679
	    2 R(1,15)         =      0.971310     0.000483     0.000026     0.971336
	    3 R(2,3)          =      1.524964    -0.000048     0.000015     1.524980
	    4 R(2,4)          =      1.514076     0.000173     0.000038     1.514114
	    5 R(2,6)          =      1.095670     0.000052     0.000013     1.095683
	    6 R(2,7)          =      1.095679     0.000036     0.000005     1.095685
	    7 R(3,5)          =      1.524835    -0.000062     0.000039     1.524874
	    8 R(3,8)          =      1.096882    -0.000142    -0.000007     1.096875
	    9 R(3,9)          =      1.096835     0.000300     0.000052     1.096887
	   10 R(4,10)         =      1.100184     0.000088     0.000035     1.100219
	   11 R(4,11)         =      1.100152     0.000033     0.000070     1.100222
	   12 R(5,12)         =      1.093663     0.000749     0.000177     1.093840
	   13 R(5,13)         =      1.093408     0.000261     0.000088     1.093497
	   14 R(5,14)         =      1.093706     0.000467     0.000089     1.093795
	   15 B(1,4,2)        =    107.441996    -0.000003    -0.006193   107.435803
	   16 B(1,4,10)       =    111.023797     0.000002     0.028649   111.052446
	   17 B(1,4,11)       =    111.033697     0.000002     0.013022   111.046719
	   18 B(2,3,5)        =    112.431244    -0.000000     0.008653   112.439897
	   19 B(2,3,8)        =    109.412339     0.000001     0.011911   109.424250
	   20 B(2,3,9)        =    109.441890    -0.000001    -0.012752   109.429138
	   21 B(2,4,10)       =    109.894591     0.000002     0.000565   109.895156
	   22 B(2,4,11)       =    109.921878    -0.000001    -0.021936   109.899942
	   23 B(3,2,4)        =    112.809812    -0.000001    -0.000270   112.809542
	   24 B(3,2,6)        =    110.141270     0.000000    -0.006139   110.135132
	   25 B(3,2,7)        =    110.132137     0.000001     0.012893   110.145030
	   26 B(3,5,12)       =    110.795890     0.000002     0.011439   110.807330
	   27 B(3,5,13)       =    111.453718    -0.000001    -0.007337   111.446381
	   28 B(3,5,14)       =    110.821442    -0.000003    -0.018953   110.802488
	   29 B(4,1,15)       =    107.687482    -0.000003     0.004801   107.692282
	   30 B(4,2,6)        =    108.382583    -0.000000    -0.018258   108.364326
	   31 B(4,2,7)        =    108.326793     0.000001     0.013825   108.340618
	   32 B(5,3,8)        =    109.508338    -0.000002    -0.009297   109.499041
	   33 B(5,3,9)        =    109.497767     0.000001     0.004528   109.502295
	   34 B(6,2,7)        =    106.846199    -0.000000    -0.002323   106.843876
	   35 B(8,3,9)        =    106.365494     0.000000    -0.003741   106.361753
	   36 B(10,4,11)      =    107.535603    -0.000001    -0.014391   107.521212
	   37 B(12,5,13)      =    107.935204    -0.000000    -0.001319   107.933885
	   38 B(12,5,14)      =    107.758752     0.000002     0.014605   107.773356
	   39 B(13,5,14)      =    107.929393     0.000002     0.002498   107.931891
	   40 D(1,4,2,3)      =   -179.573051    -0.000001    -0.356634  -179.929685
	   41 D(1,4,2,6)      =     58.191761    -0.000000    -0.335769    57.855992
	   42 D(1,4,2,7)      =    -57.388839    -0.000000    -0.330707   -57.719547
	   43 D(2,3,5,12)     =    -59.851534    -0.000000     0.038564   -59.812970
	   44 D(2,3,5,13)     =    179.938551    -0.000000     0.037406   179.975956
	   45 D(2,3,5,14)     =     59.718714     0.000000     0.051963    59.770677
	   46 D(2,4,1,15)     =   -179.634016     0.000000    -0.408943  -180.042959
	   47 D(3,2,4,10)     =    -58.668270    -0.000000    -0.325338   -58.993607
	   48 D(3,2,4,11)     =     59.494247    -0.000000    -0.355854    59.138394
	   49 D(4,2,3,5)      =   -179.815268    -0.000000    -0.133936  -179.949203
	   50 D(4,2,3,8)      =     58.278676     0.000000    -0.136320    58.142357
	   51 D(4,2,3,9)      =    -57.901816     0.000000    -0.131350   -58.033166
	   52 D(5,3,2,6)      =    -58.573720    -0.000000    -0.161917   -58.735638
	   53 D(5,3,2,7)      =     59.021237    -0.000000    -0.160674    58.860563
	   54 D(6,2,3,8)      =    179.520224    -0.000000    -0.164301   179.355922
	   55 D(6,2,3,9)      =     63.339731    -0.000000    -0.159331    63.180400
	   56 D(6,2,4,10)     =    179.096542    -0.000000    -0.304473   178.792069
	   57 D(6,2,4,11)     =    -62.740941    -0.000000    -0.334989   -63.075930
	   58 D(7,2,3,8)      =    -62.884819    -0.000000    -0.163058   -63.047877
	   59 D(7,2,3,9)      =   -179.065312    -0.000000    -0.158088  -179.223399
	   60 D(7,2,4,10)     =     63.515942     0.000000    -0.299411    63.216531
	   61 D(7,2,4,11)     =   -178.321541    -0.000000    -0.329927  -178.651468
	   62 D(8,3,5,12)     =     61.999982     0.000000     0.053008    62.052990
	   63 D(8,3,5,13)     =    -58.209934     0.000000     0.051850   -58.158084
	   64 D(8,3,5,14)     =   -178.429770     0.000000     0.066407  -178.363363
	   65 D(9,3,5,12)     =    178.266754     0.000000     0.045787   178.312541
	   66 D(9,3,5,13)     =     58.056838     0.000000     0.044629    58.101467
	   67 D(9,3,5,14)     =    -62.162998     0.000000     0.059187   -62.103811
	   68 D(10,4,1,15)    =     60.175037    -0.000000    -0.422571    59.752467
	   69 D(11,4,1,15)    =    -59.403915    -0.000001    -0.431988   -59.835902
	 ---------------------------------------------------------------------------
	Successfully symmetrized geometry.

  ==> Convergence Check <==

  Measures of convergence in internal coordinates in au.
  Criteria marked as inactive (o), active & met (*), and active & unmet ( ).
  ---------------------------------------------------------------------------------------------
   Step     Total Energy     Delta E     MAX Force     RMS Force      MAX Disp      RMS Disp   
  ---------------------------------------------------------------------------------------------
    Convergence Criteria             o    2.50e-03 *    1.70e-03 *    1.00e-02 *    6.70e-03 *
  ---------------------------------------------------------------------------------------------
      7    -232.86890052   -7.09e-06 o    3.08e-04 *    4.33e-05 *    7.54e-03 *    2.79e-03 *  ~
  ---------------------------------------------------------------------------------------------


  **** Optimization is complete! (in 7 steps) ****

  ==> Optimization Summary <==

  Measures of convergence in internal coordinates in au.
  --------------------------------------------------------------------------------------------------------------- ~
   Step         Total Energy             Delta E       MAX Force       RMS Force        MAX Disp        RMS Disp  ~
  --------------------------------------------------------------------------------------------------------------- ~
      1    -232.855987785194   -232.855987785194      0.02473115      0.00777263      0.11394015      0.05117777  ~
      2    -232.865313650549     -0.009325865355      0.01730739      0.00276098      0.16703264      0.05996281  ~
      3    -232.867425121666     -0.002111471117      0.00530317      0.00127913      0.15815280      0.06021555  ~
      4    -232.868372718381     -0.000947596715      0.00640722      0.00133570      0.14442685      0.05633017  ~
      5    -232.868725482456     -0.000352764075      0.00608218      0.00124281      0.05244985      0.01392113  ~
      6    -232.868893435085     -0.000167952628      0.00061384      0.00015985      0.01158917      0.00468571  ~
      7    -232.868900524801     -0.000007089716      0.00030762      0.00004330      0.00753960      0.00278518  ~
  --------------------------------------------------------------------------------------------------------------- ~

	Writing optimization data to binary file.
	Final energy is   -232.8689005248006
	Final (previous) structure:
	Cartesian Geometry (in Angstrom)
	    O    -2.2821254378   0.3576656201  -0.5504069189
	    C     0.0639657930   0.2141571060  -0.2287962538
	    C     1.2269468009  -0.4130085283   0.5325537707
	    C    -1.2844605395  -0.2910454260   0.2391160646
	    C     2.5801648659   0.1050318700   0.0576245610
	    H     0.0829042506   1.3038190246  -0.1157901847
	    H     0.1576644514   0.0043494090  -1.3001104325
	    H     1.1916032817  -1.5033782369   0.4185576500
	    H     1.1131162146  -0.2104951501   1.6045042395
	    H    -1.3364580692  -1.3836376077   0.1210344798
	    H    -1.4187599107  -0.0663608614   1.3076731549
	    H     2.7289265667  -0.1135392091  -1.0035991929
	    H     3.4018218259  -0.3538032995   0.6143042188
	    H     2.6490660771   1.1887679233   0.1878636548
	    H    -3.1493024343   0.0403864280  -0.2491088723
	Saving final (previous) structure.
			--------------------------
			 OPTKING Finished Execution 
			--------------------------

    Final optimized geometry and variables:
    Molecular point group: c1
    Full point group: C1

    Geometry (in Angstrom), charge = 0, multiplicity = 1:

    O           -2.282125446741     0.357665621530    -0.550406921071
    C            0.063965793203     0.214157106825    -0.228796254732
    C            1.226946805740    -0.413008529894     0.532553772829
    C           -1.284460544526    -0.291045427193     0.239116065563
    C            2.580164876062     0.105031870455     0.057624561227
    H            0.082904250920     1.303819029745    -0.115790185182
    H            0.157664451981     0.004349409022    -1.300110437657
    H            1.191603286350    -1.503378242821     0.418557651617
    H            1.113116219025    -0.210495150884     1.604504245846
    H           -1.336458074411    -1.383637613184     0.121034480265
    H           -1.418759916238    -0.066360861645     1.307673160036
    H            2.728926577385    -0.113539209583    -1.003599196816
    H            3.401821839251    -0.353803300885     0.614304221202
    H            2.649066087464     1.188767927961     0.187863655559
    H           -3.149302446710     0.040386428123    -0.249108873316

	Removing binary optimization data file.
	Cleaning optimization helper files.

    Psi4 stopped on: Thursday, 27 May 2021 10:46AM
    Psi4 wall time for execution: 0:00:20.13

*** Psi4 exiting successfully. Buy a developer a beer!
