
    -----------------------------------------------------------------------
          Psi4: An Open-Source Ab Initio Electronic Structure Package
                               Psi4 1.3.2 release

                         Git: Rev {HEAD} ecbda83 


    R. M. Parrish, L. A. Burns, D. G. A. Smith, A. C. Simmonett,
    A. E. DePrince III, E. G. Hohenstein, U. Bozkaya, A. Yu. Sokolov,
    R. Di Remigio, R. M. Richard, J. F. Gonthier, A. M. James,
    H. R. McAlexander, A. Kumar, M. Saitow, X. Wang, B. P. Pritchard,
    P. Verma, H. F. Schaefer III, K. Patkowski, R. A. King, E. F. Valeev,
    F. A. Evangelista, J. M. Turney, T. D. Crawford, and C. D. Sherrill,
    J. Chem. Theory Comput. 13(7) pp 3185--3197 (2017).
    (doi: 10.1021/acs.jctc.7b00174)


                         Additional Contributions by
    P. Kraus, H. Kruse, M. H. Lechner, M. C. Schieber, R. A. Shaw,
    A. Alenaizan, R. Galvelis, Z. L. Glick, S. Lehtola, and J. P. Misiewicz

    -----------------------------------------------------------------------


    Psi4 started on: Wednesday, 01 April 2020 06:14PM

    Process ID: 31304
    Host:       node37.bme.utexas.edu
    PSIDATADIR: /home/bdw2292/miniconda3/envs/p4env/share/psi4
    Memory:     500.0 MiB
    Threads:    1
    
  ==> Input File <==

--------------------------------------------------------------------------
molecule { 
0 1
P            0.076841190826    -0.045011195896    -0.383145987314
O            1.296605108164     0.689088098096     0.342370112566
O           -0.512129908448    -0.905027729164     0.845780375692
O           -0.940934753666     1.162239501963    -0.595660548080
O            0.346529585859    -0.811581082069    -1.606283164122
C            2.415480568258    -0.096639881587     0.757608758996
C           -1.471623387436    -1.922490902827     0.551595869788
C           -1.293446594222     2.012749929349     0.496914353216
H            2.812871278381    -0.669963777699    -0.084577989523
H            2.122281661029    -0.772460356089     1.566310538917
H            3.169451597461     0.604186588517     1.116673095837
H           -2.396542385608    -1.478943705430     0.168437738883
H           -1.675885445352    -2.435167052644     1.492200331663
H           -1.072517385701    -2.625122481101    -0.183811202012
H           -1.646312592870     1.423265989913     1.348485055338
H           -2.094889829895     2.658681375731     0.137484939093
H           -0.434086285942     2.616755603631     0.798612629981
}
memory 20GB
set_num_threads(4)
psi4_io.set_default_path("/scratch/bdw2292")
set freeze_core True
set PROPERTIES_ORIGIN ["COM"]
E, wfn = properties('mp2/6-311++G(2d,2p)',properties=['dipole'],return_wfn=True)
oeprop(wfn,"GRID_ESP","WIBERG_LOWDIN_INDICES")
clean()
--------------------------------------------------------------------------

  Memory set to  18.626 GiB by Python driver.
  Threads set to 4 by Python driver.
    SCF Algorithm Type (re)set to DF.

*** tstart() called on node37.bme.utexas.edu
*** at Wed Apr  1 18:14:58 2020

   => Loading Basis Set <=

    Name: 6-311++G(2D,2P)
    Role: ORBITAL
    Keyword: BASIS
    atoms 1    entry P          line   409 file /home/bdw2292/miniconda3/envs/p4env/share/psi4/basis/6-311ppg_2d_2p_.gbs 
    atoms 2-5  entry O          line   176 file /home/bdw2292/miniconda3/envs/p4env/share/psi4/basis/6-311ppg_2d_2p_.gbs 
    atoms 6-8  entry C          line   130 file /home/bdw2292/miniconda3/envs/p4env/share/psi4/basis/6-311ppg_2d_2p_.gbs 
    atoms 9-17 entry H          line    45 file /home/bdw2292/miniconda3/envs/p4env/share/psi4/basis/6-311ppg_2d_2p_.gbs 


         ---------------------------------------------------------
                                   SCF
               by Justin Turney, Rob Parrish, Andy Simmonett
                          and Daniel G. A. Smith
                              RHF Reference
                        4 Threads,  19073 MiB Core
         ---------------------------------------------------------

  ==> Geometry <==

    Molecular point group: c1
    Full point group: C1

    Geometry (in Angstrom), charge = 0, multiplicity = 1:

       Center              X                  Y                   Z               Mass       
    ------------   -----------------  -----------------  -----------------  -----------------
         P            0.076841190826    -0.045011195896    -0.383145987314    30.973761998420
         O            1.296605108164     0.689088098096     0.342370112566    15.994914619570
         O           -0.512129908448    -0.905027729164     0.845780375692    15.994914619570
         O           -0.940934753666     1.162239501963    -0.595660548080    15.994914619570
         O            0.346529585859    -0.811581082069    -1.606283164122    15.994914619570
         C            2.415480568258    -0.096639881587     0.757608758996    12.000000000000
         C           -1.471623387436    -1.922490902827     0.551595869788    12.000000000000
         C           -1.293446594222     2.012749929349     0.496914353216    12.000000000000
         H            2.812871278381    -0.669963777699    -0.084577989523     1.007825032230
         H            2.122281661029    -0.772460356089     1.566310538917     1.007825032230
         H            3.169451597461     0.604186588517     1.116673095837     1.007825032230
         H           -2.396542385608    -1.478943705430     0.168437738883     1.007825032230
         H           -1.675885445352    -2.435167052644     1.492200331663     1.007825032230
         H           -1.072517385701    -2.625122481101    -0.183811202012     1.007825032230
         H           -1.646312592870     1.423265989913     1.348485055338     1.007825032230
         H           -2.094889829895     2.658681375731     0.137484939093     1.007825032230
         H           -0.434086285942     2.616755603631     0.798612629981     1.007825032230

  Running in c1 symmetry.

  Rotational constants: A =      0.06356  B =      0.05812  C =      0.04413 [cm^-1]
  Rotational constants: A =   1905.54276  B =   1742.39509  C =   1323.00456 [MHz]
  Nuclear repulsion =  550.911678287310110

  Charge       = 0
  Multiplicity = 1
  Electrons    = 74
  Nalpha       = 37
  Nbeta        = 37

  ==> Algorithm <==

  SCF Algorithm Type is DF.
  DIIS enabled.
  MOM disabled.
  Fractional occupation disabled.
  Guess Type is SAD.
  Energy threshold   = 1.00e-10
  Density threshold  = 1.00e-10
  Integral threshold = 0.00e+00

  ==> Primary Basis <==

  Basis Set: 6-311++G(2D,2P)
    Blend: 6-311++G(2D,2P)
    Number of shells: 146
    Number of basis function: 314
    Number of Cartesian functions: 330
    Spherical Harmonics?: true
    Max angular momentum: 2

   => Loading Basis Set <=

    Name: (6-311++G(2D,2P) AUX)
    Role: JKFIT
    Keyword: DF_BASIS_SCF
    atoms 1    entry P          line   644 file /home/bdw2292/miniconda3/envs/p4env/share/psi4/basis/aug-cc-pvtz-jkfit.gbs 
    atoms 2-5  entry O          line   286 file /home/bdw2292/miniconda3/envs/p4env/share/psi4/basis/aug-cc-pvtz-jkfit.gbs 
    atoms 6-8  entry C          line   162 file /home/bdw2292/miniconda3/envs/p4env/share/psi4/basis/aug-cc-pvtz-jkfit.gbs 
    atoms 9-17 entry H          line    70 file /home/bdw2292/miniconda3/envs/p4env/share/psi4/basis/aug-cc-pvtz-jkfit.gbs 

  ==> Pre-Iterations <==

   -------------------------------------------------------
    Irrep   Nso     Nmo     Nalpha   Nbeta   Ndocc  Nsocc
   -------------------------------------------------------
     A        314     314       0       0       0       0
   -------------------------------------------------------
    Total     314     314      37      37      37       0
   -------------------------------------------------------

  ==> Integral Setup <==

  DFHelper Memory: AOs need 0.901 GiB; user supplied 13.970 GiB. Using in-core AOs.

  ==> MemDFJK: Density-Fitted J/K Matrices <==

    J tasked:                   Yes
    K tasked:                   Yes
    wK tasked:                   No
    OpenMP threads:               4
    Memory [MiB]:             14305
    Algorithm:                 Core
    Schwarz Cutoff:           1E-12
    Mask sparsity (%):       8.4669
    Fitting Condition:        1E-10

   => Auxiliary Basis Set <=

  Basis Set: (6-311++G(2D,2P) AUX)
    Blend: AUG-CC-PVTZ-JKFIT
    Number of shells: 378
    Number of basis function: 1288
    Number of Cartesian functions: 1592
    Spherical Harmonics?: true
    Max angular momentum: 4

  Minimum eigenvalue in the overlap matrix is 8.0580687543E-05.
  Using Symmetric Orthogonalization.

  SCF Guess: Superposition of Atomic Densities via on-the-fly atomic UHF.

  ==> Iterations <==

                           Total Energy        Delta E     RMS |[F,P]|

   @DF-RHF iter SAD:  -758.29291732128149   -7.58293e+02   0.00000e+00 
   @DF-RHF iter   1:  -759.01637323397586   -7.23456e-01   2.41960e-03 DIIS
   @DF-RHF iter   2:  -759.19831942920837   -1.81946e-01   1.43777e-03 DIIS
   @DF-RHF iter   3:  -759.26732665099667   -6.90072e-02   2.54368e-04 DIIS
   @DF-RHF iter   4:  -759.27056268817364   -3.23604e-03   8.46717e-05 DIIS
   @DF-RHF iter   5:  -759.27092805821167   -3.65370e-04   2.48929e-05 DIIS
   @DF-RHF iter   6:  -759.27095812841162   -3.00702e-05   5.25760e-06 DIIS
   @DF-RHF iter   7:  -759.27096041721506   -2.28880e-06   1.50158e-06 DIIS
   @DF-RHF iter   8:  -759.27096058695111   -1.69736e-07   3.86764e-07 DIIS
   @DF-RHF iter   9:  -759.27096060304495   -1.60938e-08   1.36254e-07 DIIS
   @DF-RHF iter  10:  -759.27096060496172   -1.91676e-09   4.71067e-08 DIIS
   @DF-RHF iter  11:  -759.27096060514259   -1.80876e-10   1.61895e-08 DIIS
   @DF-RHF iter  12:  -759.27096060516078   -1.81899e-11   4.61109e-09 DIIS
   @DF-RHF iter  13:  -759.27096060516340   -2.61480e-12   1.26843e-09 DIIS
   @DF-RHF iter  14:  -759.27096060516533   -1.93268e-12   4.03559e-10 DIIS
   @DF-RHF iter  15:  -759.27096060516328    2.04636e-12   1.89468e-10 DIIS
   @DF-RHF iter  16:  -759.27096060516283    4.54747e-13   4.66706e-11 DIIS
  Energy and wave function converged.


  ==> Post-Iterations <==

    Orbital Energies [Eh]
    ---------------------

    Doubly Occupied:                                                      

       1A    -80.096037     2A    -20.595541     3A    -20.594632  
       4A    -20.594024     5A    -20.511822     6A    -11.294830  
       7A    -11.294481     8A    -11.293829     9A     -7.616277  
      10A     -5.515319    11A     -5.515073    12A     -5.514139  
      13A     -1.456900    14A     -1.387278    15A     -1.386743  
      16A     -1.298508    17A     -0.984965    18A     -0.955689  
      19A     -0.949887    20A     -0.789888    21A     -0.721556  
      22A     -0.718664    23A     -0.679258    24A     -0.666228  
      25A     -0.655333    26A     -0.633161    27A     -0.623232  
      28A     -0.619161    29A     -0.587318    30A     -0.540117  
      31A     -0.527902    32A     -0.516464    33A     -0.497934  
      34A     -0.492143    35A     -0.482312    36A     -0.465450  
      37A     -0.458833  

    Virtual:                                                              

      38A      0.035664    39A      0.047275    40A      0.049220  
      41A      0.064927    42A      0.073702    43A      0.079284  
      44A      0.085804    45A      0.090397    46A      0.100128  
      47A      0.106238    48A      0.131650    49A      0.135771  
      50A      0.139440    51A      0.146492    52A      0.150374  
      53A      0.163246    54A      0.171196    55A      0.176998  
      56A      0.184696    57A      0.186828    58A      0.194195  
      59A      0.207659    60A      0.210325    61A      0.214215  
      62A      0.220777    63A      0.254573    64A      0.265391  
      65A      0.277028    66A      0.283745    67A      0.288612  
      68A      0.293691    69A      0.299927    70A      0.318714  
      71A      0.325121    72A      0.325757    73A      0.333412  
      74A      0.350356    75A      0.364341    76A      0.376186  
      77A      0.385077    78A      0.389472    79A      0.390078  
      80A      0.400588    81A      0.403805    82A      0.411313  
      83A      0.413163    84A      0.425211    85A      0.431942  
      86A      0.438299    87A      0.445598    88A      0.459137  
      89A      0.465645    90A      0.468522    91A      0.479653  
      92A      0.500882    93A      0.510998    94A      0.530378  
      95A      0.537049    96A      0.564932    97A      0.575808  
      98A      0.598303    99A      0.609323   100A      0.624492  
     101A      0.636407   102A      0.649521   103A      0.680587  
     104A      0.688009   105A      0.701649   106A      0.719506  
     107A      0.722762   108A      0.734496   109A      0.743535  
     110A      0.752346   111A      0.760891   112A      0.771341  
     113A      0.776465   114A      0.783630   115A      0.798924  
     116A      0.818613   117A      0.835275   118A      0.859405  
     119A      0.869827   120A      0.889756   121A      0.943327  
     122A      0.948836   123A      0.964554   124A      0.990333  
     125A      1.001643   126A      1.022920   127A      1.061565  
     128A      1.063592   129A      1.072786   130A      1.090411  
     131A      1.133325   132A      1.144122   133A      1.179720  
     134A      1.191758   135A      1.204648   136A      1.206264  
     137A      1.227539   138A      1.236919   139A      1.247213  
     140A      1.261232   141A      1.275881   142A      1.279070  
     143A      1.281180   144A      1.310236   145A      1.320977  
     146A      1.335227   147A      1.339534   148A      1.360445  
     149A      1.370499   150A      1.375451   151A      1.414135  
     152A      1.426199   153A      1.444859   154A      1.455265  
     155A      1.463778   156A      1.471191   157A      1.497268  
     158A      1.511471   159A      1.527727   160A      1.538032  
     161A      1.547041   162A      1.553079   163A      1.556948  
     164A      1.559039   165A      1.570156   166A      1.589756  
     167A      1.593537   168A      1.611393   169A      1.639171  
     170A      1.655414   171A      1.662229   172A      1.673986  
     173A      1.675792   174A      1.684073   175A      1.694673  
     176A      1.724413   177A      1.763512   178A      1.790903  
     179A      1.796778   180A      1.813142   181A      1.877267  
     182A      1.910221   183A      1.952821   184A      1.961441  
     185A      1.973929   186A      2.039852   187A      2.067830  
     188A      2.091787   189A      2.101022   190A      2.141808  
     191A      2.161841   192A      2.198858   193A      2.231056  
     194A      2.303837   195A      2.325490   196A      2.348219  
     197A      2.370969   198A      2.402805   199A      2.435906  
     200A      2.460554   201A      2.533795   202A      2.585900  
     203A      2.634547   204A      2.705425   205A      2.731167  
     206A      2.822930   207A      2.860381   208A      2.940718  
     209A      2.958582   210A      2.981339   211A      3.009139  
     212A      3.043567   213A      3.106792   214A      3.134915  
     215A      3.167501   216A      3.215766   217A      3.356561  
     218A      3.366948   219A      3.372016   220A      3.498097  
     221A      3.504002   222A      3.515069   223A      3.543311  
     224A      3.578927   225A      3.598612   226A      3.668361  
     227A      3.677215   228A      3.701302   229A      3.721756  
     230A      3.734704   231A      3.749986   232A      3.803042  
     233A      3.810857   234A      3.832717   235A      3.953071  
     236A      3.960067   237A      3.965511   238A      3.981489  
     239A      3.996489   240A      4.023291   241A      4.049004  
     242A      4.072159   243A      4.080737   244A      4.162575  
     245A      4.170297   246A      4.183280   247A      4.308501  
     248A      4.326432   249A      4.342604   250A      4.350575  
     251A      4.361345   252A      4.368983   253A      4.454741  
     254A      4.460440   255A      4.468625   256A      4.473290  
     257A      4.489341   258A      4.511644   259A      4.520972  
     260A      4.526673   261A      4.554655   262A      4.768533  
     263A      4.775741   264A      4.781173   265A      5.413893  
     266A      5.416010   267A      5.416763   268A      5.435403  
     269A      5.440177   270A      5.441326   271A      5.587577  
     272A      5.610278   273A      5.624685   274A      5.628454  
     275A      5.634628   276A      5.664287   277A      5.718324  
     278A      5.779698   279A      5.879591   280A      6.095804  
     281A      6.105124   282A      6.120053   283A      7.378830  
     284A      7.382775   285A      7.398346   286A      7.403695  
     287A      7.410919   288A      7.510655   289A      7.514605  
     290A      7.528239   291A      7.555366   292A      7.599817  
     293A      7.609181   294A      7.670992   295A      7.735042  
     296A      7.763979   297A      7.802236   298A      7.901057  
     299A      7.958267   300A      8.030915   301A      8.053519  
     302A      8.147475   303A      8.262717   304A     15.137706  
     305A     15.159818   306A     15.266585   307A     25.103891  
     308A     25.107226   309A     25.111791   310A     51.681228  
     311A     51.684508   312A     51.700095   313A     51.748362  
     314A    166.760975  

    Final Occupation by Irrep:
              A 
    DOCC [    37 ]

  @DF-RHF Final Energy:  -759.27096060516283

   => Energetics <=

    Nuclear Repulsion Energy =            550.9116782873101101
    One-Electron Energy =               -2141.3034197810493424
    Two-Electron Energy =                 831.1207808885762915
    Total Energy =                       -759.2709606051628271

Computation Completed

*** tstop() called on node37.bme.utexas.edu at Wed Apr  1 18:15:15 2020
Module time:
	user time   =      59.23 seconds =       0.99 minutes
	system time =       3.92 seconds =       0.07 minutes
	total time  =         17 seconds =       0.28 minutes
Total time:
	user time   =      59.23 seconds =       0.99 minutes
	system time =       3.92 seconds =       0.07 minutes
	total time  =         17 seconds =       0.28 minutes
   => Loading Basis Set <=

    Name: (6-311++G(2D,2P) AUX)
    Role: RIFIT
    Keyword: DF_BASIS_MP2
    atoms 1    entry P          line   590 file /home/bdw2292/miniconda3/envs/p4env/share/psi4/basis/aug-cc-pvtz-ri.gbs 
    atoms 2-5  entry O          line   264 file /home/bdw2292/miniconda3/envs/p4env/share/psi4/basis/aug-cc-pvtz-ri.gbs 
    atoms 6-8  entry C          line   148 file /home/bdw2292/miniconda3/envs/p4env/share/psi4/basis/aug-cc-pvtz-ri.gbs 
    atoms 9-17 entry H          line    30 file /home/bdw2292/miniconda3/envs/p4env/share/psi4/basis/aug-cc-pvtz-ri.gbs 


*** tstart() called on node37.bme.utexas.edu
*** at Wed Apr  1 18:15:15 2020


  //>>>>>>>>>>>>>>>>>>>>>>>>>>>>>>>>>>>//
  //               DFMP2               //
  //<<<<<<<<<<<<<<<<<<<<<<<<<<<<<<<<<<<//

	 --------------------------------------------------------
	                          DF-MP2                         
	      2nd-Order Density-Fitted Moller-Plesset Theory     
	              RMP2 Wavefunction,   4 Threads             
	                                                         
	        Rob Parrish, Justin Turney, Andy Simmonett,      
	           Ed Hohenstein, and C. David Sherrill          
	 --------------------------------------------------------

   => Auxiliary Basis Set <=

  Basis Set: (6-311++G(2D,2P) AUX)
    Blend: AUG-CC-PVTZ-RI
    Number of shells: 359
    Number of basis function: 1303
    Number of Cartesian functions: 1638
    Spherical Harmonics?: true
    Max angular momentum: 4

	 --------------------------------------------------------
	                 NBF =   314, NAUX =  1303
	 --------------------------------------------------------
	   CLASS    FOCC     OCC    AOCC    AVIR     VIR    FVIR
	   PAIRS      12      37      25     277     277       0
	 --------------------------------------------------------

  DFHelper Memory: AOs need 0.901 GiB; user supplied 13.970 GiB. Using in-core AOs.


         ------------------------------------------------------------
                                     CPHF                           
                                  Rob Parrish                       
         ------------------------------------------------------------

  ==> Geometry <==

    Molecular point group: c1
    Full point group: C1

    Geometry (in Angstrom), charge = 0, multiplicity = 1:

       Center              X                  Y                   Z               Mass       
    ------------   -----------------  -----------------  -----------------  -----------------
         P            0.076841190826    -0.045011195896    -0.383145987314    30.973761998420
         O            1.296605108164     0.689088098096     0.342370112566    15.994914619570
         O           -0.512129908448    -0.905027729164     0.845780375692    15.994914619570
         O           -0.940934753666     1.162239501963    -0.595660548080    15.994914619570
         O            0.346529585859    -0.811581082069    -1.606283164122    15.994914619570
         C            2.415480568258    -0.096639881587     0.757608758996    12.000000000000
         C           -1.471623387436    -1.922490902827     0.551595869788    12.000000000000
         C           -1.293446594222     2.012749929349     0.496914353216    12.000000000000
         H            2.812871278381    -0.669963777699    -0.084577989523     1.007825032230
         H            2.122281661029    -0.772460356089     1.566310538917     1.007825032230
         H            3.169451597461     0.604186588517     1.116673095837     1.007825032230
         H           -2.396542385608    -1.478943705430     0.168437738883     1.007825032230
         H           -1.675885445352    -2.435167052644     1.492200331663     1.007825032230
         H           -1.072517385701    -2.625122481101    -0.183811202012     1.007825032230
         H           -1.646312592870     1.423265989913     1.348485055338     1.007825032230
         H           -2.094889829895     2.658681375731     0.137484939093     1.007825032230
         H           -0.434086285942     2.616755603631     0.798612629981     1.007825032230

  Nuclear repulsion =  550.911678287310110
  Reference energy  = -759.270960605162827

  ==> Basis Set <==

  Basis Set: 6-311++G(2D,2P)
    Blend: 6-311++G(2D,2P)
    Number of shells: 146
    Number of basis function: 314
    Number of Cartesian functions: 330
    Spherical Harmonics?: true
    Max angular momentum: 2

  ==> CGRSolver (by Rob Parrish) <==

   Number of roots    =         1
   Preconditioning    =    JACOBI
   Convergence cutoff =     1E-06
   Maximum iterations =       100

  ==> CPHFRHamiltonian (by Rob Parrish) <== 

  ==> MemDFJK: Density-Fitted J/K Matrices <==

    J tasked:                   Yes
    K tasked:                   Yes
    wK tasked:                   No
    OpenMP threads:               4
    Memory [MiB]:             14305
    Algorithm:                 Core
    Schwarz Cutoff:           1E-12
    Mask sparsity (%):       8.4669
    Fitting Condition:        1E-10

   => Auxiliary Basis Set <=

  Basis Set: (6-311++G(2D,2P) AUX)
    Blend: AUG-CC-PVTZ-JKFIT
    Number of shells: 378
    Number of basis function: 1288
    Number of Cartesian functions: 1592
    Spherical Harmonics?: true
    Max angular momentum: 4

  ==> CPHF Iterations <==

  => Iterations <=

             Iter  Converged  Remaining    Residual
  CGR           1          0          1   7.761E-02
  CGR           2          0          1   1.835E-02
  CGR           3          0          1   7.005E-03
  CGR           4          0          1   2.237E-03
  CGR           5          0          1   7.525E-04
  CGR           6          0          1   1.739E-04
  CGR           7          0          1   4.866E-05
  CGR           8          0          1   1.648E-05
  CGR           9          0          1   5.409E-06
  CGR          10          0          1   1.624E-06
  CGR          11          1          0   5.904E-07

    CGRSolver converged.

	-----------------------------------------------------------
	 ==================> DF-MP2 Energies <==================== 
	-----------------------------------------------------------
	 Reference Energy          =    -759.2709606051628271 [Eh]
	 Singles Energy            =      -0.0000000000000000 [Eh]
	 Same-Spin Energy          =      -0.3761887873497688 [Eh]
	 Opposite-Spin Energy      =      -1.0979607056699479 [Eh]
	 Correlation Energy        =      -1.4741494930197168 [Eh]
	 Total Energy              =    -760.7451100981825221 [Eh]
	-----------------------------------------------------------
	 ================> DF-SCS-MP2 Energies <================== 
	-----------------------------------------------------------
	 SCS Same-Spin Scale       =       0.3333333333333333 [-]
	 SCS Opposite-Spin Scale   =       1.2000000000000000 [-]
	 SCS Same-Spin Energy      =      -0.1253962624499229 [Eh]
	 SCS Opposite-Spin Energy  =      -1.3175528468039375 [Eh]
	 SCS Correlation Energy    =      -1.4429491092538604 [Eh]
	 SCS Total Energy          =    -760.7139097144166726 [Eh]
	-----------------------------------------------------------



Properties will be evaluated at  -0.000000,  -0.000000,   0.000000 [a0]

Properties computed using the MP2 density matrix

  Nuclear Dipole Moment: [e a0]
     X:    -1.2094      Y:    -0.5943      Z:     6.3098

  Electronic Dipole Moment: [e a0]
     X:     0.9648      Y:     0.7243      Z:    -4.8212

  Dipole Moment: [e a0]
     X:    -0.2446      Y:     0.1301      Z:     1.4886     Total:     1.5142

  Dipole Moment: [D]
     X:    -0.6216      Y:     0.3306      Z:     3.7837     Total:     3.8486


*** tstop() called on node37.bme.utexas.edu at Wed Apr  1 18:16:03 2020
Module time:
	user time   =     161.51 seconds =       2.69 minutes
	system time =      10.47 seconds =       0.17 minutes
	total time  =         48 seconds =       0.80 minutes
Total time:
	user time   =     221.15 seconds =       3.69 minutes
	system time =      14.41 seconds =       0.24 minutes
	total time  =         65 seconds =       1.08 minutes


Properties will be evaluated at  -0.000000,  -0.000000,   0.000000 [a0]
OEProp: No title given, name of density matrix used for the following properties is 'DF-MP2 relaxed density'


  Wiberg Bond Indices using Orthogonal Lowdin Orbitals:

  Irrep: 1 Size: 17 x 17

                 1                   2                   3                   4                   5

    1     0.00000000000000     1.19711694377256     1.16673020891534     1.21995230935794     2.03680393282400
    2     1.19711694377256     0.00000000000000     0.11387895002475     0.10838339769992     0.10530711111753
    3     1.16673020891534     0.11387895002475     0.00000000000000     0.09885239948226     0.11234273242735
    4     1.21995230935794     0.10838339769992     0.09885239948226     0.00000000000000     0.11695573384172
    5     2.03680393282400     0.10530711111753     0.11234273242735     0.11695573384172     0.00000000000000
    6     0.13620397049659     1.36936392794531     0.03709031232921     0.01768221854167     0.03430538913523
    7     0.13467462390237     0.01791691653542     1.37684606624541     0.02124032710296     0.04725732949617
    8     0.13404489379936     0.04481491283373     0.03690824838555     1.36690380771590     0.02155764514604
    9     0.02296658177934     0.09555202793026     0.00342467623272     0.00163174839099     0.01223757030031
   10     0.02079193454049     0.09480239089342     0.01429154655147     0.00153847234791     0.00298569503237
   11     0.01398465738688     0.09806702278378     0.00221831026723     0.00177113922335     0.00196140598253
   12     0.02066583806355     0.00162253260188     0.09693710069821     0.00561477331195     0.00480967375488
   13     0.01420514994433     0.00174807380911     0.09831887002030     0.00130119304503     0.00272461587813
   14     0.02268536981809     0.00153096559608     0.09386276558087     0.00203920211755     0.01809625208430
   15     0.02237208800739     0.00520279261374     0.01878703382975     0.09453857352179     0.00192309109255
   16     0.01369658046675     0.00273642227477     0.00206698895341     0.09758359492476     0.00212701442082
   17     0.01980511247594     0.01731833041003     0.00328638657936     0.09392502710905     0.00190442109716

                 6                   7                   8                   9                  10

    1     0.13620397049659     0.13467462390237     0.13404489379936     0.02296658177934     0.02079193454049
    2     1.36936392794531     0.01791691653542     0.04481491283373     0.09555202793026     0.09480239089342
    3     0.03709031232921     1.37684606624541     0.03690824838555     0.00342467623272     0.01429154655147
    4     0.01768221854167     0.02124032710296     1.36690380771590     0.00163174839099     0.00153847234791
    5     0.03430538913523     0.04725732949617     0.02155764514604     0.01223757030031     0.00298569503237
    6     0.00000000000000     0.00571185051642     0.00618580768259     0.89123865171382     0.89208256459465
    7     0.00571185051642     0.00000000000000     0.01001268718962     0.00068972244446     0.00258337859010
    8     0.00618580768259     0.01001268718962     0.00000000000000     0.00106150119869     0.00100351502438
    9     0.89123865171382     0.00068972244446     0.00106150119869     0.00000000000000     0.08395286723616
   10     0.89208256459465     0.00258337859010     0.00100351502438     0.08395286723616     0.00000000000000
   11     0.89975876532481     0.00038627121375     0.00063081501861     0.08629220157902     0.08614048624964
   12     0.00086468968994     0.89195090561352     0.00355954954389     0.00012227099935     0.00054261883670
   13     0.00057150772319     0.90019903497479     0.00076135593930     0.00003989225416     0.00026341563743
   14     0.00102978786219     0.89090204124806     0.00095298479046     0.00015093534406     0.00037749396571
   15     0.00090579869411     0.00524320579505     0.88614942019808     0.00015745831910     0.00016599352461
   16     0.00043891339054     0.00065161407432     0.89951780679170     0.00009390314900     0.00004644440116
   17     0.00258210755448     0.00082091510075     0.89104572763748     0.00059555413164     0.00032669195552

                11                  12                  13                  14                  15

    1     0.01398465738688     0.02066583806355     0.01420514994433     0.02268536981809     0.02237208800739
    2     0.09806702278378     0.00162253260188     0.00174807380911     0.00153096559608     0.00520279261374
    3     0.00221831026723     0.09693710069821     0.09831887002030     0.09386276558087     0.01878703382975
    4     0.00177113922335     0.00561477331195     0.00130119304503     0.00203920211755     0.09453857352179
    5     0.00196140598253     0.00480967375488     0.00272461587813     0.01809625208430     0.00192309109255
    6     0.89975876532481     0.00086468968994     0.00057150772319     0.00102978786219     0.00090579869411
    7     0.00038627121375     0.89195090561352     0.90019903497479     0.89090204124806     0.00524320579505
    8     0.00063081501861     0.00355954954389     0.00076135593930     0.00095298479046     0.88614942019808
    9     0.08629220157902     0.00012227099935     0.00003989225416     0.00015093534406     0.00015745831910
   10     0.08614048624964     0.00054261883670     0.00026341563743     0.00037749396571     0.00016599352461
   11     0.00000000000000     0.00007091015171     0.00003748332980     0.00004002133070     0.00005979695858
   12     0.00007091015171     0.00000000000000     0.08631142072661     0.08452511140498     0.00172766402936
   13     0.00003748332980     0.08631142072661     0.00000000000000     0.08565880852854     0.00042959166366
   14     0.00004002133070     0.08452511140498     0.08565880852854     0.00000000000000     0.00050191484818
   15     0.00005979695858     0.00172766402936     0.00042959166366     0.00050191484818     0.00000000000000
   16     0.00003993123356     0.00022755322560     0.00003127876855     0.00005400667655     0.08620099382059
   17     0.00027345579383     0.00017717405045     0.00003641699741     0.00010069082777     0.08430966678187

                16                  17

    1     0.01369658046675     0.01980511247594
    2     0.00273642227477     0.01731833041003
    3     0.00206698895341     0.00328638657936
    4     0.09758359492476     0.09392502710905
    5     0.00212701442082     0.00190442109716
    6     0.00043891339054     0.00258210755448
    7     0.00065161407432     0.00082091510075
    8     0.89951780679170     0.89104572763748
    9     0.00009390314900     0.00059555413164
   10     0.00004644440116     0.00032669195552
   11     0.00003993123356     0.00027345579383
   12     0.00022755322560     0.00017717405045
   13     0.00003127876855     0.00003641699741
   14     0.00005400667655     0.00010069082777
   15     0.08620099382059     0.08430966678187
   16     0.00000000000000     0.08617084714975
   17     0.08617084714975     0.00000000000000



  Atomic Valences: 

 #  #
 Irrep: 1
      1:  6.1967002
      2:  3.2753627
      3:  3.2758426
      4:  3.2499139
      5:  2.5232996
      6:  4.2960163
      7:  4.3070869
      8:  4.3051107
      9:  1.2002076
     10:  1.2018955
     11:  1.1917327
     12:  1.1997298
     13:  1.1926381
     14:  1.2025084
     15:  1.2086751
     16:  1.1916839
     17:  1.2026785


 Electrostatic potential computed on the grid and written to grid_esp.dat

    Psi4 stopped on: Wednesday, 01 April 2020 06:20PM
    Psi4 wall time for execution: 0:05:26.02

*** Psi4 exiting successfully. Buy a developer a beer!
