
    -----------------------------------------------------------------------
          Psi4: An Open-Source Ab Initio Electronic Structure Package
                               Psi4 1.3.2 release

                         Git: Rev {HEAD} ecbda83 


    R. M. Parrish, L. A. Burns, D. G. A. Smith, A. C. Simmonett,
    A. E. DePrince III, E. G. Hohenstein, U. Bozkaya, A. Yu. Sokolov,
    R. Di Remigio, R. M. Richard, J. F. Gonthier, A. M. James,
    H. R. McAlexander, A. Kumar, M. Saitow, X. Wang, B. P. Pritchard,
    P. Verma, H. F. Schaefer III, K. Patkowski, R. A. King, E. F. Valeev,
    F. A. Evangelista, J. M. Turney, T. D. Crawford, and C. D. Sherrill,
    J. Chem. Theory Comput. 13(7) pp 3185--3197 (2017).
    (doi: 10.1021/acs.jctc.7b00174)


                         Additional Contributions by
    P. Kraus, H. Kruse, M. H. Lechner, M. C. Schieber, R. A. Shaw,
    A. Alenaizan, R. Galvelis, Z. L. Glick, S. Lehtola, and J. P. Misiewicz

    -----------------------------------------------------------------------


    Psi4 started on: Wednesday, 01 April 2020 05:41PM

    Process ID: 42377
    Host:       node37.bme.utexas.edu
    PSIDATADIR: /home/bdw2292/miniconda3/envs/p4env/share/psi4
    Memory:     500.0 MiB
    Threads:    1
    
  ==> Input File <==

--------------------------------------------------------------------------
molecule { 
0 1
 P    0.134400   -0.066500   -0.429400
 O    1.366500    0.723500    0.265800
 O   -0.435000   -0.985300    0.777400
 O   -1.002800    1.067800   -0.645300
 O    0.499700   -0.824300   -1.674300
 C    2.486200   -0.025800    0.706000
 C   -1.609900   -1.745100    0.550700
 C   -1.439300    1.855700    0.449100
 H    2.910500   -0.589800   -0.128700
 H    2.187800   -0.709600    1.504700
 H    3.240800    0.664500    1.090800
 H   -2.441300   -1.089100    0.281500
 H   -1.862200   -2.282400    1.468100
 H   -1.434000   -2.468300   -0.249800
 H   -1.843600    1.221300    1.241300
 H   -2.225000    2.530700    0.101100
 H   -0.608200    2.450500    0.836600
}
set {
 geom_maxiter 400
}
memory 20GB
set_num_threads(4)
psi4_io.set_default_path("/scratch/bdw2292")
optimize('wb97x-d/6-31G*')
clean()
--------------------------------------------------------------------------

  Memory set to  18.626 GiB by Python driver.
  Threads set to 4 by Python driver.
gradient() will perform analytic gradient computation.

*** tstart() called on node37.bme.utexas.edu
*** at Wed Apr  1 17:41:08 2020

   => Loading Basis Set <=

    Name: 6-31G*
    Role: ORBITAL
    Keyword: BASIS
    atoms 1    entry P          line   292 file /home/bdw2292/miniconda3/envs/p4env/share/psi4/basis/6-31gs.gbs 
    atoms 2-5  entry O          line   145 file /home/bdw2292/miniconda3/envs/p4env/share/psi4/basis/6-31gs.gbs 
    atoms 6-8  entry C          line   111 file /home/bdw2292/miniconda3/envs/p4env/share/psi4/basis/6-31gs.gbs 
    atoms 9-17 entry H          line    44 file /home/bdw2292/miniconda3/envs/p4env/share/psi4/basis/6-31gs.gbs 


         ---------------------------------------------------------
                                   SCF
               by Justin Turney, Rob Parrish, Andy Simmonett
                          and Daniel G. A. Smith
                              RKS Reference
                        4 Threads,  19073 MiB Core
         ---------------------------------------------------------

  ==> Geometry <==

    Molecular point group: c1
    Full point group: C1

    Geometry (in Angstrom), charge = 0, multiplicity = 1:

       Center              X                  Y                   Z               Mass       
    ------------   -----------------  -----------------  -----------------  -----------------
         P            0.118919375847    -0.055007728270    -0.379031772604    30.973761998420
         O            1.351019375847     0.734992271730     0.316168227396    15.994914619570
         O           -0.450480624153    -0.973807728270     0.827768227396    15.994914619570
         O           -1.018280624153     1.079292271730    -0.594931772604    15.994914619570
         O            0.484219375847    -0.812807728270    -1.623931772604    15.994914619570
         C            2.470719375847    -0.014307728270     0.756368227396    12.000000000000
         C           -1.625380624153    -1.733607728270     0.601068227396    12.000000000000
         C           -1.454780624153     1.867192271730     0.499468227396    12.000000000000
         H            2.895019375847    -0.578307728270    -0.078331772604     1.007825032230
         H            2.172319375847    -0.698107728270     1.555068227396     1.007825032230
         H            3.225319375847     0.675992271730     1.141168227396     1.007825032230
         H           -2.456780624153    -1.077607728270     0.331868227396     1.007825032230
         H           -1.877680624153    -2.270907728270     1.518468227396     1.007825032230
         H           -1.449480624153    -2.456807728270    -0.199431772604     1.007825032230
         H           -1.859080624153     1.232792271730     1.291668227396     1.007825032230
         H           -2.240480624153     2.542192271730     0.151468227396     1.007825032230
         H           -0.623680624153     2.461992271730     0.886968227396     1.007825032230

  Running in c1 symmetry.

  Rotational constants: A =      0.06834  B =      0.05340  C =      0.04357 [cm^-1]
  Rotational constants: A =   2048.90947  B =   1600.88154  C =   1306.29013 [MHz]
  Nuclear repulsion =  547.172731515999999

  Charge       = 0
  Multiplicity = 1
  Electrons    = 74
  Nalpha       = 37
  Nbeta        = 37

  ==> Algorithm <==

  SCF Algorithm Type is DF.
  DIIS enabled.
  MOM disabled.
  Fractional occupation disabled.
  Guess Type is SAD.
  Energy threshold   = 1.00e-08
  Density threshold  = 1.00e-08
  Integral threshold = 0.00e+00

  ==> Primary Basis <==

  Basis Set: 6-31G*
    Blend: 6-31G*
    Number of shells: 68
    Number of basis function: 142
    Number of Cartesian functions: 142
    Spherical Harmonics?: false
    Max angular momentum: 2

  ==> DFT Potential <==

   => Composite Functional: WB97X-D <= 

    wB97X-D Hyb-GGA Exchange-Correlation Functional

    J.-D. Chai and M. Head-Gordon, Phys. Chem. Chem. Phys. 10, 6615 (2008)

    Deriv               =              1
    GGA                 =           TRUE
    Meta                =          FALSE

    Exchange Hybrid     =           TRUE
    MP2 Hybrid          =          FALSE

   => Exchange-Correlation Functionals <=

    1.0000   wB97D range-separated functional

   => Exact (HF) Exchange <=

    0.7780            HF,LR [omega = 0.2000]
    0.2220               HF 

   => Molecular Quadrature <=

    Radial Scheme          =       TREUTLER
    Pruning Scheme         =           FLAT
    Nuclear Scheme         =       TREUTLER

    BS radius alpha        =              1
    Pruning alpha          =              1
    Radial Points          =             75
    Spherical Points       =            302
    Total Points           =         381371
    Total Blocks           =           2828
    Max Points             =            256
    Max Functions          =            137

   => WB97X-D: Empirical Dispersion <=

    Chai and Head-Gordon Dispersion Correction
    Chai, J.-D.; Head-Gordon, M. (2010), J. Chem. Phys., 132: 6615-6620

        s6 =       1.000000

   => Loading Basis Set <=

    Name: (6-31G* AUX)
    Role: JKFIT
    Keyword: DF_BASIS_SCF
    atoms 1    entry P          line   519 file /home/bdw2292/miniconda3/envs/p4env/share/psi4/basis/cc-pvdz-jkfit.gbs 
    atoms 2-5  entry O          line   221 file /home/bdw2292/miniconda3/envs/p4env/share/psi4/basis/cc-pvdz-jkfit.gbs 
    atoms 6-8  entry C          line   121 file /home/bdw2292/miniconda3/envs/p4env/share/psi4/basis/cc-pvdz-jkfit.gbs 
    atoms 9-17 entry H          line    51 file /home/bdw2292/miniconda3/envs/p4env/share/psi4/basis/cc-pvdz-jkfit.gbs 

  ==> Pre-Iterations <==

   -------------------------------------------------------
    Irrep   Nso     Nmo     Nalpha   Nbeta   Ndocc  Nsocc
   -------------------------------------------------------
     A        142     142       0       0       0       0
   -------------------------------------------------------
    Total     142     142      37      37      37       0
   -------------------------------------------------------

  ==> Integral Setup <==

  ==> DiskDFJK: Density-Fitted J/K Matrices <==

    J tasked:                  Yes
    K tasked:                  Yes
    wK tasked:                 Yes
    Omega:               2.000E-01
    OpenMP threads:              4
    Integrals threads:           4
    Memory [MiB]:            13253
    Algorithm:                Core
    Integral Cache:           NONE
    Schwarz Cutoff:          1E-12
    Fitting Condition:       1E-10

   => Auxiliary Basis Set <=

  Basis Set: (6-31G* AUX)
    Blend: CC-PVDZ-JKFIT
    Number of shells: 285
    Number of basis function: 922
    Number of Cartesian functions: 922
    Spherical Harmonics?: false
    Max angular momentum: 3

  Cached 100.0% of DFT collocation blocks in 1.027 [GiB].

  Minimum eigenvalue in the overlap matrix is 5.2492736954E-03.
  Using Symmetric Orthogonalization.

  SCF Guess: Superposition of Atomic Densities via on-the-fly atomic UHF.

  ==> Iterations <==

                           Total Energy        Delta E     RMS |[F,P]|

   @DF-RKS iter SAD:  -760.94825281267970   -7.60948e+02   0.00000e+00 
   @DF-RKS iter   1:  -761.54866413950867   -6.00411e-01   6.48212e-03 DIIS
   @DF-RKS iter   2:  -761.48956680604647    5.90973e-02   7.42643e-03 DIIS
   @DF-RKS iter   3:  -761.88399186068648   -3.94425e-01   1.10742e-03 DIIS
   @DF-RKS iter   4:  -761.89293370694622   -8.94185e-03   3.59263e-04 DIIS
   @DF-RKS iter   5:  -761.89386029564935   -9.26589e-04   9.26130e-05 DIIS
   @DF-RKS iter   6:  -761.89393325436924   -7.29587e-05   2.28066e-05 DIIS
   @DF-RKS iter   7:  -761.89393807595081   -4.82158e-06   4.94237e-06 DIIS
   @DF-RKS iter   8:  -761.89393833207146   -2.56121e-07   1.89021e-06 DIIS
   @DF-RKS iter   9:  -761.89393836255113   -3.04797e-08   8.44659e-07 DIIS
   @DF-RKS iter  10:  -761.89393836823456   -5.68343e-09   1.67599e-07 DIIS
   @DF-RKS iter  11:  -761.89393836858619   -3.51633e-10   2.39144e-08 DIIS
   @DF-RKS iter  12:  -761.89393836860302   -1.68257e-11   8.45958e-09 DIIS
  Energy and wave function converged.


  ==> Post-Iterations <==

    Orbital Energies [Eh]
    ---------------------

    Doubly Occupied:                                                      

       1A    -77.398921     2A    -19.313931     3A    -19.311769  
       4A    -19.310776     5A    -19.228869     6A    -10.360396  
       7A    -10.359937     8A    -10.356053     9A     -6.804770  
      10A     -4.954812    11A     -4.954236    12A     -4.951622  
      13A     -1.202949    14A     -1.146909    15A     -1.144671  
      16A     -1.046301    17A     -0.836027    18A     -0.807382  
      19A     -0.800378    20A     -0.678392    21A     -0.620524  
      22A     -0.618548    23A     -0.577942    24A     -0.570058  
      25A     -0.561278    26A     -0.543756    27A     -0.541377  
      28A     -0.535171    29A     -0.486976    30A     -0.458334  
      31A     -0.441177    32A     -0.427519    33A     -0.410204  
      34A     -0.403484    35A     -0.397582    36A     -0.369468  
      37A     -0.359134  

    Virtual:                                                              

      38A      0.127072    39A      0.165587    40A      0.172109  
      41A      0.180481    42A      0.201618    43A      0.217617  
      44A      0.226228    45A      0.233294    46A      0.241274  
      47A      0.246137    48A      0.254954    49A      0.260020  
      50A      0.272900    51A      0.291017    52A      0.297255  
      53A      0.309090    54A      0.416637    55A      0.450932  
      56A      0.471997    57A      0.503781    58A      0.551612  
      59A      0.597831    60A      0.618490    61A      0.629040  
      62A      0.652552    63A      0.677663    64A      0.695503  
      65A      0.706315    66A      0.738651    67A      0.791579  
      68A      0.799504    69A      0.886656    70A      0.894686  
      71A      0.916602    72A      0.931340    73A      0.936505  
      74A      0.949127    75A      0.958724    76A      1.001075  
      77A      1.007336    78A      1.011799    79A      1.032603  
      80A      1.050594    81A      1.085442    82A      1.090915  
      83A      1.100488    84A      1.131419    85A      1.140455  
      86A      1.178708    87A      1.192500    88A      1.210319  
      89A      1.224960    90A      1.245668    91A      1.258558  
      92A      1.285365    93A      1.374550    94A      1.446625  
      95A      1.533721    96A      1.558306    97A      1.568968  
      98A      1.575482    99A      1.605382   100A      1.623966  
     101A      1.629504   102A      1.657462   103A      1.752397  
     104A      1.760142   105A      1.822393   106A      1.870900  
     107A      1.916949   108A      1.952462   109A      1.993168  
     110A      2.023432   111A      2.107034   112A      2.123990  
     113A      2.136026   114A      2.144656   115A      2.168993  
     116A      2.175334   117A      2.209070   118A      2.234314  
     119A      2.240990   120A      2.286918   121A      2.323075  
     122A      2.397987   123A      2.434867   124A      2.462066  
     125A      2.471287   126A      2.472666   127A      2.497678  
     128A      2.598704   129A      2.724177   130A      2.739662  
     131A      2.831499   132A      2.857529   133A      2.926689  
     134A      2.959392   135A      3.618338   136A      3.866782  
     137A      4.024609   138A      4.065367   139A      4.164069  
     140A      4.327183   141A      4.339585   142A      4.367388  

    Final Occupation by Irrep:
              A 
    DOCC [    37 ]

  @DF-RKS Final Energy:  -761.89393836860302

   => Energetics <=

    Nuclear Repulsion Energy =            547.1727315159999989
    One-Electron Energy =               -2134.4196163829205943
    Two-Electron Energy =                 879.8025273304350549
    DFT Exchange-Correlation Energy =     -54.4418838013456323
    Empirical Dispersion Energy =          -0.0076970307719247
    VV10 Nonlocal Energy =                  0.0000000000000000
    Total Energy =                       -761.8939383686030169

Computation Completed


Properties will be evaluated at   0.000000,   0.000000,   0.000000 [a0]

Properties computed using the SCF density matrix

  Nuclear Dipole Moment: [e a0]
     X:    -2.1837      Y:    -0.1075      Z:     6.5299

  Electronic Dipole Moment: [e a0]
     X:     1.7028      Y:     0.3239      Z:    -4.9240

  Dipole Moment: [e a0]
     X:    -0.4809      Y:     0.2164      Z:     1.6058     Total:     1.6902

  Dipole Moment: [D]
     X:    -1.2223      Y:     0.5501      Z:     4.0816     Total:     4.2961


*** tstop() called on node37.bme.utexas.edu at Wed Apr  1 17:41:25 2020
Module time:
	user time   =      62.19 seconds =       1.04 minutes
	system time =       3.80 seconds =       0.06 minutes
	total time  =         17 seconds =       0.28 minutes
Total time:
	user time   =      62.19 seconds =       1.04 minutes
	system time =       3.80 seconds =       0.06 minutes
	total time  =         17 seconds =       0.28 minutes

*** tstart() called on node37.bme.utexas.edu
*** at Wed Apr  1 17:41:25 2020


         ------------------------------------------------------------
                                   SCF GRAD                          
                          Rob Parrish, Justin Turney,                
                       Andy Simmonett, and Alex Sokolov              
         ------------------------------------------------------------

  ==> Geometry <==

    Molecular point group: c1
    Full point group: C1

    Geometry (in Angstrom), charge = 0, multiplicity = 1:

       Center              X                  Y                   Z               Mass       
    ------------   -----------------  -----------------  -----------------  -----------------
         P            0.118919375847    -0.055007728270    -0.379031772604    30.973761998420
         O            1.351019375847     0.734992271730     0.316168227396    15.994914619570
         O           -0.450480624153    -0.973807728270     0.827768227396    15.994914619570
         O           -1.018280624153     1.079292271730    -0.594931772604    15.994914619570
         O            0.484219375847    -0.812807728270    -1.623931772604    15.994914619570
         C            2.470719375847    -0.014307728270     0.756368227396    12.000000000000
         C           -1.625380624153    -1.733607728270     0.601068227396    12.000000000000
         C           -1.454780624153     1.867192271730     0.499468227396    12.000000000000
         H            2.895019375847    -0.578307728270    -0.078331772604     1.007825032230
         H            2.172319375847    -0.698107728270     1.555068227396     1.007825032230
         H            3.225319375847     0.675992271730     1.141168227396     1.007825032230
         H           -2.456780624153    -1.077607728270     0.331868227396     1.007825032230
         H           -1.877680624153    -2.270907728270     1.518468227396     1.007825032230
         H           -1.449480624153    -2.456807728270    -0.199431772604     1.007825032230
         H           -1.859080624153     1.232792271730     1.291668227396     1.007825032230
         H           -2.240480624153     2.542192271730     0.151468227396     1.007825032230
         H           -0.623680624153     2.461992271730     0.886968227396     1.007825032230

  Nuclear repulsion =  547.172731515999999

  ==> Basis Set <==

  Basis Set: 6-31G*
    Blend: 6-31G*
    Number of shells: 68
    Number of basis function: 142
    Number of Cartesian functions: 142
    Spherical Harmonics?: false
    Max angular momentum: 2

  ==> DFJKGrad: Density-Fitted SCF Gradients <==

    Gradient:                    1
    J tasked:                  Yes
    K tasked:                  Yes
    wK tasked:                 Yes
    Omega:               2.000E-01
    OpenMP threads:              4
    Integrals threads:           4
    Memory [MiB]:            14305
    Schwarz Cutoff:          0E+00
    Fitting Condition:       1E-10

   => Auxiliary Basis Set <=

  Basis Set: (6-31G* AUX)
    Blend: CC-PVDZ-JKFIT
    Number of shells: 285
    Number of basis function: 922
    Number of Cartesian functions: 922
    Spherical Harmonics?: false
    Max angular momentum: 3

  ==> DFT Potential <==

   => Composite Functional: WB97X-D <= 

    wB97X-D Hyb-GGA Exchange-Correlation Functional

    J.-D. Chai and M. Head-Gordon, Phys. Chem. Chem. Phys. 10, 6615 (2008)

    Deriv               =              1
    GGA                 =           TRUE
    Meta                =          FALSE

    Exchange Hybrid     =           TRUE
    MP2 Hybrid          =          FALSE

   => Exchange-Correlation Functionals <=

    1.0000   wB97D range-separated functional

   => Exact (HF) Exchange <=

    0.7780            HF,LR [omega = 0.2000]
    0.2220               HF 

   => Molecular Quadrature <=

    Radial Scheme          =       TREUTLER
    Pruning Scheme         =           FLAT
    Nuclear Scheme         =       TREUTLER

    BS radius alpha        =              1
    Pruning alpha          =              1
    Radial Points          =             75
    Spherical Points       =            302
    Total Points           =         381371
    Total Blocks           =           2828
    Max Points             =            256
    Max Functions          =            137


  -Total Gradient:
     Atom            X                  Y                   Z
    ------   -----------------  -----------------  -----------------
       1       -0.011442550857     0.015554925092     0.032077837267
       2        0.024158341238    -0.002060841171     0.001646130933
       3       -0.010163259081    -0.012264466364    -0.004073264393
       4       -0.015824745916     0.012330920538     0.004393402451
       5        0.014411184564    -0.021551722479    -0.031728924959
       6       -0.006144213006     0.007792293547    -0.001007449154
       7        0.003794304943     0.005879173599     0.004927203529
       8       -0.000437996273    -0.004937384040    -0.006920711038
       9       -0.000430912722     0.001021137251     0.000037281657
      10       -0.000616504294     0.001151474696    -0.000699151745
      11        0.003729798606    -0.002580069653     0.001411862697
      12        0.001901897895    -0.000191406368     0.001179438930
      13       -0.003473400966    -0.002445955754    -0.000876727862
      14        0.001499478765     0.000127928380     0.001202528342
      15       -0.000106812286     0.000371432612    -0.002301078376
      16       -0.001280352092     0.002581104389     0.003759912605
      17        0.000122830967    -0.000122522404    -0.001660263848


*** tstop() called on node37.bme.utexas.edu at Wed Apr  1 17:41:32 2020
Module time:
	user time   =      25.27 seconds =       0.42 minutes
	system time =       0.85 seconds =       0.01 minutes
	total time  =          7 seconds =       0.12 minutes
Total time:
	user time   =      87.46 seconds =       1.46 minutes
	system time =       4.65 seconds =       0.08 minutes
	total time  =         24 seconds =       0.40 minutes

			-----------------------------------------
			 OPTKING 2.0: for geometry optimizations 
			  - R.A. King,  Bethel University        
			-----------------------------------------

	Internal coordinates to be generated automatically.
	Detected frag 1 with atoms:  1 2 3 4 5 6 7 8 9 10 11 12 13 14 15 16 17
	---Fragment 1 Bond Connectivity---
	 1 : 2 3 4 5
	 2 : 1 6
	 3 : 1 7
	 4 : 1 8
	 5 : 1
	 6 : 2 9 10 11
	 7 : 3 12 13 14
	 8 : 4 15 16 17
	 9 : 6
	 10 : 6
	 11 : 6
	 12 : 7
	 13 : 7
	 14 : 7
	 15 : 8
	 16 : 8
	 17 : 8

	---Fragment 1 Geometry and Gradient---
	 P           0.2247250514       -0.1039495412       -0.7162662431
	 O           2.5530566105        1.3889340979        0.5974713594
	 O          -0.8512850045       -1.8402299053        1.5642552451
	 O          -1.9242714985        2.0395668029       -1.1242581136
	 O           0.9150420050       -1.5359839991       -3.0687862967
	 C           4.6689829532       -0.0270376879        1.4293287998
	 C          -3.0715242293       -3.2760438154        1.1358543325
	 C          -2.7491369523        3.5284820171        0.9438581581
	 H           5.4707937482       -1.0928432227       -0.1480255971
	 H           4.1050886774       -1.3192324125        2.9386530562
	 H           6.0949702875        1.2774402565        2.1564954129
	 H          -4.6426425300       -2.0363834771        0.6271400595
	 H          -3.5483021307       -4.2913936626        2.8694890800
	 H          -2.7391214038       -4.6426937493       -0.3768714309
	 H          -3.5131532248        2.3296397632        2.4408991947
	 H          -4.2338947690        4.8040471518        0.2862334665
	 H          -1.1785855694        4.6524911166        1.6761270318
	            -0.0114425509        0.0155549251        0.0320778373
	             0.0241583412       -0.0020608412        0.0016461309
	            -0.0101632591       -0.0122644664       -0.0040732644
	            -0.0158247459        0.0123309205        0.0043934025
	             0.0144111846       -0.0215517225       -0.0317289250
	            -0.0061442130        0.0077922935       -0.0010074492
	             0.0037943049        0.0058791736        0.0049272035
	            -0.0004379963       -0.0049373840       -0.0069207110
	            -0.0004309127        0.0010211373        0.0000372817
	            -0.0006165043        0.0011514747       -0.0006991517
	             0.0037297986       -0.0025800697        0.0014118627
	             0.0019018979       -0.0001914064        0.0011794389
	            -0.0034734010       -0.0024459558       -0.0008767279
	             0.0014994788        0.0001279284        0.0012025283
	            -0.0001068123        0.0003714326       -0.0023010784
	            -0.0012803521        0.0025811044        0.0037599126
	             0.0001228310       -0.0001225224       -0.0016602638

	Previous optimization step data not found.  Starting new optimization.

	---Fragment 1 Intrafragment Coordinates---
	 - Coordinate -           - BOHR/RAD -       - ANG/DEG -
	 R(1,2)           =         3.061982	       1.620331
	 R(1,3)           =         3.061576	       1.620116
	 R(1,4)           =         3.062565	       1.620640
	 R(1,5)           =         2.839298	       1.502492
	 R(2,6)           =         2.678452	       1.417376
	 R(3,7)           =         2.678535	       1.417420
	 R(4,8)           =         2.678503	       1.417403
	 R(6,9)           =         2.065645	       1.093092
	 R(6,10)          =         2.065382	       1.092953
	 R(6,11)          =         2.064915	       1.092706
	 R(7,12)          =         2.064936	       1.092717
	 R(7,13)          =         2.064883	       1.092689
	 R(7,14)          =         2.065566	       1.093050
	 R(8,15)          =         2.064479	       1.092475
	 R(8,16)          =         2.064956	       1.092728
	 R(8,17)          =         2.065489	       1.093010
	 B(1,2,6)         =         2.067131	     118.437869
	 B(1,3,7)         =         2.067111	     118.436727
	 B(1,4,8)         =         2.097047	     120.151967
	 B(2,1,3)         =         1.796875	     102.953363
	 B(2,1,4)         =         1.822945	     104.447036
	 B(2,1,5)         =         2.000410	     114.615028
	 B(2,6,9)         =         1.920109	     110.014146
	 B(2,6,10)        =         1.919868	     110.000332
	 B(2,6,11)        =         1.897524	     108.720129
	 B(3,1,4)         =         1.823011	     104.450811
	 B(3,1,5)         =         2.000493	     114.619814
	 B(3,7,12)        =         1.926519	     110.381403
	 B(3,7,13)        =         1.897260	     108.705004
	 B(3,7,14)        =         1.916018	     109.779770
	 B(4,1,5)         =         1.996796	     114.407998
	 B(4,8,15)        =         1.929505	     110.552493
	 B(4,8,16)        =         1.895376	     108.597036
	 B(4,8,17)        =         1.919916	     110.003078
	 B(9,6,10)        =         1.918982	     109.949575
	 B(9,6,11)        =         1.903717	     109.074957
	 B(10,6,11)       =         1.903331	     109.052861
	 B(12,7,13)       =         1.903244	     109.047830
	 B(12,7,14)       =         1.916889	     109.829626
	 B(13,7,14)       =         1.903592	     109.067794
	 B(15,8,16)       =         1.900275	     108.877760
	 B(15,8,17)       =         1.918059	     109.896670
	 B(16,8,17)       =         1.900204	     108.873667
	 D(1,2,6,9)       =         0.999141	      57.246541
	 D(1,2,6,10)      =        -1.117344	     -64.019083
	 D(1,2,6,11)      =         3.082798	     176.631293
	 D(1,3,7,12)      =        -1.032765	     -59.173058
	 D(1,3,7,13)      =        -3.119508	    -178.734640
	 D(1,3,7,14)      =         1.082752	      62.037135
	 D(1,4,8,15)      =        -1.025863	     -58.777638
	 D(1,4,8,16)      =        -3.109594	    -178.166629
	 D(1,4,8,17)      =         1.095626	      62.774763
	 D(2,1,3,7)       =         3.051965	     174.864701
	 D(2,1,4,8)       =        -0.940624	     -53.893773
	 D(3,1,2,6)       =         1.136926	      65.141046
	 D(3,1,4,8)       =         0.940565	      53.890403
	 D(4,1,2,6)       =         3.037343	     174.026939
	 D(4,1,3,7)       =         1.151597	      65.981650
	 D(5,1,2,6)       =        -1.047186	     -59.999363
	 D(5,1,3,7)       =        -1.047163	     -59.998006
	 D(5,1,4,8)       =        -3.141544	    -179.997217
	 R(7,8)           =         6.814864	       3.606271

	Current energy   :      -761.8939383686

	Generating empirical Hessian (Schlegel '84) for each fragment.
	Taking RFO optimization step.
	Going to follow RFO solution 1.
	Using RFO vector 1.
	Norm of target step-size    0.20017
	Projected energy change by RFO approximation:        -0.0028988498

	Back-transformation to cartesian coordinates...
	Could not converge backtransformation.
	Using first guess instead.

	--- Internal Coordinate Step in ANG or DEG, aJ/ANG or AJ/DEG ---
	 ---------------------------------------------------------------------------
	   Coordinate                Previous        Force       Change         New 
	   ----------                --------       ------       ------       ------
	    1 R(1,2)          =      1.620331    -0.154785    -0.019374     1.600957
	    2 R(1,3)          =      1.620116    -0.073071    -0.009651     1.610465
	    3 R(1,4)          =      1.620640    -0.161879    -0.021450     1.599189
	    4 R(1,5)          =      1.502492    -0.335809    -0.027761     1.474730
	    5 R(2,6)          =      1.417376     0.055158     0.008283     1.425659
	    6 R(3,7)          =      1.417420     0.048810     0.007017     1.424437
	    7 R(4,8)          =      1.417403     0.055095     0.008497     1.425900
	    8 R(6,9)          =      1.093092     0.005397     0.001946     1.095039
	    9 R(6,10)         =      1.092953     0.009044     0.001941     1.094894
	   10 R(6,11)         =      1.092706    -0.011662     0.000354     1.093060
	   11 R(7,12)         =      1.092717     0.015471     0.003545     1.096262
	   12 R(7,13)         =      1.092689    -0.010178    -0.000411     1.092278
	   13 R(7,14)         =      1.093050     0.005385     0.001142     1.094192
	   14 R(8,15)         =      1.092475     0.015793     0.003044     1.095520
	   15 R(8,16)         =      1.092728    -0.010905    -0.001810     1.090917
	   16 R(8,17)         =      1.093010     0.005097     0.001044     1.094054
	   17 B(1,2,6)        =    118.437869    -0.000110    -0.356653   118.081216
	   18 B(1,3,7)        =    118.436727    -0.000227    -0.887298   117.549429
	   19 B(1,4,8)        =    120.151967    -0.000144    -0.611780   119.540187
	   20 B(2,1,3)        =    102.953363    -0.000638    -2.608097   100.345266
	   21 B(2,1,4)        =    104.447036    -0.000712    -3.121616   101.325420
	   22 B(2,1,5)        =    114.615028     0.000774     3.153414   117.768442
	   23 B(2,6,9)        =    110.014146     0.000155     0.789511   110.803657
	   24 B(2,6,10)       =    110.000332     0.000194     0.931908   110.932241
	   25 B(2,6,11)       =    108.720129    -0.000580    -2.755507   105.964622
	   26 B(3,1,4)        =    104.450811     0.000371     0.288399   104.739209
	   27 B(3,1,5)        =    114.619814     0.000209     1.671195   116.291009
	   28 B(3,7,12)       =    110.381403     0.000162     0.741282   111.122684
	   29 B(3,7,13)       =    108.705004    -0.000530    -2.479545   106.225459
	   30 B(3,7,14)       =    109.779770     0.000224     1.092795   110.872565
	   31 B(4,1,5)        =    114.407998    -0.000140    -0.214618   114.193380
	   32 B(4,8,15)       =    110.552493     0.000170     0.790068   111.342561
	   33 B(4,8,16)       =    108.597036    -0.000552    -2.550600   106.046436
	   34 B(4,8,17)       =    110.003078     0.000219     1.027008   111.030086
	   35 B(9,6,10)       =    109.949575    -0.000039     0.061558   110.011133
	   36 B(9,6,11)       =    109.074957     0.000146     0.507717   109.582674
	   37 B(10,6,11)      =    109.052861     0.000117     0.405614   109.458475
	   38 B(12,7,13)      =    109.047830     0.000107     0.373418   109.421248
	   39 B(12,7,14)      =    109.829626    -0.000109    -0.329535   109.500091
	   40 B(13,7,14)      =    109.067794     0.000141     0.569778   109.637572
	   41 B(15,8,16)      =    108.877760     0.000143     0.533485   109.411245
	   42 B(15,8,17)      =    109.896670    -0.000119    -0.344761   109.551909
	   43 B(16,8,17)      =    108.873667     0.000134     0.507187   109.380854
	   44 D(1,2,6,9)      =     57.246541     0.000017    -0.188410    57.058131
	   45 D(1,2,6,10)     =    -64.019083    -0.000023    -1.420415   -65.439498
	   46 D(1,2,6,11)     =    176.631293    -0.000002    -0.782089   175.849204
	   47 D(1,3,7,12)     =    -59.173058    -0.000021    -1.713971   -60.887029
	   48 D(1,3,7,13)     =   -178.734640     0.000002    -1.077857  -179.812497
	   49 D(1,3,7,14)     =     62.037135     0.000006    -0.898716    61.138419
	   50 D(1,4,8,15)     =    -58.777638    -0.000011     0.220314   -58.557325
	   51 D(1,4,8,16)     =   -178.166629     0.000004     0.684076  -177.482553
	   52 D(1,4,8,17)     =     62.774763     0.000014     1.023199    63.797962
	   53 D(2,1,3,7)      =    174.864701    -0.000090    -0.197001   174.667699
	   54 D(2,1,4,8)      =    -53.893773     0.000103     2.410416   -51.483358
	   55 D(3,1,2,6)      =     65.141046     0.000031     2.000536    67.141582
	   56 D(3,1,4,8)      =     53.890403    -0.000084    -1.365209    52.525194
	   57 D(4,1,2,6)      =    174.026939     0.000018     0.591522   174.618461
	   58 D(4,1,3,7)      =     65.981650     0.000110     3.945482    69.927132
	   59 D(5,1,2,6)      =    -59.999363    -0.000030    -0.085598   -60.084961
	   60 D(5,1,3,7)      =    -59.998006     0.000056     2.867035   -57.130971
	   61 D(5,1,4,8)      =   -179.997217     0.000020     0.860258  -179.136959
	   62 R(7,8)          =      3.606271    -0.000771     0.022556     3.628827
	 ---------------------------------------------------------------------------
	Successfully symmetrized geometry.

  ==> Convergence Check <==

  Measures of convergence in internal coordinates in au.
  Criteria marked as inactive (o), active & met (*), and active & unmet ( ).
  --------------------------------------------------------------------------------------------- ~
   Step     Total Energy     Delta E     MAX Force     RMS Force      MAX Disp      RMS Disp    ~
  --------------------------------------------------------------------------------------------- ~
    Convergence Criteria    1.00e-06 *    3.00e-04 *             o    1.20e-03 *             o  ~
  --------------------------------------------------------------------------------------------- ~
      1    -761.89393837   -7.62e+02      4.08e-02      7.29e-03 o    6.89e-02      2.54e-02 o  ~
  ---------------------------------------------------------------------------------------------

	Writing optimization data to binary file.
	Structure for next step:
	Cartesian Geometry (in Angstrom)
	    P     0.0980160248  -0.0750354751  -0.4125123458
	    O     1.2754573744   0.7286943863   0.3159892366
	    O    -0.4514940460  -0.9595962729   0.8159774193
	    O    -0.9950796593   1.0761046829  -0.6059661371
	    O     0.4289826628  -0.8080920366  -1.6486023530
	    C     2.4108186713  -0.0063615957   0.7667106071
	    C    -1.6135690979  -1.7516372246   0.5895434807
	    C    -1.3862819678   1.8692460313   0.5125499338
	    H     2.8760276763  -0.5502973578  -0.0620379749
	    H     2.1339566956  -0.7037457885   1.5640792145
	    H     3.1125293409   0.7345653323   1.1583866669
	    H    -2.4715157040  -1.1256527074   0.3177701805
	    H    -1.8218193157  -2.2642247932   1.5313276885
	    H    -1.4351819507  -2.4890897547  -0.1988719961
	    H    -1.7925740155   1.2486814463   1.3187692084
	    H    -2.1625156883   2.5432763808   0.1475222504
	    H    -0.5443276021   2.4563333663   0.8912247584
			--------------------------
			 OPTKING Finished Execution 
			--------------------------

    Structure for next step:
    Molecular point group: c1
    Full point group: C1

    Geometry (in Angstrom), charge = 0, multiplicity = 1:

    P            0.112512193979    -0.071129641985    -0.401178686333
    O            1.289953548176     0.732600222641     0.327322898975
    O           -0.436997878939    -0.955690443220     0.827311083638
    O           -0.980583494467     1.080010520572    -0.594632478390
    O            0.443478833301    -0.804186206329    -1.637268698395
    C            2.425314849546    -0.002455762283     0.778044271249
    C           -1.599072935475    -1.747731398035     0.600877144149
    C           -1.371785804500     1.873151872101     0.523883596953
    H            2.890523856431    -0.546391526552    -0.050704314045
    H            2.148452872733    -0.699839957801     1.575412881704
    H            3.127025521903     0.738471168632     1.169720332571
    H           -2.457019544925    -1.121746878436     0.329103842805
    H           -1.807323154022    -2.260318968671     1.542661355599
    H           -1.420685787583    -2.485183931073    -0.187538335776
    H           -1.778077853796     1.252587284611     1.330102874660
    H           -2.148019528036     2.547182224178     0.158855912104
    H           -0.529831435445     2.460239209369     0.902558423002

gradient() will perform analytic gradient computation.

*** tstart() called on node37.bme.utexas.edu
*** at Wed Apr  1 17:41:32 2020

   => Loading Basis Set <=

    Name: 6-31G*
    Role: ORBITAL
    Keyword: BASIS
    atoms 1    entry P          line   292 file /home/bdw2292/miniconda3/envs/p4env/share/psi4/basis/6-31gs.gbs 
    atoms 2-5  entry O          line   145 file /home/bdw2292/miniconda3/envs/p4env/share/psi4/basis/6-31gs.gbs 
    atoms 6-8  entry C          line   111 file /home/bdw2292/miniconda3/envs/p4env/share/psi4/basis/6-31gs.gbs 
    atoms 9-17 entry H          line    44 file /home/bdw2292/miniconda3/envs/p4env/share/psi4/basis/6-31gs.gbs 


         ---------------------------------------------------------
                                   SCF
               by Justin Turney, Rob Parrish, Andy Simmonett
                          and Daniel G. A. Smith
                              RKS Reference
                        4 Threads,  19073 MiB Core
         ---------------------------------------------------------

  ==> Geometry <==

    Molecular point group: c1
    Full point group: C1

    Geometry (in Angstrom), charge = 0, multiplicity = 1:

       Center              X                  Y                   Z               Mass       
    ------------   -----------------  -----------------  -----------------  -----------------
         P            0.112512193979    -0.071129641985    -0.401178686333    30.973761998420
         O            1.289953548176     0.732600222641     0.327322898975    15.994914619570
         O           -0.436997878939    -0.955690443220     0.827311083638    15.994914619570
         O           -0.980583494467     1.080010520572    -0.594632478390    15.994914619570
         O            0.443478833301    -0.804186206329    -1.637268698395    15.994914619570
         C            2.425314849546    -0.002455762283     0.778044271249    12.000000000000
         C           -1.599072935475    -1.747731398035     0.600877144149    12.000000000000
         C           -1.371785804500     1.873151872101     0.523883596953    12.000000000000
         H            2.890523856431    -0.546391526552    -0.050704314045     1.007825032230
         H            2.148452872733    -0.699839957801     1.575412881704     1.007825032230
         H            3.127025521903     0.738471168632     1.169720332571     1.007825032230
         H           -2.457019544925    -1.121746878436     0.329103842805     1.007825032230
         H           -1.807323154022    -2.260318968671     1.542661355599     1.007825032230
         H           -1.420685787583    -2.485183931073    -0.187538335776     1.007825032230
         H           -1.778077853796     1.252587284611     1.330102874660     1.007825032230
         H           -2.148019528036     2.547182224178     0.158855912104     1.007825032230
         H           -0.529831435445     2.460239209369     0.902558423002     1.007825032230

  Running in c1 symmetry.

  Rotational constants: A =      0.06760  B =      0.05527  C =      0.04504 [cm^-1]
  Rotational constants: A =   2026.71847  B =   1656.99569  C =   1350.13186 [MHz]
  Nuclear repulsion =  551.845187348629452

  Charge       = 0
  Multiplicity = 1
  Electrons    = 74
  Nalpha       = 37
  Nbeta        = 37

  ==> Algorithm <==

  SCF Algorithm Type is DF.
  DIIS enabled.
  MOM disabled.
  Fractional occupation disabled.
  Guess Type is READ.
  Energy threshold   = 1.00e-08
  Density threshold  = 1.00e-08
  Integral threshold = 0.00e+00

  ==> Primary Basis <==

  Basis Set: 6-31G*
    Blend: 6-31G*
    Number of shells: 68
    Number of basis function: 142
    Number of Cartesian functions: 142
    Spherical Harmonics?: false
    Max angular momentum: 2

  ==> DFT Potential <==

   => Composite Functional: WB97X-D <= 

    wB97X-D Hyb-GGA Exchange-Correlation Functional

    J.-D. Chai and M. Head-Gordon, Phys. Chem. Chem. Phys. 10, 6615 (2008)

    Deriv               =              1
    GGA                 =           TRUE
    Meta                =          FALSE

    Exchange Hybrid     =           TRUE
    MP2 Hybrid          =          FALSE

   => Exchange-Correlation Functionals <=

    1.0000   wB97D range-separated functional

   => Exact (HF) Exchange <=

    0.7780            HF,LR [omega = 0.2000]
    0.2220               HF 

   => Molecular Quadrature <=

    Radial Scheme          =       TREUTLER
    Pruning Scheme         =           FLAT
    Nuclear Scheme         =       TREUTLER

    BS radius alpha        =              1
    Pruning alpha          =              1
    Radial Points          =             75
    Spherical Points       =            302
    Total Points           =         381379
    Total Blocks           =           2830
    Max Points             =            256
    Max Functions          =            137

   => WB97X-D: Empirical Dispersion <=

    Chai and Head-Gordon Dispersion Correction
    Chai, J.-D.; Head-Gordon, M. (2010), J. Chem. Phys., 132: 6615-6620

        s6 =       1.000000

   => Loading Basis Set <=

    Name: (6-31G* AUX)
    Role: JKFIT
    Keyword: DF_BASIS_SCF
    atoms 1    entry P          line   519 file /home/bdw2292/miniconda3/envs/p4env/share/psi4/basis/cc-pvdz-jkfit.gbs 
    atoms 2-5  entry O          line   221 file /home/bdw2292/miniconda3/envs/p4env/share/psi4/basis/cc-pvdz-jkfit.gbs 
    atoms 6-8  entry C          line   121 file /home/bdw2292/miniconda3/envs/p4env/share/psi4/basis/cc-pvdz-jkfit.gbs 
    atoms 9-17 entry H          line    51 file /home/bdw2292/miniconda3/envs/p4env/share/psi4/basis/cc-pvdz-jkfit.gbs 

   => Loading Basis Set <=

    Name: 6-31G*
    Role: ORBITAL
    Keyword: BASIS
    atoms 1    entry P          line   292 file /home/bdw2292/miniconda3/envs/p4env/share/psi4/basis/6-31gs.gbs 
    atoms 2-5  entry O          line   145 file /home/bdw2292/miniconda3/envs/p4env/share/psi4/basis/6-31gs.gbs 
    atoms 6-8  entry C          line   111 file /home/bdw2292/miniconda3/envs/p4env/share/psi4/basis/6-31gs.gbs 
    atoms 9-17 entry H          line    44 file /home/bdw2292/miniconda3/envs/p4env/share/psi4/basis/6-31gs.gbs 

  Reading orbitals from file 180, no projection.

  ==> Pre-Iterations <==

   -------------------------------------------------------
    Irrep   Nso     Nmo     Nalpha   Nbeta   Ndocc  Nsocc
   -------------------------------------------------------
     A        142     142       0       0       0       0
   -------------------------------------------------------
    Total     142     142      37      37      37       0
   -------------------------------------------------------

  ==> Integral Setup <==

  ==> DiskDFJK: Density-Fitted J/K Matrices <==

    J tasked:                  Yes
    K tasked:                  Yes
    wK tasked:                 Yes
    Omega:               2.000E-01
    OpenMP threads:              4
    Integrals threads:           4
    Memory [MiB]:            13247
    Algorithm:                Core
    Integral Cache:           NONE
    Schwarz Cutoff:          1E-12
    Fitting Condition:       1E-10

   => Auxiliary Basis Set <=

  Basis Set: (6-31G* AUX)
    Blend: CC-PVDZ-JKFIT
    Number of shells: 285
    Number of basis function: 922
    Number of Cartesian functions: 922
    Spherical Harmonics?: false
    Max angular momentum: 3

  Cached 100.0% of DFT collocation blocks in 1.033 [GiB].

  Minimum eigenvalue in the overlap matrix is 4.8152822997E-03.
  Using Symmetric Orthogonalization.

  SCF Guess: Orbitals guess was supplied from a previous computation.

  ==> Iterations <==

                           Total Energy        Delta E     RMS |[F,P]|

   @DF-RKS iter   0:  -761.92911823646216   -7.61929e+02   1.21115e-03 
   @DF-RKS iter   1:  -761.89742873739169    3.16895e-02   2.45102e-04 DIIS
   @DF-RKS iter   2:  -761.89776753834349   -3.38801e-04   2.05714e-04 DIIS
   @DF-RKS iter   3:  -761.89808558549635   -3.18047e-04   4.95433e-05 DIIS
   @DF-RKS iter   4:  -761.89810456315683   -1.89777e-05   1.93634e-05 DIIS
   @DF-RKS iter   5:  -761.89810836255981   -3.79940e-06   4.86128e-06 DIIS
   @DF-RKS iter   6:  -761.89810858758119   -2.25021e-07   1.53359e-06 DIIS
   @DF-RKS iter   7:  -761.89810861077876   -2.31976e-08   4.81689e-07 DIIS
   @DF-RKS iter   8:  -761.89810861328897   -2.51021e-09   1.23940e-07 DIIS
   @DF-RKS iter   9:  -761.89810861352476   -2.35787e-10   4.34937e-08 DIIS
   @DF-RKS iter  10:  -761.89810861353999   -1.52340e-11   1.66438e-08 DIIS
   @DF-RKS iter  11:  -761.89810861354044   -4.54747e-13   2.05527e-09 DIIS
  Energy and wave function converged.


  ==> Post-Iterations <==

    Orbital Energies [Eh]
    ---------------------

    Doubly Occupied:                                                      

       1A    -77.388422     2A    -19.308518     3A    -19.308313  
       4A    -19.307712     5A    -19.230633     6A    -10.359608  
       7A    -10.357730     8A    -10.356838     9A     -6.796725  
      10A     -4.946524    11A     -4.946077    12A     -4.943604  
      13A     -1.206606    14A     -1.143589    15A     -1.142081  
      16A     -1.057872    17A     -0.834887    18A     -0.806178  
      19A     -0.799790    20A     -0.674781    21A     -0.619598  
      22A     -0.617719    23A     -0.576952    24A     -0.568011  
      25A     -0.559920    26A     -0.539383    27A     -0.536716  
      28A     -0.529694    29A     -0.489635    30A     -0.459609  
      31A     -0.442502    32A     -0.428876    33A     -0.412278  
      34A     -0.403899    35A     -0.396247    36A     -0.376307  
      37A     -0.365391  

    Virtual:                                                              

      38A      0.134211    39A      0.171905    40A      0.179275  
      41A      0.185611    42A      0.202746    43A      0.218220  
      44A      0.226918    45A      0.233493    46A      0.240430  
      47A      0.243469    48A      0.255133    49A      0.259077  
      50A      0.274870    51A      0.291865    52A      0.303200  
      53A      0.329935    54A      0.424317    55A      0.456806  
      56A      0.474493    57A      0.502529    58A      0.553506  
      59A      0.597970    60A      0.618951    61A      0.630077  
      62A      0.655279    63A      0.676468    64A      0.696617  
      65A      0.709408    66A      0.742392    67A      0.787024  
      68A      0.801632    69A      0.886223    70A      0.900143  
      71A      0.920820    72A      0.933736    73A      0.935275  
      74A      0.946663    75A      0.957696    76A      1.005373  
      77A      1.006887    78A      1.017076    79A      1.030092  
      80A      1.047917    81A      1.085314    82A      1.092712  
      83A      1.105027    84A      1.133289    85A      1.144480  
      86A      1.180172    87A      1.187107    88A      1.219073  
      89A      1.234078    90A      1.250274    91A      1.262804  
      92A      1.304087    93A      1.381690    94A      1.439086  
      95A      1.539058    96A      1.557912    97A      1.575178  
      98A      1.587834    99A      1.603982   100A      1.639781  
     101A      1.643354   102A      1.661217   103A      1.755598  
     104A      1.763365   105A      1.830834   106A      1.875555  
     107A      1.914518   108A      1.953167   109A      1.989253  
     110A      2.046432   111A      2.097547   112A      2.112646  
     113A      2.123562   114A      2.160306   115A      2.182032  
     116A      2.200760   117A      2.209270   118A      2.222191  
     119A      2.225179   120A      2.306607   121A      2.340355  
     122A      2.397596   123A      2.435496   124A      2.462063  
     125A      2.470436   126A      2.477904   127A      2.503736  
     128A      2.620941   129A      2.736029   130A      2.756997  
     131A      2.837234   132A      2.865255   133A      2.933377  
     134A      2.979463   135A      3.614276   136A      3.876672  
     137A      4.030239   138A      4.069319   139A      4.191842  
     140A      4.326027   141A      4.343660   142A      4.379765  

    Final Occupation by Irrep:
              A 
    DOCC [    37 ]

  @DF-RKS Final Energy:  -761.89810861354044

   => Energetics <=

    Nuclear Repulsion Energy =            551.8451873486294517
    One-Electron Energy =               -2143.8601847955746962
    Two-Electron Energy =                 884.5932576078311058
    DFT Exchange-Correlation Energy =     -54.4686489245922800
    Empirical Dispersion Energy =          -0.0077198498340481
    VV10 Nonlocal Energy =                  0.0000000000000000
    Total Energy =                       -761.8981086135404439

Computation Completed


Properties will be evaluated at   0.000000,   0.000000,   0.000000 [a0]

Properties computed using the SCF density matrix

  Nuclear Dipole Moment: [e a0]
     X:    -1.9535      Y:    -0.0421      Z:     6.7108

  Electronic Dipole Moment: [e a0]
     X:     1.5580      Y:     0.1956      Z:    -5.1331

  Dipole Moment: [e a0]
     X:    -0.3955      Y:     0.1535      Z:     1.5777     Total:     1.6337

  Dipole Moment: [D]
     X:    -1.0052      Y:     0.3901      Z:     4.0101     Total:     4.1526


*** tstop() called on node37.bme.utexas.edu at Wed Apr  1 17:41:47 2020
Module time:
	user time   =      56.43 seconds =       0.94 minutes
	system time =       2.70 seconds =       0.05 minutes
	total time  =         15 seconds =       0.25 minutes
Total time:
	user time   =     144.58 seconds =       2.41 minutes
	system time =       7.42 seconds =       0.12 minutes
	total time  =         39 seconds =       0.65 minutes

*** tstart() called on node37.bme.utexas.edu
*** at Wed Apr  1 17:41:47 2020


         ------------------------------------------------------------
                                   SCF GRAD                          
                          Rob Parrish, Justin Turney,                
                       Andy Simmonett, and Alex Sokolov              
         ------------------------------------------------------------

  ==> Geometry <==

    Molecular point group: c1
    Full point group: C1

    Geometry (in Angstrom), charge = 0, multiplicity = 1:

       Center              X                  Y                   Z               Mass       
    ------------   -----------------  -----------------  -----------------  -----------------
         P            0.112512193979    -0.071129641985    -0.401178686333    30.973761998420
         O            1.289953548176     0.732600222641     0.327322898975    15.994914619570
         O           -0.436997878939    -0.955690443220     0.827311083638    15.994914619570
         O           -0.980583494467     1.080010520572    -0.594632478390    15.994914619570
         O            0.443478833301    -0.804186206329    -1.637268698395    15.994914619570
         C            2.425314849546    -0.002455762283     0.778044271249    12.000000000000
         C           -1.599072935475    -1.747731398035     0.600877144149    12.000000000000
         C           -1.371785804500     1.873151872101     0.523883596953    12.000000000000
         H            2.890523856431    -0.546391526552    -0.050704314045     1.007825032230
         H            2.148452872733    -0.699839957801     1.575412881704     1.007825032230
         H            3.127025521903     0.738471168632     1.169720332571     1.007825032230
         H           -2.457019544925    -1.121746878436     0.329103842805     1.007825032230
         H           -1.807323154022    -2.260318968671     1.542661355599     1.007825032230
         H           -1.420685787583    -2.485183931073    -0.187538335776     1.007825032230
         H           -1.778077853796     1.252587284611     1.330102874660     1.007825032230
         H           -2.148019528036     2.547182224178     0.158855912104     1.007825032230
         H           -0.529831435445     2.460239209369     0.902558423002     1.007825032230

  Nuclear repulsion =  551.845187348629452

  ==> Basis Set <==

  Basis Set: 6-31G*
    Blend: 6-31G*
    Number of shells: 68
    Number of basis function: 142
    Number of Cartesian functions: 142
    Spherical Harmonics?: false
    Max angular momentum: 2

  ==> DFJKGrad: Density-Fitted SCF Gradients <==

    Gradient:                    1
    J tasked:                  Yes
    K tasked:                  Yes
    wK tasked:                 Yes
    Omega:               2.000E-01
    OpenMP threads:              4
    Integrals threads:           4
    Memory [MiB]:            14305
    Schwarz Cutoff:          0E+00
    Fitting Condition:       1E-10

   => Auxiliary Basis Set <=

  Basis Set: (6-31G* AUX)
    Blend: CC-PVDZ-JKFIT
    Number of shells: 285
    Number of basis function: 922
    Number of Cartesian functions: 922
    Spherical Harmonics?: false
    Max angular momentum: 3

  ==> DFT Potential <==

   => Composite Functional: WB97X-D <= 

    wB97X-D Hyb-GGA Exchange-Correlation Functional

    J.-D. Chai and M. Head-Gordon, Phys. Chem. Chem. Phys. 10, 6615 (2008)

    Deriv               =              1
    GGA                 =           TRUE
    Meta                =          FALSE

    Exchange Hybrid     =           TRUE
    MP2 Hybrid          =          FALSE

   => Exchange-Correlation Functionals <=

    1.0000   wB97D range-separated functional

   => Exact (HF) Exchange <=

    0.7780            HF,LR [omega = 0.2000]
    0.2220               HF 

   => Molecular Quadrature <=

    Radial Scheme          =       TREUTLER
    Pruning Scheme         =           FLAT
    Nuclear Scheme         =       TREUTLER

    BS radius alpha        =              1
    Pruning alpha          =              1
    Radial Points          =             75
    Spherical Points       =            302
    Total Points           =         381379
    Total Blocks           =           2830
    Max Points             =            256
    Max Functions          =            137


  -Total Gradient:
     Atom            X                  Y                   Z
    ------   -----------------  -----------------  -----------------
       1       -0.002788298894    -0.001245729057     0.007113824525
       2        0.003017359058     0.003296113725     0.000516023976
       3       -0.000769963863    -0.001443282765     0.000243118572
       4       -0.002707204769     0.002942065088     0.000822001878
       5        0.003895822574    -0.003896687864    -0.007806426654
       6       -0.005475991223    -0.001551376142    -0.001453647681
       7        0.001532996148     0.004719540778    -0.001456912721
       8        0.002642631593    -0.003888775882    -0.000541429924
       9        0.000884887618    -0.000406676531    -0.000373943419
      10        0.000859114737    -0.000499148116     0.000713040809
      11        0.000426643504     0.001740316769     0.000513096698
      12       -0.000974383930    -0.000295381665     0.000051565328
      13        0.000287906389    -0.000242883224     0.001080199094
      14       -0.000275230490    -0.000777173623     0.000170259385
      15       -0.000871342046     0.000428602384     0.000767713115
      16        0.000043917341     0.000164618558    -0.000105382338
      17       -0.000212300969     0.001302068118     0.000806793430


*** tstop() called on node37.bme.utexas.edu at Wed Apr  1 17:41:53 2020
Module time:
	user time   =      22.90 seconds =       0.38 minutes
	system time =       0.53 seconds =       0.01 minutes
	total time  =          6 seconds =       0.10 minutes
Total time:
	user time   =     167.48 seconds =       2.79 minutes
	system time =       7.95 seconds =       0.13 minutes
	total time  =         45 seconds =       0.75 minutes

			-----------------------------------------
			 OPTKING 2.0: for geometry optimizations 
			  - R.A. King,  Bethel University        
			-----------------------------------------

	Previous internal coordinate definitions found.
	---Fragment 1 Geometry and Gradient---
	 P           0.2126172324       -0.1344155428       -0.7581178445
	 O           2.4376589206        1.3844137802        0.6185506337
	 O          -0.8258063086       -1.8059931984        1.5633913686
	 O          -1.8530342477        2.0409240965       -1.1236925295
	 O           0.8380535374       -1.5196916838       -3.0939894338
	 C           4.5831808336       -0.0046407181        1.4702905861
	 C          -3.0218099027       -3.3027336831        1.1354932375
	 C          -2.5922994733        3.5397440297        0.9899965199
	 H           5.4622984478       -1.0325303425       -0.0958172669
	 H           4.0599875229       -1.3225058519        2.9770988809
	 H           5.9092218237        1.3955082603        2.2104510719
	 H          -4.6430940248       -2.1197943823        0.6219161297
	 H          -3.4153457813       -4.2713838070        2.9152074664
	 H          -2.6847070489       -4.6963170011       -0.3543960926
	 H          -3.3600801734        2.3670469161        2.5135301518
	 H          -4.0591686201        4.8134767953        0.3001941673
	 H          -1.0012363056        4.6491783088        1.7055882317
	            -0.0027882989       -0.0012457291        0.0071138245
	             0.0030173591        0.0032961137        0.0005160240
	            -0.0007699639       -0.0014432828        0.0002431186
	            -0.0027072048        0.0029420651        0.0008220019
	             0.0038958226       -0.0038966879       -0.0078064267
	            -0.0054759912       -0.0015513761       -0.0014536477
	             0.0015329961        0.0047195408       -0.0014569127
	             0.0026426316       -0.0038887759       -0.0005414299
	             0.0008848876       -0.0004066765       -0.0003739434
	             0.0008591147       -0.0004991481        0.0007130408
	             0.0004266435        0.0017403168        0.0005130967
	            -0.0009743839       -0.0002953817        0.0000515653
	             0.0002879064       -0.0002428832        0.0010801991
	            -0.0002752305       -0.0007771736        0.0001702594
	            -0.0008713420        0.0004286024        0.0007677131
	             0.0000439173        0.0001646186       -0.0001053823
	            -0.0002123010        0.0013020681        0.0008067934

	---Fragment 1 Intrafragment Coordinates---
	 - Coordinate -           - BOHR/RAD -       - ANG/DEG -
	 R(1,2)           =         3.025371	       1.600957
	 R(1,3)           =         3.043337	       1.610465
	 R(1,4)           =         3.022030	       1.599189
	 R(1,5)           =         2.786836	       1.474730
	 R(2,6)           =         2.694104	       1.425659
	 R(3,7)           =         2.691795	       1.424437
	 R(4,8)           =         2.694560	       1.425900
	 R(6,9)           =         2.069323	       1.095039
	 R(6,10)          =         2.069051	       1.094894
	 R(6,11)          =         2.065585	       1.093060
	 R(7,12)          =         2.071634	       1.096262
	 R(7,13)          =         2.064107	       1.092278
	 R(7,14)          =         2.067724	       1.094192
	 R(8,15)          =         2.070232	       1.095520
	 R(8,16)          =         2.061535	       1.090917
	 R(8,17)          =         2.067462	       1.094054
	 B(1,2,6)         =         2.060906	     118.081216
	 B(1,3,7)         =         2.051625	     117.549429
	 B(1,4,8)         =         2.086370	     119.540187
	 B(2,1,3)         =         1.751355	     100.345266
	 B(2,1,4)         =         1.768462	     101.325420
	 B(2,1,5)         =         2.055447	     117.768442
	 B(2,6,9)         =         1.933889	     110.803657
	 B(2,6,10)        =         1.936133	     110.932241
	 B(2,6,11)        =         1.849432	     105.964622
	 B(3,1,4)         =         1.828044	     104.739209
	 B(3,1,5)         =         2.029661	     116.291009
	 B(3,7,12)        =         1.939457	     111.122684
	 B(3,7,13)        =         1.853984	     106.225459
	 B(3,7,14)        =         1.935091	     110.872565
	 B(4,1,5)         =         1.993050	     114.193380
	 B(4,8,15)        =         1.943294	     111.342561
	 B(4,8,16)        =         1.850859	     106.046436
	 B(4,8,17)        =         1.937841	     111.030086
	 B(9,6,10)        =         1.920056	     110.011133
	 B(9,6,11)        =         1.912578	     109.582674
	 B(10,6,11)       =         1.910411	     109.458475
	 B(12,7,13)       =         1.909761	     109.421248
	 B(12,7,14)       =         1.911137	     109.500091
	 B(13,7,14)       =         1.913537	     109.637572
	 B(15,8,16)       =         1.909586	     109.411245
	 B(15,8,17)       =         1.912042	     109.551909
	 B(16,8,17)       =         1.909056	     109.380854
	 D(1,2,6,9)       =         0.995852	      57.058131
	 D(1,2,6,10)      =        -1.142135	     -65.439498
	 D(1,2,6,11)      =         3.069148	     175.849204
	 D(1,3,7,12)      =        -1.062679	     -60.887029
	 D(1,3,7,13)      =        -3.138320	    -179.812497
	 D(1,3,7,14)      =         1.067067	      61.138419
	 D(1,4,8,15)      =        -1.022018	     -58.557325
	 D(1,4,8,16)      =        -3.097655	    -177.482553
	 D(1,4,8,17)      =         1.113484	      63.797962
	 D(2,1,3,7)       =         3.048526	     174.667699
	 D(2,1,4,8)       =        -0.898554	     -51.483358
	 D(3,1,2,6)       =         1.171842	      67.141582
	 D(3,1,4,8)       =         0.916738	      52.525194
	 D(4,1,2,6)       =         3.047667	     174.618461
	 D(4,1,3,7)       =         1.220459	      69.927132
	 D(5,1,2,6)       =        -1.048680	     -60.084961
	 D(5,1,3,7)       =        -0.997124	     -57.130971
	 D(5,1,4,8)       =        -3.126530	    -179.136959
	 R(7,8)           =         6.857489	       3.628827

	Current energy   :      -761.8981086135

	Energy change for the previous step:
		Projected    :        -0.0028988498
		Actual       :        -0.0041702449
	Energy ratio indicates good step: Trust radius increased to 1.000e+00.


	Performing BFGS update.
	Previous computed or guess Hessian on step 1.
	Steps to be used in Hessian update: 1
	Taking RFO optimization step.
	Going to follow RFO solution 1.
	Using RFO vector 1.
	Norm of target step-size    0.18563
	Projected energy change by RFO approximation:        -0.0006583073

	Back-transformation to cartesian coordinates...
	Could not converge backtransformation.
	Using first guess instead.

	--- Internal Coordinate Step in ANG or DEG, aJ/ANG or AJ/DEG ---
	 ---------------------------------------------------------------------------
	   Coordinate                Previous        Force       Change         New 
	   ----------                --------       ------       ------       ------
	    1 R(1,2)          =      1.600957    -0.008549    -0.002728     1.598229
	    2 R(1,3)          =      1.610465     0.001910    -0.000224     1.610241
	    3 R(1,4)          =      1.599189    -0.017595    -0.003821     1.595368
	    4 R(1,5)          =      1.474730    -0.077691    -0.008990     1.465740
	    5 R(2,6)          =      1.425659     0.019880     0.003906     1.429565
	    6 R(3,7)          =      1.424437     0.012173     0.003693     1.428130
	    7 R(4,8)          =      1.425900     0.003973     0.001942     1.427842
	    8 R(6,9)          =      1.095039    -0.007425    -0.000942     1.094097
	    9 R(6,10)         =      1.094894    -0.004855    -0.000736     1.094158
	   10 R(6,11)         =      1.093060    -0.013492    -0.002281     1.090779
	   11 R(7,12)         =      1.096262    -0.004555    -0.000081     1.096181
	   12 R(7,13)         =      1.092278    -0.007901    -0.000509     1.091769
	   13 R(7,14)         =      1.094192    -0.003346     0.000785     1.094977
	   14 R(8,15)         =      1.095520    -0.004672    -0.000257     1.095262
	   15 R(8,16)         =      1.090917    -0.000947     0.000020     1.090938
	   16 R(8,17)         =      1.094054    -0.006418    -0.000847     1.093207
	   17 B(1,2,6)        =    118.081216     0.000165     0.475605   118.556821
	   18 B(1,3,7)        =    117.549429    -0.000054    -0.145709   117.403721
	   19 B(1,4,8)        =    119.540187     0.000111     0.443575   119.983762
	   20 B(2,1,3)        =    100.345266    -0.000066    -0.333354   100.011912
	   21 B(2,1,4)        =    101.325420     0.000221     0.732337   102.057757
	   22 B(2,1,5)        =    117.768442     0.000068     0.585396   118.353838
	   23 B(2,6,9)        =    110.803657    -0.000068    -0.299946   110.503711
	   24 B(2,6,10)       =    110.932241    -0.000136    -0.625067   110.307173
	   25 B(2,6,11)       =    105.964622     0.000153     0.594057   106.558679
	   26 B(3,1,4)        =    104.739209     0.000062     0.517159   105.256368
	   27 B(3,1,5)        =    116.291009    -0.000084    -0.606987   115.684022
	   28 B(3,7,12)       =    111.122684    -0.000111    -0.562628   110.560057
	   29 B(3,7,13)       =    106.225459     0.000113     0.474700   106.700159
	   30 B(3,7,14)       =    110.872565    -0.000058    -0.256909   110.615657
	   31 B(4,1,5)        =    114.193380    -0.000157    -0.699906   113.493474
	   32 B(4,8,15)       =    111.342561    -0.000095    -0.472019   110.870542
	   33 B(4,8,16)       =    106.046436     0.000085     0.282802   106.329238
	   34 B(4,8,17)       =    111.030086    -0.000127    -0.560942   110.469145
	   35 B(9,6,10)       =    110.011133     0.000029    -0.055301   109.955831
	   36 B(9,6,11)       =    109.582674     0.000005     0.188054   109.770729
	   37 B(10,6,11)      =    109.458475     0.000023     0.227884   109.686359
	   38 B(12,7,13)      =    109.421248     0.000016     0.144172   109.565420
	   39 B(12,7,14)      =    109.500091     0.000015    -0.080905   109.419186
	   40 B(13,7,14)      =    109.637572     0.000029     0.305984   109.943557
	   41 B(15,8,16)      =    109.411245     0.000047     0.394497   109.805743
	   42 B(15,8,17)      =    109.551909     0.000029    -0.099459   109.452450
	   43 B(16,8,17)      =    109.380854     0.000068     0.489898   109.870752
	   44 D(1,2,6,9)      =     57.058131    -0.000014    -1.258965    55.799166
	   45 D(1,2,6,10)     =    -65.439498     0.000011    -0.558431   -65.997928
	   46 D(1,2,6,11)     =    175.849204     0.000000    -0.844211   175.004993
	   47 D(1,3,7,12)     =    -60.887029     0.000006    -2.982473   -63.869503
	   48 D(1,3,7,13)     =   -179.812497    -0.000000    -3.131411  -182.943908
	   49 D(1,3,7,14)     =     61.138419    -0.000016    -3.642799    57.495621
	   50 D(1,4,8,15)     =    -58.557325     0.000015     2.308167   -56.249157
	   51 D(1,4,8,16)     =   -177.482553     0.000003     1.921020  -175.561533
	   52 D(1,4,8,17)     =     63.797962    -0.000012     1.469630    65.267592
	   53 D(2,1,3,7)      =    174.667699     0.000027     2.989911   177.657610
	   54 D(2,1,4,8)      =    -51.483358     0.000003    -0.107622   -51.590980
	   55 D(3,1,2,6)      =     67.141582    -0.000011     0.830041    67.971623
	   56 D(3,1,4,8)      =     52.525194     0.000007    -0.080177    52.445017
	   57 D(4,1,2,6)      =    174.618461     0.000013     1.469466   176.087928
	   58 D(4,1,3,7)      =     69.927132    -0.000026     2.183486    72.110618
	   59 D(5,1,2,6)      =    -60.084961     0.000016     1.516940   -58.568021
	   60 D(5,1,3,7)      =    -57.130971     0.000023     3.107231   -54.023740
	   61 D(5,1,4,8)      =   -179.136959    -0.000032    -0.943849  -180.080807
	   62 R(7,8)          =      3.628827     0.012162     0.051333     3.680160
	 ---------------------------------------------------------------------------
	Successfully symmetrized geometry.

  ==> Convergence Check <==

  Measures of convergence in internal coordinates in au.
  Criteria marked as inactive (o), active & met (*), and active & unmet ( ).
  ---------------------------------------------------------------------------------------------
   Step     Total Energy     Delta E     MAX Force     RMS Force      MAX Disp      RMS Disp   
  ---------------------------------------------------------------------------------------------
    Convergence Criteria    1.00e-06 *    3.00e-04 *             o    1.20e-03 *             o
  ---------------------------------------------------------------------------------------------
      2    -761.89810861   -4.17e-03      9.43e-03      1.66e-03 o    9.70e-02      2.36e-02 o  ~
  ---------------------------------------------------------------------------------------------

	Writing optimization data to binary file.
	Structure for next step:
	Cartesian Geometry (in Angstrom)
	    P     0.1033173653  -0.0578089616  -0.3832577135
	    O     1.2896991506   0.7247636643   0.3477797415
	    O    -0.4504392831  -0.9383018634   0.8459542085
	    O    -0.9776709263   1.0965516694  -0.5932961244
	    O     0.4107222457  -0.8004967205  -1.6089461511
	    C     2.4316658695  -0.0171202841   0.7827223803
	    C    -1.5873141198  -1.7672237729   0.6010909885
	    C    -1.3810157951   1.9060586233   0.5115773353
	    H     2.8742227815  -0.5651591142  -0.0544421577
	    H     2.1513753287  -0.7136912947   1.5785915844
	    H     3.1474711699   0.7108380063   1.1667774818
	    H    -2.4624191921  -1.1563369326   0.3508506514
	    H    -1.7781272268  -2.3186315730   1.5238578551
	    H    -1.3855384125  -2.4665433651  -0.2169640066
	    H    -1.7624970031   1.2866705909   1.3303754139
	    H    -2.1734218766   2.5579478720   0.1410661951
	    H    -0.5421658088   2.5080512436   0.8707943938
			--------------------------
			 OPTKING Finished Execution 
			--------------------------

    Structure for next step:
    Molecular point group: c1
    Full point group: C1

    Geometry (in Angstrom), charge = 0, multiplicity = 1:

    P            0.109248198723    -0.063749237091    -0.393870297923
    O            1.295629988614     0.718823391876     0.337167159980
    O           -0.444508451872    -0.944242142390     0.835341628986
    O           -0.971740097217     1.090611398390    -0.603908709648
    O            0.416653080276    -0.806436998932    -1.619558740353
    C            2.437596712028    -0.023060559431     0.772109800478
    C           -1.581383293050    -1.773164055145     0.590478407968
    C           -1.375084967565     1.900118355528     0.500964754426
    H            2.880153625726    -0.571099391671    -0.065054740845
    H            2.157306170085    -0.719631572744     1.567979007737
    H            3.153402015247     0.704897733805     1.156164903518
    H           -2.456488368766    -1.162277212439     0.340238069895
    H           -1.772196400806    -2.324571857349     1.513245278195
    H           -1.379607584957    -2.472483650071    -0.227576590368
    H           -1.756566177050     1.280730320728     1.319762836259
    H           -2.167491052138     2.552007606750     0.130453612730
    H           -0.536234977915     2.502110978166     0.860181814369

gradient() will perform analytic gradient computation.

*** tstart() called on node37.bme.utexas.edu
*** at Wed Apr  1 17:41:53 2020

   => Loading Basis Set <=

    Name: 6-31G*
    Role: ORBITAL
    Keyword: BASIS
    atoms 1    entry P          line   292 file /home/bdw2292/miniconda3/envs/p4env/share/psi4/basis/6-31gs.gbs 
    atoms 2-5  entry O          line   145 file /home/bdw2292/miniconda3/envs/p4env/share/psi4/basis/6-31gs.gbs 
    atoms 6-8  entry C          line   111 file /home/bdw2292/miniconda3/envs/p4env/share/psi4/basis/6-31gs.gbs 
    atoms 9-17 entry H          line    44 file /home/bdw2292/miniconda3/envs/p4env/share/psi4/basis/6-31gs.gbs 


         ---------------------------------------------------------
                                   SCF
               by Justin Turney, Rob Parrish, Andy Simmonett
                          and Daniel G. A. Smith
                              RKS Reference
                        4 Threads,  19073 MiB Core
         ---------------------------------------------------------

  ==> Geometry <==

    Molecular point group: c1
    Full point group: C1

    Geometry (in Angstrom), charge = 0, multiplicity = 1:

       Center              X                  Y                   Z               Mass       
    ------------   -----------------  -----------------  -----------------  -----------------
         P            0.109248198723    -0.063749237091    -0.393870297923    30.973761998420
         O            1.295629988614     0.718823391876     0.337167159980    15.994914619570
         O           -0.444508451872    -0.944242142390     0.835341628986    15.994914619570
         O           -0.971740097217     1.090611398390    -0.603908709648    15.994914619570
         O            0.416653080276    -0.806436998932    -1.619558740353    15.994914619570
         C            2.437596712028    -0.023060559431     0.772109800478    12.000000000000
         C           -1.581383293050    -1.773164055145     0.590478407968    12.000000000000
         C           -1.375084967565     1.900118355528     0.500964754426    12.000000000000
         H            2.880153625726    -0.571099391671    -0.065054740845     1.007825032230
         H            2.157306170085    -0.719631572744     1.567979007737     1.007825032230
         H            3.153402015247     0.704897733805     1.156164903518     1.007825032230
         H           -2.456488368766    -1.162277212439     0.340238069895     1.007825032230
         H           -1.772196400806    -2.324571857349     1.513245278195     1.007825032230
         H           -1.379607584957    -2.472483650071    -0.227576590368     1.007825032230
         H           -1.756566177050     1.280730320728     1.319762836259     1.007825032230
         H           -2.167491052138     2.552007606750     0.130453612730     1.007825032230
         H           -0.536234977915     2.502110978166     0.860181814369     1.007825032230

  Running in c1 symmetry.

  Rotational constants: A =      0.06725  B =      0.05557  C =      0.04475 [cm^-1]
  Rotational constants: A =   2016.02736  B =   1665.90946  C =   1341.64656 [MHz]
  Nuclear repulsion =  551.925504516109754

  Charge       = 0
  Multiplicity = 1
  Electrons    = 74
  Nalpha       = 37
  Nbeta        = 37

  ==> Algorithm <==

  SCF Algorithm Type is DF.
  DIIS enabled.
  MOM disabled.
  Fractional occupation disabled.
  Guess Type is READ.
  Energy threshold   = 1.00e-08
  Density threshold  = 1.00e-08
  Integral threshold = 0.00e+00

  ==> Primary Basis <==

  Basis Set: 6-31G*
    Blend: 6-31G*
    Number of shells: 68
    Number of basis function: 142
    Number of Cartesian functions: 142
    Spherical Harmonics?: false
    Max angular momentum: 2

  ==> DFT Potential <==

   => Composite Functional: WB97X-D <= 

    wB97X-D Hyb-GGA Exchange-Correlation Functional

    J.-D. Chai and M. Head-Gordon, Phys. Chem. Chem. Phys. 10, 6615 (2008)

    Deriv               =              1
    GGA                 =           TRUE
    Meta                =          FALSE

    Exchange Hybrid     =           TRUE
    MP2 Hybrid          =          FALSE

   => Exchange-Correlation Functionals <=

    1.0000   wB97D range-separated functional

   => Exact (HF) Exchange <=

    0.7780            HF,LR [omega = 0.2000]
    0.2220               HF 

   => Molecular Quadrature <=

    Radial Scheme          =       TREUTLER
    Pruning Scheme         =           FLAT
    Nuclear Scheme         =       TREUTLER

    BS radius alpha        =              1
    Pruning alpha          =              1
    Radial Points          =             75
    Spherical Points       =            302
    Total Points           =         381387
    Total Blocks           =           2837
    Max Points             =            256
    Max Functions          =            137

   => WB97X-D: Empirical Dispersion <=

    Chai and Head-Gordon Dispersion Correction
    Chai, J.-D.; Head-Gordon, M. (2010), J. Chem. Phys., 132: 6615-6620

        s6 =       1.000000

   => Loading Basis Set <=

    Name: (6-31G* AUX)
    Role: JKFIT
    Keyword: DF_BASIS_SCF
    atoms 1    entry P          line   519 file /home/bdw2292/miniconda3/envs/p4env/share/psi4/basis/cc-pvdz-jkfit.gbs 
    atoms 2-5  entry O          line   221 file /home/bdw2292/miniconda3/envs/p4env/share/psi4/basis/cc-pvdz-jkfit.gbs 
    atoms 6-8  entry C          line   121 file /home/bdw2292/miniconda3/envs/p4env/share/psi4/basis/cc-pvdz-jkfit.gbs 
    atoms 9-17 entry H          line    51 file /home/bdw2292/miniconda3/envs/p4env/share/psi4/basis/cc-pvdz-jkfit.gbs 

   => Loading Basis Set <=

    Name: 6-31G*
    Role: ORBITAL
    Keyword: BASIS
    atoms 1    entry P          line   292 file /home/bdw2292/miniconda3/envs/p4env/share/psi4/basis/6-31gs.gbs 
    atoms 2-5  entry O          line   145 file /home/bdw2292/miniconda3/envs/p4env/share/psi4/basis/6-31gs.gbs 
    atoms 6-8  entry C          line   111 file /home/bdw2292/miniconda3/envs/p4env/share/psi4/basis/6-31gs.gbs 
    atoms 9-17 entry H          line    44 file /home/bdw2292/miniconda3/envs/p4env/share/psi4/basis/6-31gs.gbs 

  Reading orbitals from file 180, no projection.

  ==> Pre-Iterations <==

   -------------------------------------------------------
    Irrep   Nso     Nmo     Nalpha   Nbeta   Ndocc  Nsocc
   -------------------------------------------------------
     A        142     142       0       0       0       0
   -------------------------------------------------------
    Total     142     142      37      37      37       0
   -------------------------------------------------------

  ==> Integral Setup <==

  ==> DiskDFJK: Density-Fitted J/K Matrices <==

    J tasked:                  Yes
    K tasked:                  Yes
    wK tasked:                 Yes
    Omega:               2.000E-01
    OpenMP threads:              4
    Integrals threads:           4
    Memory [MiB]:            13248
    Algorithm:                Core
    Integral Cache:           NONE
    Schwarz Cutoff:          1E-12
    Fitting Condition:       1E-10

   => Auxiliary Basis Set <=

  Basis Set: (6-31G* AUX)
    Blend: CC-PVDZ-JKFIT
    Number of shells: 285
    Number of basis function: 922
    Number of Cartesian functions: 922
    Spherical Harmonics?: false
    Max angular momentum: 3

  Cached 100.0% of DFT collocation blocks in 1.032 [GiB].

  Minimum eigenvalue in the overlap matrix is 4.8699253273E-03.
  Using Symmetric Orthogonalization.

  SCF Guess: Orbitals guess was supplied from a previous computation.

  ==> Iterations <==

                           Total Energy        Delta E     RMS |[F,P]|

   @DF-RKS iter   0:  -761.90384994633496   -7.61904e+02   5.76983e-04 
   @DF-RKS iter   1:  -761.89856294468541    5.28700e-03   7.15628e-05 DIIS
   @DF-RKS iter   2:  -761.89865111397785   -8.81693e-05   3.93647e-05 DIIS
   @DF-RKS iter   3:  -761.89866420658848   -1.30926e-05   1.90243e-05 DIIS
   @DF-RKS iter   4:  -761.89866769457421   -3.48799e-06   6.06265e-06 DIIS
[...]

   => Exchange-Correlation Functionals <=

    1.0000   wB97D range-separated functional

   => Exact (HF) Exchange <=

    0.7780            HF,LR [omega = 0.2000]
    0.2220               HF 

   => Molecular Quadrature <=

    Radial Scheme          =       TREUTLER
    Pruning Scheme         =           FLAT
    Nuclear Scheme         =       TREUTLER

    BS radius alpha        =              1
    Pruning alpha          =              1
    Radial Points          =             75
    Spherical Points       =            302
    Total Points           =         381421
    Total Blocks           =           2833
    Max Points             =            256
    Max Functions          =            137


  -Total Gradient:
     Atom            X                  Y                   Z
    ------   -----------------  -----------------  -----------------
       1       -0.000037963091     0.000007874241     0.000052332045
       2        0.000001647114     0.000067580572     0.000062844229
       3       -0.000016735361     0.000057886395     0.000017495716
       4       -0.000016249975     0.000055806801     0.000053196583
       5       -0.000032706156     0.000056656724     0.000035512655
       6       -0.000008015777     0.000004094879     0.000020446587
       7       -0.000049548676     0.000028869234     0.000023278399
       8       -0.000025922087     0.000042159871     0.000082726579
       9       -0.000029149590     0.000026253249     0.000022091759
      10       -0.000014900236     0.000008570037     0.000027324842
      11       -0.000018556656     0.000009675236     0.000041888926
      12       -0.000015164151     0.000032344566     0.000041284579
      13       -0.000026359084     0.000042813000     0.000013038136
      14       -0.000052334772     0.000053347463     0.000029919384
      15       -0.000006437208     0.000042827552     0.000070423794
      16       -0.000003616124     0.000051690257     0.000089215828
      17        0.000001151675     0.000025006427     0.000069344867


*** tstop() called on node37.bme.utexas.edu at Wed Apr  1 17:44:57 2020
Module time:
	user time   =      22.52 seconds =       0.38 minutes
	system time =       0.34 seconds =       0.01 minutes
	total time  =          5 seconds =       0.08 minutes
Total time:
	user time   =     874.22 seconds =      14.57 minutes
	system time =      24.56 seconds =       0.41 minutes
	total time  =        229 seconds =       3.82 minutes

			-----------------------------------------
			 OPTKING 2.0: for geometry optimizations 
			  - R.A. King,  Bethel University        
			-----------------------------------------

	Previous internal coordinate definitions found.
	---Fragment 1 Geometry and Gradient---
	 P           0.1452088058       -0.0850588328       -0.7240409821
	 O           2.4502285473        1.3021877817        0.6469857463
	 O          -0.9677852676       -1.7102545441        1.5982932723
	 O          -1.7781089864        2.1963143509       -1.1256352996
	 O           0.6548460116       -1.5336659737       -3.0354352601
	 C           4.5645967354       -0.1826229090        1.4316730647
	 C          -2.7809651621       -3.6329812850        1.0423651258
	 C          -2.4442598210        3.8035461255        0.9390320354
	 H           5.3155563423       -1.2660480538       -0.1598292364
	 H           4.0105311004       -1.4597385158        2.9598979460
	 H           5.9893954871        1.1417471810        2.1102063228
	 H          -4.5288087569       -2.7947985582        0.3183011957
	 H          -3.1669645094       -4.6017987992        2.8198499512
	 H          -2.0267641238       -4.9607625351       -0.3473528306
	 H          -3.1110799174        2.6895829246        2.5482674389
	 H          -3.9587680415        5.0241796550        0.2598088813
	 H          -0.8203041952        4.9449514281        1.5091591510
	            -0.0000379631        0.0000078742        0.0000523320
	             0.0000016471        0.0000675806        0.0000628442
	            -0.0000167354        0.0000578864        0.0000174957
	            -0.0000162500        0.0000558068        0.0000531966
	            -0.0000327062        0.0000566567        0.0000355127
	            -0.0000080158        0.0000040949        0.0000204466
	            -0.0000495487        0.0000288692        0.0000232784
	            -0.0000259221        0.0000421599        0.0000827266
	            -0.0000291496        0.0000262532        0.0000220918
	            -0.0000149002        0.0000085700        0.0000273248
	            -0.0000185567        0.0000096752        0.0000418889
	            -0.0000151642        0.0000323446        0.0000412846
	            -0.0000263591        0.0000428130        0.0000130381
	            -0.0000523348        0.0000533475        0.0000299194
	            -0.0000064372        0.0000428276        0.0000704238
	            -0.0000036161        0.0000516903        0.0000892158
	             0.0000011517        0.0000250064        0.0000693449

	---Fragment 1 Intrafragment Coordinates---
	 - Coordinate -           - BOHR/RAD -       - ANG/DEG -
	 R(1,2)           =         3.019484	       1.597842
	 R(1,3)           =         3.045202	       1.611451
	 R(1,4)           =         3.010829	       1.593262
	 R(1,5)           =         2.775020	       1.468477
	 R(2,6)           =         2.700176	       1.428872
	 R(3,7)           =         2.700658	       1.429127
	 R(4,8)           =         2.699963	       1.428759
	 R(6,9)           =         2.066550	       1.093571
	 R(6,10)          =         2.067241	       1.093937
	 R(6,11)          =         2.060198	       1.090210
	 R(7,12)          =         2.069245	       1.094997
	 R(7,13)          =         2.060838	       1.090549
	 R(7,14)          =         2.064737	       1.092612
	 R(8,15)          =         2.067656	       1.094156
	 R(8,16)          =         2.060346	       1.090288
	 R(8,17)          =         2.065208	       1.092861
	 B(1,2,6)         =         2.068124	     118.494786
	 B(1,3,7)         =         2.058230	     117.927885
	 B(1,4,8)         =         2.102110	     120.442036
	 B(2,1,3)         =         1.749677	     100.249103
	 B(2,1,4)         =         1.772247	     101.542263
	 B(2,1,5)         =         2.068984	     118.544051
	 B(2,6,9)         =         1.927342	     110.428546
	 B(2,6,10)        =         1.922691	     110.162054
	 B(2,6,11)        =         1.858513	     106.484949
	 B(3,1,4)         =         1.846927	     105.821102
	 B(3,1,5)         =         2.008363	     115.070712
	 B(3,7,12)        =         1.929165	     110.532989
	 B(3,7,13)        =         1.857611	     106.433252
	 B(3,7,14)        =         1.929591	     110.557418
	 B(4,1,5)         =         1.984236	     113.688366
	 B(4,8,15)        =         1.932661	     110.733295
	 B(4,8,16)        =         1.856606	     106.375699
	 B(4,8,17)        =         1.924203	     110.248716
	 B(9,6,10)        =         1.920726	     110.049471
	 B(9,6,11)        =         1.917020	     109.837183
	 B(10,6,11)       =         1.916670	     109.817087
	 B(12,7,13)       =         1.911363	     109.513012
	 B(12,7,14)       =         1.910821	     109.481962
	 B(13,7,14)       =         1.924773	     110.281392
	 B(15,8,16)       =         1.916325	     109.797331
	 B(15,8,17)       =         1.913994	     109.663766
	 B(16,8,17)       =         1.919410	     109.974064
	 D(1,2,6,9)       =         0.949109	      54.379964
	 D(1,2,6,10)      =        -1.176143	     -67.388050
	 D(1,2,6,11)      =         3.029552	     173.580567
	 D(1,3,7,12)      =        -1.149202	     -65.844409
	 D(1,3,7,13)      =         3.059862	     175.317160
	 D(1,3,7,14)      =         0.969405	      55.542804
	 D(1,4,8,15)      =        -0.924798	     -52.986997
	 D(1,4,8,16)      =        -3.006185	    -172.241728
	 D(1,4,8,17)      =         1.196530	      68.556136
	 D(2,1,3,7)       =        -2.928354	    -167.782339
	 D(2,1,4,8)       =        -0.886835	     -50.811908
	 D(3,1,2,6)       =         1.199499	      68.726237
	 D(3,1,4,8)       =         0.933153	      53.465728
	 D(4,1,2,6)       =         3.095708	     177.371001
	 D(4,1,3,7)       =         1.518341	      86.994558
	 D(5,1,2,6)       =        -1.000554	     -57.327499
	 D(5,1,3,7)       =        -0.687953	     -39.416795
	 D(5,1,4,8)       =        -3.129138	    -179.286382
	 R(7,8)           =         7.444863	       3.939652

	Current energy   :      -761.8992650220

	Energy change for the previous step:
		Projected    :        -0.0000032450
		Actual       :        -0.0000005498
	Energy ratio indicates iffy step: Trust radius decreased to 6.250e-02.


	Performing BFGS update.
	Previous computed or guess Hessian on step 1.
	Steps to be used in Hessian update: 11 10
	Taking RFO optimization step.
	Going to follow RFO solution 1.
	Using RFO vector 1.
	Norm of target step-size    0.00352
	Projected energy change by RFO approximation:         0.0000001758

	Back-transformation to cartesian coordinates...
	Could not converge backtransformation.
	Using first guess instead.

	--- Internal Coordinate Step in ANG or DEG, aJ/ANG or AJ/DEG ---
	 ---------------------------------------------------------------------------
	   Coordinate                Previous        Force       Change         New 
	   ----------                --------       ------       ------       ------
	    1 R(1,2)          =      1.597842    -0.000306    -0.000059     1.597783
	    2 R(1,3)          =      1.611451     0.000153     0.000033     1.611485
	    3 R(1,4)          =      1.593262    -0.000052    -0.000011     1.593251
	    4 R(1,5)          =      1.468477     0.000012     0.000008     1.468485
	    5 R(2,6)          =      1.428872    -0.000101    -0.000014     1.428858
	    6 R(3,7)          =      1.429127    -0.000185    -0.000044     1.429083
	    7 R(4,8)          =      1.428759    -0.000071    -0.000012     1.428748
	    8 R(6,9)          =      1.093571     0.000005     0.000003     1.093574
	    9 R(6,10)         =      1.093937    -0.000009    -0.000002     1.093934
	   10 R(6,11)         =      1.090210     0.000011     0.000001     1.090210
	   11 R(7,12)         =      1.094997     0.000177     0.000002     1.095000
	   12 R(7,13)         =      1.090549     0.000123     0.000008     1.090556
	   13 R(7,14)         =      1.092612     0.000127    -0.000007     1.092605
	   14 R(8,15)         =      1.094156     0.000029     0.000006     1.094162
	   15 R(8,16)         =      1.090288     0.000024     0.000006     1.090294
	   16 R(8,17)         =      1.092861     0.000025     0.000008     1.092869
	   17 B(1,2,6)        =    118.494786     0.000001     0.007498   118.502284
	   18 B(1,3,7)        =    117.927885    -0.000002    -0.006658   117.921228
	   19 B(1,4,8)        =    120.442036     0.000001     0.002742   120.444778
	   20 B(2,1,3)        =    100.249103    -0.000001    -0.004471   100.244633
	   21 B(2,1,4)        =    101.542263     0.000000     0.001706   101.543970
	   22 B(2,1,5)        =    118.544051     0.000000     0.001716   118.545767
	   23 B(2,6,9)        =    110.428546     0.000000     0.000727   110.429274
	   24 B(2,6,10)       =    110.162054    -0.000001    -0.003050   110.159004
	   25 B(2,6,11)       =    106.484949     0.000000     0.000998   106.485947
	   26 B(3,1,4)        =    105.821102     0.000001     0.002758   105.823859
	   27 B(3,1,5)        =    115.070712    -0.000000    -0.000564   115.070148
	   28 B(3,7,12)       =    110.532989    -0.000001    -0.004614   110.528375
	   29 B(3,7,13)       =    106.433252     0.000001     0.004892   106.438143
	   30 B(3,7,14)       =    110.557418    -0.000001    -0.003727   110.553691
	   31 B(4,1,5)        =    113.688366    -0.000000    -0.001014   113.687352
	   32 B(4,8,15)       =    110.733295    -0.000001    -0.003365   110.729930
	   33 B(4,8,16)       =    106.375699    -0.000001    -0.001877   106.373822
	   34 B(4,8,17)       =    110.248716     0.000002     0.005103   110.253819
	   35 B(9,6,10)       =    110.049471     0.000000     0.000222   110.049694
	   36 B(9,6,11)       =    109.837183    -0.000000    -0.001526   109.835656
	   37 B(10,6,11)      =    109.817087     0.000000     0.002661   109.819748
	   38 B(12,7,13)      =    109.513012     0.000000    -0.000869   109.512143
	   39 B(12,7,14)      =    109.481962     0.000001     0.004841   109.486803
	   40 B(13,7,14)      =    110.281392     0.000000    -0.000615   110.280777
	   41 B(15,8,16)      =    109.797331     0.000000    -0.000507   109.796825
	   42 B(15,8,17)      =    109.663766     0.000000     0.000630   109.664396
	   43 B(16,8,17)      =    109.974064    -0.000000    -0.000055   109.974009
	   44 D(1,2,6,9)      =     54.379964    -0.000000    -0.084743    54.295221
	   45 D(1,2,6,10)     =    -67.388050    -0.000000    -0.083475   -67.471525
	   46 D(1,2,6,11)     =    173.580567    -0.000000    -0.085585   173.494982
	   47 D(1,3,7,12)     =    -65.844409    -0.000000    -0.041652   -65.886061
	   48 D(1,3,7,13)     =    175.317160    -0.000000    -0.040992   175.276168
	   49 D(1,3,7,14)     =     55.542804    -0.000000    -0.041124    55.501680
	   50 D(1,4,8,15)     =    -52.986997    -0.000000     0.031672   -52.955325
	   51 D(1,4,8,16)     =   -172.241728     0.000000     0.035252  -172.206477
	   52 D(1,4,8,17)     =     68.556136     0.000000     0.033649    68.589784
	   53 D(2,1,3,7)      =   -167.782339    -0.000000    -0.031182  -167.813521
	   54 D(2,1,4,8)      =    -50.811908     0.000000    -0.004821   -50.816729
	   55 D(3,1,2,6)      =     68.726237    -0.000000    -0.037802    68.688436
	   56 D(3,1,4,8)      =     53.465728    -0.000000    -0.008269    53.457459
	   57 D(4,1,2,6)      =    177.371001    -0.000000    -0.035690   177.335310
	   58 D(4,1,3,7)      =     86.994558    -0.000000    -0.032209    86.962349
	   59 D(5,1,2,6)      =    -57.327499    -0.000000    -0.034537   -57.362036
	   60 D(5,1,3,7)      =    -39.416795    -0.000000    -0.032672   -39.449467
	   61 D(5,1,4,8)      =   -179.286382    -0.000000    -0.007582  -179.293964
	   62 R(7,8)          =      3.939652    -0.000015    -0.000527     3.939125
	 ---------------------------------------------------------------------------
	Successfully symmetrized geometry.

  ==> Convergence Check <==

  Measures of convergence in internal coordinates in au.
  Criteria marked as inactive (o), active & met (*), and active & unmet ( ).
  ---------------------------------------------------------------------------------------------
   Step     Total Energy     Delta E     MAX Force     RMS Force      MAX Disp      RMS Disp   
  ---------------------------------------------------------------------------------------------
    Convergence Criteria    1.00e-06 *    3.00e-04 *             o    1.20e-03 *             o
  ---------------------------------------------------------------------------------------------
     12    -761.89926502   -5.50e-07 *    3.72e-05 *    1.09e-05 o    1.49e-03      4.47e-04 o  ~
  ---------------------------------------------------------------------------------------------


  **** Optimization is complete! (in 12 steps) ****

  ==> Optimization Summary <==

  Measures of convergence in internal coordinates in au.
  --------------------------------------------------------------------------------------------------------------- ~
   Step         Total Energy             Delta E       MAX Force       RMS Force        MAX Disp        RMS Disp  ~
  --------------------------------------------------------------------------------------------------------------- ~
      1    -761.893938368603   -761.893938368603      0.04075985      0.00729246      0.06886166      0.02544563  ~
      2    -761.898108613540     -0.004170244937      0.00942997      0.00165574      0.09700533      0.02356166  ~
      3    -761.898668032170     -0.000559418630      0.00307646      0.00053974      0.12321199      0.02549698  ~
      4    -761.898932991442     -0.000264959272      0.00341451      0.00058297      0.13761228      0.02718552  ~
      5    -761.899112926901     -0.000179935459      0.00169254      0.00035134      0.06437721      0.01376951  ~
      6    -761.899179227945     -0.000066301044      0.00087985      0.00023659      0.07025248      0.01284361  ~
      7    -761.899228020554     -0.000048792609      0.00064680      0.00013469      0.12272596      0.02225946  ~
      8    -761.899262879629     -0.000034859075      0.00201174      0.00039213      0.06838923      0.01243019  ~
      9    -761.899253695344      0.000009184285      0.00048631      0.00011786      0.08575045      0.01629169  ~
     10    -761.899266240582     -0.000012545238      0.00087005      0.00017969      0.05165543      0.00972545  ~
     11    -761.899264472210      0.000001768372      0.00007573      0.00002250      0.00648357      0.00134656  ~
     12    -761.899265022022     -0.000000549812      0.00003720      0.00001094      0.00149374      0.00044723  ~
  --------------------------------------------------------------------------------------------------------------- ~

	Writing optimization data to binary file.
	Final energy is   -761.8992650220220
	Final (previous) structure:
	Cartesian Geometry (in Angstrom)
	    P     0.0768411905  -0.0450111957  -0.3831459858
	    O     1.2966051031   0.6890880954   0.3423701112
	    O    -0.5121299064  -0.9050277256   0.8457803724
	    O    -0.9409347500   1.1622394974  -0.5956605457
	    O     0.3465295845  -0.8115810789  -1.6062831578
	    C     2.4154805588  -0.0966398812   0.7576087560
	    C    -1.4716233817  -1.9224908953   0.5515958676
	    C    -1.2934465891   2.0127499214   0.4969143513
	    H     2.8128712673  -0.6699637751  -0.0845779892
	    H     2.1222816527  -0.7724603531   1.5663105328
	    H     3.1694515850   0.6041865861   1.1166730914
	    H    -2.3965423762  -1.4789436996   0.1684377382
	    H    -1.6758854388  -2.4351670431   1.4922003258
	    H    -1.0725173815  -2.6251224708  -0.1838112013
	    H    -1.6463125864   1.4232659843   1.3484850500
	    H    -2.0948898217   2.6586813653   0.1374849386
	    H    -0.4340862842   2.6167555933   0.7986126268
	Saving final (previous) structure.
			--------------------------
			 OPTKING Finished Execution 
			--------------------------

    Final optimized geometry and variables:
    Molecular point group: c1
    Full point group: C1

    Geometry (in Angstrom), charge = 0, multiplicity = 1:

    P            0.076841190826    -0.045011195896    -0.383145987314
    O            1.296605108164     0.689088098096     0.342370112566
    O           -0.512129908448    -0.905027729164     0.845780375692
    O           -0.940934753666     1.162239501963    -0.595660548080
    O            0.346529585859    -0.811581082069    -1.606283164122
    C            2.415480568258    -0.096639881587     0.757608758996
    C           -1.471623387436    -1.922490902827     0.551595869788
    C           -1.293446594222     2.012749929349     0.496914353216
    H            2.812871278381    -0.669963777699    -0.084577989523
    H            2.122281661029    -0.772460356089     1.566310538917
    H            3.169451597461     0.604186588517     1.116673095837
    H           -2.396542385608    -1.478943705430     0.168437738883
    H           -1.675885445352    -2.435167052644     1.492200331663
    H           -1.072517385701    -2.625122481101    -0.183811202012
    H           -1.646312592870     1.423265989913     1.348485055338
    H           -2.094889829895     2.658681375731     0.137484939093
    H           -0.434086285942     2.616755603631     0.798612629981

	Removing binary optimization data file.
	Cleaning optimization helper files.

    Psi4 stopped on: Wednesday, 01 April 2020 05:44PM
    Psi4 wall time for execution: 0:03:50.03

*** Psi4 exiting successfully. Buy a developer a beer!
