Generated by Psi4
        SP                        DF-MP2                      6-311G**
Number of atoms                            I               17
Charge                                     I                0
Multiplicity                               I                1
Number of electrons                        I               74
Number of alpha electrons                  I               37
Number of beta electrons                   I               37
Number of basis functions                  I              206
Number of independent functions            I              206
Atomic numbers                             I   N=          17
          15           8           8           8           8           6
           6           6           1           1           1           1
           1           1           1           1           1
Nuclear charges                            R   N=          17
  1.50000000e+01  8.00000000e+00  8.00000000e+00  8.00000000e+00  8.00000000e+00
  6.00000000e+00  6.00000000e+00  6.00000000e+00  1.00000000e+00  1.00000000e+00
  1.00000000e+00  1.00000000e+00  1.00000000e+00  1.00000000e+00  1.00000000e+00
  1.00000000e+00  1.00000000e+00
Current cartesian coordinates              R   N=          51
  1.45208806e-01 -8.50588328e-02 -7.24040982e-01  2.45022855e+00  1.30218778e+00
  6.46985746e-01 -9.67785268e-01 -1.71025454e+00  1.59829327e+00 -1.77810899e+00
  2.19631435e+00 -1.12563530e+00  6.54846012e-01 -1.53366597e+00 -3.03543526e+00
  4.56459674e+00 -1.82622909e-01  1.43167306e+00 -2.78096516e+00 -3.63298129e+00
  1.04236513e+00 -2.44425982e+00  3.80354613e+00  9.39032035e-01  5.31555634e+00
 -1.26604805e+00 -1.59829236e-01  4.01053110e+00 -1.45973852e+00  2.95989795e+00
  5.98939549e+00  1.14174718e+00  2.11020632e+00 -4.52880876e+00 -2.79479856e+00
  3.18301196e-01 -3.16696451e+00 -4.60179880e+00  2.81984995e+00 -2.02676412e+00
 -4.96076254e+00 -3.47352831e-01 -3.11107992e+00  2.68958292e+00  2.54826744e+00
 -3.95876804e+00  5.02417965e+00  2.59808881e-01 -8.20304195e-01  4.94495143e+00
  1.50915915e+00
Integer atomic weights                     I   N=          17
          30          15          15          15          15          12
          12          12           1           1           1           1
           1           1           1           1           1
Real atomic weights                        R   N=          17
  3.09737620e+01  1.59949146e+01  1.59949146e+01  1.59949146e+01  1.59949146e+01
  1.20000000e+01  1.20000000e+01  1.20000000e+01  1.00782503e+00  1.00782503e+00
  1.00782503e+00  1.00782503e+00  1.00782503e+00  1.00782503e+00  1.00782503e+00
  1.00782503e+00  1.00782503e+00
Number of primitive shells                 I              196
Number of contracted shells                I              104
Pure/Cartesian d shells                    I                0
Pure/Cartesian f shells                    I                0
Highest angular momentum                   I                2
Largest degree of contraction              I                6
Shell types                                I   N=         104
           0           0           0           0           0           0
           1           1           1           1           1          -2
           0           0           1           0           1           0
           1          -2           0           0           1           0
           1           0           1          -2           0           0
           1           0           1           0           1          -2
           0           0           1           0           1           0
           1          -2           0           0           1           0
           1           0           1          -2           0           0
           1           0           1           0           1          -2
           0           0           1           0           1           0
           1          -2           0           0           0           1
           0           0           0           1           0           0
           0           1           0           0           0           1
           0           0           0           1           0           0
           0           1           0           0           0           1
           0           0           0           1           0           0
           0           1
Number of primitives per shell             I   N=         104
           6           3           1           1           1           1
           4           2           1           1           1           1
           6           3           3           1           1           1
           1           1           6           3           3           1
           1           1           1           1           6           3
           3           1           1           1           1           1
           6           3           3           1           1           1
           1           1           6           3           3           1
           1           1           1           1           6           3
           3           1           1           1           1           1
           6           3           3           1           1           1
           1           1           3           1           1           1
           3           1           1           1           3           1
           1           1           3           1           1           1
           3           1           1           1           3           1
           1           1           3           1           1           1
           3           1           1           1           3           1
           1           1
Shell to atom map                          I   N=         104
           1           1           1           1           1           1
           1           1           1           1           1           1
           2           2           2           2           2           2
           2           2           3           3           3           3
           3           3           3           3           4           4
           4           4           4           4           4           4
           5           5           5           5           5           5
           5           5           6           6           6           6
           6           6           6           6           7           7
           7           7           7           7           7           7
           8           8           8           8           8           8
           8           8           9           9           9           9
          10          10          10          10          11          11
          11          11          12          12          12          12
          13          13          13          13          14          14
          14          14          15          15          15          15
          16          16          16          16          17          17
          17          17
Primitive exponents                        R   N=         196
  7.74924000e+04  1.16058000e+04  2.64596000e+03  7.54976000e+02  2.48755000e+02
  9.11565000e+01  9.11565000e+01  3.62257000e+01  1.52113000e+01  4.79417000e+00
  1.80793000e+00  3.56816000e-01  1.14783000e-01  3.84843000e+02  9.05521000e+01
  2.91339000e+01  1.08862000e+01  4.35259000e+00  1.77706000e+00  6.97005000e-01
  2.53532000e-01  6.84930000e-02  5.50000000e-01  8.58850000e+03  1.29723000e+03
  2.99296000e+02  8.73771000e+01  2.56789000e+01  3.74004000e+00  4.21175000e+01
  9.62837000e+00  2.85332000e+00  4.21175000e+01  9.62837000e+00  2.85332000e+00
  9.05661000e-01  9.05661000e-01  2.55611000e-01  2.55611000e-01  1.29200000e+00
  8.58850000e+03  1.29723000e+03  2.99296000e+02  8.73771000e+01  2.56789000e+01
  3.74004000e+00  4.21175000e+01  9.62837000e+00  2.85332000e+00  4.21175000e+01
  9.62837000e+00  2.85332000e+00  9.05661000e-01  9.05661000e-01  2.55611000e-01
  2.55611000e-01  1.29200000e+00  8.58850000e+03  1.29723000e+03  2.99296000e+02
  8.73771000e+01  2.56789000e+01  3.74004000e+00  4.21175000e+01  9.62837000e+00
  2.85332000e+00  4.21175000e+01  9.62837000e+00  2.85332000e+00  9.05661000e-01
  9.05661000e-01  2.55611000e-01  2.55611000e-01  1.29200000e+00  8.58850000e+03
  1.29723000e+03  2.99296000e+02  8.73771000e+01  2.56789000e+01  3.74004000e+00
  4.21175000e+01  9.62837000e+00  2.85332000e+00  4.21175000e+01  9.62837000e+00
  2.85332000e+00  9.05661000e-01  9.05661000e-01  2.55611000e-01  2.55611000e-01
  1.29200000e+00  4.56324000e+03  6.82024000e+02  1.54973000e+02  4.44553000e+01
  1.30290000e+01  1.82773000e+00  2.09642000e+01  4.80331000e+00  1.45933000e+00
  2.09642000e+01  4.80331000e+00  1.45933000e+00  4.83456000e-01  4.83456000e-01
  1.45585000e-01  1.45585000e-01  6.26000000e-01  4.56324000e+03  6.82024000e+02
  1.54973000e+02  4.44553000e+01  1.30290000e+01  1.82773000e+00  2.09642000e+01
  4.80331000e+00  1.45933000e+00  2.09642000e+01  4.80331000e+00  1.45933000e+00
  4.83456000e-01  4.83456000e-01  1.45585000e-01  1.45585000e-01  6.26000000e-01
  4.56324000e+03  6.82024000e+02  1.54973000e+02  4.44553000e+01  1.30290000e+01
  1.82773000e+00  2.09642000e+01  4.80331000e+00  1.45933000e+00  2.09642000e+01
  4.80331000e+00  1.45933000e+00  4.83456000e-01  4.83456000e-01  1.45585000e-01
  1.45585000e-01  6.26000000e-01  3.38650000e+01  5.09479000e+00  1.15879000e+00
  3.25840000e-01  1.02741000e-01  7.50000000e-01  3.38650000e+01  5.09479000e+00
  1.15879000e+00  3.25840000e-01  1.02741000e-01  7.50000000e-01  3.38650000e+01
  5.09479000e+00  1.15879000e+00  3.25840000e-01  1.02741000e-01  7.50000000e-01
  3.38650000e+01  5.09479000e+00  1.15879000e+00  3.25840000e-01  1.02741000e-01
  7.50000000e-01  3.38650000e+01  5.09479000e+00  1.15879000e+00  3.25840000e-01
  1.02741000e-01  7.50000000e-01  3.38650000e+01  5.09479000e+00  1.15879000e+00
  3.25840000e-01  1.02741000e-01  7.50000000e-01  3.38650000e+01  5.09479000e+00
  1.15879000e+00  3.25840000e-01  1.02741000e-01  7.50000000e-01  3.38650000e+01
  5.09479000e+00  1.15879000e+00  3.25840000e-01  1.02741000e-01  7.50000000e-01
  3.38650000e+01  5.09479000e+00  1.15879000e+00  3.25840000e-01  1.02741000e-01
  7.50000000e-01
Contraction coefficients                   R   N=         196
  7.81000147e-04  6.06800114e-03  3.11600059e-02  1.23431023e-01  3.78209071e-01
  5.63262106e-01  1.60255011e-01  6.27647045e-01  2.63849019e-01  1.00000000e+00
  1.00000000e+00  1.00000000e+00  1.00000000e+00  9.20599888e-03  6.98739915e-02
  2.92469964e-01  7.28102911e-01  6.28348873e-01  4.28043913e-01  1.00000000e+00
  1.00000000e+00  1.00000000e+00  1.00000000e+00  1.89515008e-03  1.43859006e-02
  7.07320031e-02  2.40001011e-01  5.94797026e-01  2.80802012e-01  1.13889012e-01
  9.20811101e-01 -3.27447036e-03  3.65113974e-02  2.37152983e-01  8.19701941e-01
  1.00000000e+00  1.00000000e+00  1.00000000e+00  1.00000000e+00  1.00000000e+00
  1.89515008e-03  1.43859006e-02  7.07320031e-02  2.40001011e-01  5.94797026e-01
  2.80802012e-01  1.13889012e-01  9.20811101e-01 -3.27447036e-03  3.65113974e-02
  2.37152983e-01  8.19701941e-01  1.00000000e+00  1.00000000e+00  1.00000000e+00
  1.00000000e+00  1.00000000e+00  1.89515008e-03  1.43859006e-02  7.07320031e-02
  2.40001011e-01  5.94797026e-01  2.80802012e-01  1.13889012e-01  9.20811101e-01
 -3.27447036e-03  3.65113974e-02  2.37152983e-01  8.19701941e-01  1.00000000e+00
  1.00000000e+00  1.00000000e+00  1.00000000e+00  1.00000000e+00  1.89515008e-03
  1.43859006e-02  7.07320031e-02  2.40001011e-01  5.94797026e-01  2.80802012e-01
  1.13889012e-01  9.20811101e-01 -3.27447036e-03  3.65113974e-02  2.37152983e-01
  8.19701941e-01  1.00000000e+00  1.00000000e+00  1.00000000e+00  1.00000000e+00
  1.00000000e+00  1.96665025e-03  1.52306019e-02  7.61269097e-02  2.60801033e-01
  6.16462078e-01  2.21006028e-01  1.14660081e-01  9.19999648e-01 -3.03068213e-03
  4.02486927e-02  2.37593957e-01  8.15853851e-01  1.00000000e+00  1.00000000e+00
  1.00000000e+00  1.00000000e+00  1.00000000e+00  1.96665025e-03  1.52306019e-02
  7.61269097e-02  2.60801033e-01  6.16462078e-01  2.21006028e-01  1.14660081e-01
  9.19999648e-01 -3.03068213e-03  4.02486927e-02  2.37593957e-01  8.15853851e-01
  1.00000000e+00  1.00000000e+00  1.00000000e+00  1.00000000e+00  1.00000000e+00
  1.96665025e-03  1.52306019e-02  7.61269097e-02  2.60801033e-01  6.16462078e-01
  2.21006028e-01  1.14660081e-01  9.19999648e-01 -3.03068213e-03  4.02486927e-02
  2.37593957e-01  8.15853851e-01  1.00000000e+00  1.00000000e+00  1.00000000e+00
  1.00000000e+00  1.00000000e+00  2.54938145e-02  1.90373109e-01  8.52161486e-01
  1.00000000e+00  1.00000000e+00  1.00000000e+00  2.54938145e-02  1.90373109e-01
  8.52161486e-01  1.00000000e+00  1.00000000e+00  1.00000000e+00  2.54938145e-02
  1.90373109e-01  8.52161486e-01  1.00000000e+00  1.00000000e+00  1.00000000e+00
  2.54938145e-02  1.90373109e-01  8.52161486e-01  1.00000000e+00  1.00000000e+00
  1.00000000e+00  2.54938145e-02  1.90373109e-01  8.52161486e-01  1.00000000e+00
  1.00000000e+00  1.00000000e+00  2.54938145e-02  1.90373109e-01  8.52161486e-01
  1.00000000e+00  1.00000000e+00  1.00000000e+00  2.54938145e-02  1.90373109e-01
  8.52161486e-01  1.00000000e+00  1.00000000e+00  1.00000000e+00  2.54938145e-02
  1.90373109e-01  8.52161486e-01  1.00000000e+00  1.00000000e+00  1.00000000e+00
  2.54938145e-02  1.90373109e-01  8.52161486e-01  1.00000000e+00  1.00000000e+00
  1.00000000e+00
Coordinates of each shell                  R   N=         312
  1.45208806e-01 -8.50588328e-02 -7.24040982e-01  1.45208806e-01 -8.50588328e-02
 -7.24040982e-01  1.45208806e-01 -8.50588328e-02 -7.24040982e-01  1.45208806e-01
 -8.50588328e-02 -7.24040982e-01  1.45208806e-01 -8.50588328e-02 -7.24040982e-01
  1.45208806e-01 -8.50588328e-02 -7.24040982e-01  1.45208806e-01 -8.50588328e-02
 -7.24040982e-01  1.45208806e-01 -8.50588328e-02 -7.24040982e-01  1.45208806e-01
 -8.50588328e-02 -7.24040982e-01  1.45208806e-01 -8.50588328e-02 -7.24040982e-01
  1.45208806e-01 -8.50588328e-02 -7.24040982e-01  1.45208806e-01 -8.50588328e-02
 -7.24040982e-01  2.45022855e+00  1.30218778e+00  6.46985746e-01  2.45022855e+00
  1.30218778e+00  6.46985746e-01  2.45022855e+00  1.30218778e+00  6.46985746e-01
  2.45022855e+00  1.30218778e+00  6.46985746e-01  2.45022855e+00  1.30218778e+00
  6.46985746e-01  2.45022855e+00  1.30218778e+00  6.46985746e-01  2.45022855e+00
  1.30218778e+00  6.46985746e-01  2.45022855e+00  1.30218778e+00  6.46985746e-01
 -9.67785268e-01 -1.71025454e+00  1.59829327e+00 -9.67785268e-01 -1.71025454e+00
  1.59829327e+00 -9.67785268e-01 -1.71025454e+00  1.59829327e+00 -9.67785268e-01
 -1.71025454e+00  1.59829327e+00 -9.67785268e-01 -1.71025454e+00  1.59829327e+00
 -9.67785268e-01 -1.71025454e+00  1.59829327e+00 -9.67785268e-01 -1.71025454e+00
  1.59829327e+00 -9.67785268e-01 -1.71025454e+00  1.59829327e+00 -1.77810899e+00
  2.19631435e+00 -1.12563530e+00 -1.77810899e+00  2.19631435e+00 -1.12563530e+00
 -1.77810899e+00  2.19631435e+00 -1.12563530e+00 -1.77810899e+00  2.19631435e+00
 -1.12563530e+00 -1.77810899e+00  2.19631435e+00 -1.12563530e+00 -1.77810899e+00
  2.19631435e+00 -1.12563530e+00 -1.77810899e+00  2.19631435e+00 -1.12563530e+00
 -1.77810899e+00  2.19631435e+00 -1.12563530e+00  6.54846012e-01 -1.53366597e+00
 -3.03543526e+00  6.54846012e-01 -1.53366597e+00 -3.03543526e+00  6.54846012e-01
 -1.53366597e+00 -3.03543526e+00  6.54846012e-01 -1.53366597e+00 -3.03543526e+00
  6.54846012e-01 -1.53366597e+00 -3.03543526e+00  6.54846012e-01 -1.53366597e+00
 -3.03543526e+00  6.54846012e-01 -1.53366597e+00 -3.03543526e+00  6.54846012e-01
 -1.53366597e+00 -3.03543526e+00  4.56459674e+00 -1.82622909e-01  1.43167306e+00
  4.56459674e+00 -1.82622909e-01  1.43167306e+00  4.56459674e+00 -1.82622909e-01
  1.43167306e+00  4.56459674e+00 -1.82622909e-01  1.43167306e+00  4.56459674e+00
 -1.82622909e-01  1.43167306e+00  4.56459674e+00 -1.82622909e-01  1.43167306e+00
  4.56459674e+00 -1.82622909e-01  1.43167306e+00  4.56459674e+00 -1.82622909e-01
  1.43167306e+00 -2.78096516e+00 -3.63298129e+00  1.04236513e+00 -2.78096516e+00
 -3.63298129e+00  1.04236513e+00 -2.78096516e+00 -3.63298129e+00  1.04236513e+00
 -2.78096516e+00 -3.63298129e+00  1.04236513e+00 -2.78096516e+00 -3.63298129e+00
  1.04236513e+00 -2.78096516e+00 -3.63298129e+00  1.04236513e+00 -2.78096516e+00
 -3.63298129e+00  1.04236513e+00 -2.78096516e+00 -3.63298129e+00  1.04236513e+00
 -2.44425982e+00  3.80354613e+00  9.39032035e-01 -2.44425982e+00  3.80354613e+00
  9.39032035e-01 -2.44425982e+00  3.80354613e+00  9.39032035e-01 -2.44425982e+00
  3.80354613e+00  9.39032035e-01 -2.44425982e+00  3.80354613e+00  9.39032035e-01
 -2.44425982e+00  3.80354613e+00  9.39032035e-01 -2.44425982e+00  3.80354613e+00
  9.39032035e-01 -2.44425982e+00  3.80354613e+00  9.39032035e-01  5.31555634e+00
 -1.26604805e+00 -1.59829236e-01  5.31555634e+00 -1.26604805e+00 -1.59829236e-01
  5.31555634e+00 -1.26604805e+00 -1.59829236e-01  5.31555634e+00 -1.26604805e+00
 -1.59829236e-01  4.01053110e+00 -1.45973852e+00  2.95989795e+00  4.01053110e+00
 -1.45973852e+00  2.95989795e+00  4.01053110e+00 -1.45973852e+00  2.95989795e+00
  4.01053110e+00 -1.45973852e+00  2.95989795e+00  5.98939549e+00  1.14174718e+00
  2.11020632e+00  5.98939549e+00  1.14174718e+00  2.11020632e+00  5.98939549e+00
  1.14174718e+00  2.11020632e+00  5.98939549e+00  1.14174718e+00  2.11020632e+00
 -4.52880876e+00 -2.79479856e+00  3.18301196e-01 -4.52880876e+00 -2.79479856e+00
  3.18301196e-01 -4.52880876e+00 -2.79479856e+00  3.18301196e-01 -4.52880876e+00
 -2.79479856e+00  3.18301196e-01 -3.16696451e+00 -4.60179880e+00  2.81984995e+00
 -3.16696451e+00 -4.60179880e+00  2.81984995e+00 -3.16696451e+00 -4.60179880e+00
  2.81984995e+00 -3.16696451e+00 -4.60179880e+00  2.81984995e+00 -2.02676412e+00
 -4.96076254e+00 -3.47352831e-01 -2.02676412e+00 -4.96076254e+00 -3.47352831e-01
 -2.02676412e+00 -4.96076254e+00 -3.47352831e-01 -2.02676412e+00 -4.96076254e+00
 -3.47352831e-01 -3.11107992e+00  2.68958292e+00  2.54826744e+00 -3.11107992e+00
  2.68958292e+00  2.54826744e+00 -3.11107992e+00  2.68958292e+00  2.54826744e+00
 -3.11107992e+00  2.68958292e+00  2.54826744e+00 -3.95876804e+00  5.02417965e+00
  2.59808881e-01 -3.95876804e+00  5.02417965e+00  2.59808881e-01 -3.95876804e+00
  5.02417965e+00  2.59808881e-01 -3.95876804e+00  5.02417965e+00  2.59808881e-01
 -8.20304195e-01  4.94495143e+00  1.50915915e+00 -8.20304195e-01  4.94495143e+00
  1.50915915e+00 -8.20304195e-01  4.94495143e+00  1.50915915e+00 -8.20304195e-01
  4.94495143e+00  1.50915915e+00
Total Energy                               R     -7.605774054680832e+02
Alpha Orbital Energies                     R   N=         206
 -8.01043670e+01 -2.05928222e+01 -2.05925453e+01 -2.05901940e+01 -2.05059358e+01
 -1.12970220e+01 -1.12968549e+01 -1.12955409e+01 -7.62764535e+00 -5.52593408e+00
 -5.52569864e+00 -5.52535522e+00 -1.46007389e+00 -1.38862458e+00 -1.38795420e+00
 -1.29926074e+00 -9.86873231e-01 -9.56594869e-01 -9.51284083e-01 -7.90690539e-01
 -7.21991506e-01 -7.19410294e-01 -6.79938904e-01 -6.66558876e-01 -6.55299945e-01
 -6.33270561e-01 -6.23746281e-01 -6.18990987e-01 -5.84980545e-01 -5.41055485e-01
 -5.27026148e-01 -5.15796897e-01 -4.97782541e-01 -4.92448968e-01 -4.82596455e-01
 -4.63586147e-01 -4.57180652e-01  1.45756168e-01  1.66994790e-01  1.71058704e-01
  2.02218354e-01  2.11074010e-01  2.19667416e-01  2.22082190e-01  2.29841176e-01
  2.36089386e-01  2.42992651e-01  2.76748201e-01  2.79959778e-01  3.05566811e-01
  3.34552637e-01  3.45046233e-01  3.92674220e-01  4.06842668e-01  4.16644766e-01
  4.36921071e-01  4.53789708e-01  4.60120242e-01  4.82704523e-01  4.88322768e-01
  5.08222364e-01  5.19067271e-01  6.00014605e-01  6.59604473e-01  6.77404671e-01
  6.88903706e-01  7.33772845e-01  7.55611772e-01  7.57659610e-01  7.62616183e-01
  7.68154935e-01  7.74445018e-01  7.86651138e-01  7.97940264e-01  8.05901085e-01
  8.77631146e-01  8.81671944e-01  8.93509021e-01  9.26097886e-01  9.64881495e-01
  9.84715529e-01  1.01214965e+00  1.02666165e+00  1.05090464e+00  1.08854387e+00
  1.14730936e+00  1.18524434e+00  1.20848559e+00  1.22258699e+00  1.23488727e+00
  1.28735051e+00  1.30313150e+00  1.33749899e+00  1.36165825e+00  1.41101468e+00
  1.42109558e+00  1.43708819e+00  1.47050812e+00  1.49500029e+00  1.52586657e+00
  1.54181429e+00  1.64614036e+00  1.69024910e+00  1.69165108e+00  1.69851975e+00
  1.70842794e+00  1.71329062e+00  1.72439095e+00  1.73073093e+00  1.74676722e+00
  1.75327707e+00  1.77152214e+00  1.78410072e+00  1.82643609e+00  1.84475920e+00
  1.85593177e+00  1.86786241e+00  1.88734011e+00  1.91498585e+00  1.93052331e+00
  1.93380634e+00  1.95375120e+00  1.99078924e+00  2.03733688e+00  2.08720265e+00
  2.16957849e+00  2.24399067e+00  2.25167878e+00  2.26325116e+00  2.36788247e+00
  2.37179385e+00  2.37889381e+00  2.39709562e+00  2.39762973e+00  2.41091462e+00
  2.62614308e+00  2.64138196e+00  2.65263818e+00  2.70238047e+00  2.71722622e+00
  2.72605618e+00  2.78832816e+00  2.79503989e+00  2.79718041e+00  2.80222603e+00
  2.81022263e+00  2.81736030e+00  2.82778623e+00  2.83875930e+00  2.85085125e+00
  3.07204078e+00  3.08939860e+00  3.11431583e+00  3.17287222e+00  3.19729976e+00
  3.22918364e+00  3.23346611e+00  3.24837795e+00  3.26800498e+00  3.28373453e+00
  3.29672569e+00  3.35243918e+00  3.40893169e+00  3.45100971e+00  3.48572862e+00
  3.49009371e+00  3.50546860e+00  3.51909858e+00  3.52861506e+00  3.61902569e+00
  3.80759395e+00  3.81467938e+00  3.96059442e+00  4.13995112e+00  4.15684264e+00
  4.16148414e+00  4.18195918e+00  4.18696740e+00  4.19861873e+00  4.36657003e+00
  4.42151391e+00  4.43435180e+00  5.39273204e+00  5.41534132e+00  5.43918904e+00
  5.45709648e+00  5.46909207e+00  5.47344919e+00  5.58415281e+00  5.61251687e+00
  5.77455879e+00  6.01072479e+00  6.01418289e+00  6.03045519e+00  7.69420789e+00
  1.48455201e+01  1.48776549e+01  1.50863037e+01  2.49905861e+01  2.49935430e+01
  2.49970173e+01  5.15049970e+01  5.15274546e+01  5.15350378e+01  5.16236324e+01
  1.66223051e+02
Alpha MO coefficients                      R   N=       42436
  4.19271854e-01  6.46641511e-01  1.07568695e-02 -1.07236062e-03  4.78256162e-04
 -2.02606305e-04 -1.33053810e-05  3.75976491e-05  5.90276641e-05  4.50338233e-06
 -1.21190776e-05 -2.11131660e-05 -3.22684662e-06  5.95867810e-06  1.90914013e-05
  4.82892294e-06  1.30876576e-06 -2.30954635e-05  1.33186845e-05  1.41622593e-05
 -4.20446822e-05  3.13467003e-06 -8.09766471e-07  8.94449927e-06 -3.11875625e-06
 -2.48969980e-06  5.18497518e-07 -3.06469111e-07 -3.54564357e-06 -1.71265782e-06
 -2.11916180e-06  1.66754829e-05  1.10836495e-05  4.84709528e-06  6.47769748e-06
 -5.54920488e-05  1.24354800e-05  3.45358972e-05  1.50306623e-05  5.37735312e-06
 -1.23432813e-05 -7.08068482e-06 -5.01653653e-06 -9.41892066e-06  4.08644332e-07
  2.44003183e-07  2.65831484e-06  3.46327506e-06 -2.40901618e-06  1.24230647e-05
 -9.13597391e-06 -1.14362344e-05  6.73374162e-06 -4.31737791e-05  1.94509495e-05
  1.54920763e-05  3.80753288e-05 -6.78600924e-06  6.53883565e-06  1.09546356e-05
  2.44234026e-06 -8.35745836e-06  4.59865022e-07  7.94465343e-08  2.89461086e-06
 -4.43929246e-06  3.75919712e-07  1.51339914e-05 -8.89866683e-06  1.44898357e-05
 -6.36867811e-07 -6.02266873e-05 -2.59700153e-05  1.05278480e-05 -2.55617254e-05
  6.54681632e-06 -3.64771239e-06  1.88639462e-06  2.56885571e-06  1.67400881e-05
 -9.62772844e-08  2.67142991e-06 -7.89658069e-07  2.56263173e-06  4.65389944e-06
  2.44732242e-06  4.67967566e-06 -1.40984985e-05 -2.45739002e-05 -4.07565903e-05
  7.16869791e-06 -2.30807797e-05 -2.68934817e-05 -1.12276207e-05  5.92673977e-06
 -1.62930694e-05  4.42987632e-06  3.31028962e-06 -1.65443497e-07  3.68044612e-07
  1.92427374e-06  4.49955189e-07  1.14344272e-06 -9.27006459e-06 -6.42314105e-06
 -2.48932386e-06 -3.43846049e-06  5.68775388e-05 -4.56164325e-05 -2.47333951e-05
 -1.78550341e-05  1.70122874e-06  1.98298592e-06 -2.56013633e-06  5.90904533e-06
 -1.71744102e-06 -1.35324942e-07  2.93352006e-07 -9.41559141e-07 -1.66374341e-06
  9.00767374e-07 -9.71787969e-06  3.47156286e-06  6.36311411e-06 -2.48914579e-06
  8.30968875e-05  3.11184255e-05  3.72948007e-05 -3.19330523e-05 -5.48661615e-06
 -2.41159949e-06 -1.10292442e-06 -5.33760138e-07  3.91197992e-06 -2.17127672e-07
  5.38997685e-07 -1.54325136e-06  1.58424856e-06  4.40073414e-07 -1.11421631e-05
  5.74652329e-06 -4.33829136e-06 -4.50172411e-07  6.88040096e-05  4.27771031e-05
 -4.19693590e-05  9.75576198e-06 -3.21083757e-06 -4.85734076e-06  2.94275560e-06
 -1.83530008e-06 -6.06114713e-07  1.76207565e-06 -1.91891388e-05 -1.13403415e-06
  3.73482924e-06  1.85992336e-06 -1.15495011e-06  2.10893063e-06 -2.33634429e-05
  6.62947314e-06  7.15768850e-07  9.42328368e-07  4.15501169e-06 -4.66865614e-07
  1.31291283e-05  7.82690123e-06 -1.67286702e-07 -2.39691347e-06 -6.29797034e-07
  2.05787019e-06 -2.11870258e-05  5.86387090e-06 -3.41535283e-06 -3.16515978e-07
  2.64142842e-06  4.35095637e-07  4.25789831e-06  8.82271093e-06 -1.75530163e-06
 -7.10708373e-07 -1.25579987e-06  1.91398701e-06 -2.25590014e-05  2.90599735e-06
  8.57379503e-07 -2.90588985e-06  1.31909190e-06  2.00461124e-06 -2.43626967e-05
  5.93229358e-06 -4.13187447e-06 -9.15707792e-07  4.83182043e-07 -5.55851091e-07
  1.31779446e-05  9.31670653e-06  1.55644342e-06  7.34979052e-08  1.73365469e-06
  2.19599302e-06 -2.39684995e-05 -5.41862824e-06  2.54441703e-08  6.33647503e-06
 -7.61694434e-07 -2.78546467e-06 -7.06913005e-06  8.18792540e-06  5.76699699e-05
 -2.31824671e-05 -5.72146947e-04 -4.06790809e-06 -5.22514215e-06  7.91440300e-06
 -1.80148647e-05 -2.49975696e-05  2.77702699e-05  2.14306600e-05  4.02738357e-05
 -3.52422116e-05  9.47957594e-05  1.05172704e-04 -1.43754364e-04  8.58073834e-06
 -1.26988636e-05 -2.04627522e-04 -1.53188307e-05  6.05794710e-05  7.39975607e-05
  2.24636476e-05 -3.72231247e-05  1.46402469e-02  1.25237116e-02 -5.96889095e-06
 -3.88743236e-05 -6.79010148e-06  1.31173566e-04  1.00847855e-05 -1.05384259e-06
  7.75118849e-06  8.57952329e-05 -9.15536787e-05  1.04534657e-05 -7.56465895e-06
  1.05442366e-06 -6.70925305e-06 -8.83167112e-07 -1.01800686e-06  3.40933875e-06
 -5.51251559e-01 -4.71480810e-01  4.74777498e-04  2.66153093e-04  1.38246974e-03
 -5.69864821e-03 -2.07921790e-04 -1.47389792e-04 -4.55892351e-04  8.41786550e-04
  3.62595778e-05  4.25029067e-05  2.54917978e-05 -2.28547083e-05  5.77929987e-06
 -1.05729022e-05 -1.24373240e-05  1.23364140e-04  1.58441566e-03  1.35667659e-03
  1.79199391e-06 -6.17444208e-06  5.25883852e-06 -5.47800147e-06  5.29713651e-07
  2.27453520e-06  3.38593239e-06  1.15136031e-04  1.26729831e-05 -6.31504282e-05
  3.64569815e-05  4.50142229e-07  7.38554397e-07 -4.62318210e-06 -4.48850387e-06
  7.67928786e-08  5.36449401e-05  4.88633783e-05 -3.20476812e-06 -2.53802608e-07
  1.23930642e-05 -2.75961169e-05  3.49488136e-06 -5.21135599e-06 -2.77301665e-05
  8.81531223e-05 -2.50874838e-05 -5.69023116e-06  1.13525162e-04  6.83117835e-06
 -3.51404729e-06 -4.42507885e-06  2.53576936e-06  2.02055186e-06 -1.56239784e-07
 -1.01976450e-06  2.65948756e-06  1.37616572e-06  3.62598042e-07 -1.18941558e-05
 -1.44645190e-05  1.23927954e-06  4.16277415e-06  1.73803502e-04 -4.36424741e-05
 -3.03538022e-06 -1.21888807e-05 -1.04145326e-06  4.19474151e-06 -3.65286288e-06
  1.89622091e-06  7.33029655e-06  2.53455603e-06  2.56310408e-05 -2.19933212e-05
 -1.93775680e-05 -2.22044799e-05 -8.30552876e-05 -1.25109522e-04 -1.51676127e-04
  2.14876232e-05 -2.49594523e-04 -6.46966684e-05 -5.98867834e-05 -1.04925833e-04
  6.95681507e-05 -4.04719236e-06 -1.31197503e-05  5.88578292e-06 -7.74101545e-05
 -2.17179351e-07 -1.05222576e-07 -1.04306614e-06  1.11218060e-06 -2.85806977e-06
 -1.14050949e-05 -1.95648099e-06 -3.59663875e-06  1.81762592e-05  7.33352584e-05
  3.48279483e-05 -2.82674605e-05  7.56083021e-06  1.10329521e-06 -6.28013859e-07
 -1.16405005e-05  5.66175875e-07  1.50525997e-07  6.20776421e-07 -1.66670139e-05
 -1.49666736e-05 -9.45221365e-07 -4.17946729e-07  8.81084466e-07  1.87544827e-06
 -2.50024760e-05 -2.05612198e-05 -3.74167895e-06 -7.21897818e-06  1.00158563e-05
  2.79520059e-06 -2.82506794e-05  1.34093090e-05  3.33189294e-06  3.87442299e-06
  1.42671767e-06 -5.99338770e-06  4.98276809e-05  4.82593319e-06  1.15631088e-05
  1.88010731e-05  1.25849270e-05 -1.81519487e-05  4.95521834e-05  4.60154646e-05
 -3.97623857e-06 -9.90008505e-06  1.83345022e-05 -6.66838083e-06  4.55382879e-05
 -2.94469414e-05  2.17039090e-05  6.80931192e-06  8.50213325e-06  1.63007531e-06
 -2.10433898e-05  1.20177941e-06 -6.67190179e-06 -8.55164078e-06  9.36692914e-06
 -1.95515601e-06  7.32143545e-06  2.61887123e-06 -1.16871289e-06 -1.35826947e-06
 -5.32931007e-07  2.88494157e-06 -2.52243444e-05  2.48513219e-05  2.24155015e-06
 -9.23301480e-07 -7.06504118e-07  3.14543608e-06  6.96975597e-06 -2.45062163e-06
 -7.87971509e-05  9.42413596e-05  3.93750485e-04 -7.85442109e-06 -4.19476909e-06
 -5.15604091e-06 -3.45809695e-05 -1.71205528e-05 -2.04801243e-05  5.19921308e-05
  3.16350313e-05  2.40242323e-05  1.46221555e-04  4.73002363e-05  1.11094238e-04
  6.70050040e-05  1.89474621e-04  1.25030289e-04 -5.64198596e-06  6.38107743e-05
  1.70080885e-05  5.37339770e-05  5.90828315e-05  5.51247194e-01  4.71479012e-01
  3.02283628e-05 -1.47562654e-03 -2.21092400e-04  5.71217678e-03 -7.54419592e-05
  5.17301035e-04  5.00206730e-05 -8.33793020e-04  1.39449201e-05 -5.72993617e-05
 -1.13068312e-05  6.11357674e-05 -8.37853892e-05  8.68302174e-06 -4.00511396e-05
  5.57156670e-05  1.46373924e-02  1.25171997e-02 -1.48766371e-05 -9.68977563e-06
 -3.58283947e-05  1.76720498e-04  1.25514700e-06  5.31762718e-06  1.51344489e-05
 -1.59371114e-04 -4.23286262e-05 -5.75607841e-05  2.10552500e-05  5.53828246e-06
  2.41128812e-06  1.47822096e-06 -5.71721781e-07 -7.46962565e-06 -1.73091259e-03
 -1.48234985e-03 -7.87360505e-06  3.02928036e-06 -3.54596724e-06  2.76406228e-06