Generated by Psi4
        SP                        DF-MP2                      6-311G**
Number of atoms                            I               14
Charge                                     I                0
Multiplicity                               I                1
Number of electrons                        I               50
Number of alpha electrons                  I               25
Number of beta electrons                   I               25
Number of basis functions                  I              168
Number of independent functions            I              168
Atomic numbers                             I   N=          14
           7           6           6           6           6           6
           6           1           1           1           1           1
           1           1
Nuclear charges                            R   N=          14
  7.00000000e+00  6.00000000e+00  6.00000000e+00  6.00000000e+00  6.00000000e+00
  6.00000000e+00  6.00000000e+00  1.00000000e+00  1.00000000e+00  1.00000000e+00
  1.00000000e+00  1.00000000e+00  1.00000000e+00  1.00000000e+00
Current cartesian coordinates              R   N=          42
 -4.42688988e+00 -3.33475269e-04  2.20641301e-01 -1.77984443e+00 -9.67621959e-05
  1.95999959e-02 -4.32886570e-01  2.27864191e+00  1.16715496e-02 -4.32649764e-01
 -2.27869395e+00  9.43361537e-03  2.19779158e+00  2.27250962e+00 -5.44412715e-02
  2.19802742e+00 -2.27223752e+00 -5.66819964e-02  3.53276000e+00  2.15124107e-04
 -8.22434787e-02 -1.45912322e+00  4.06108272e+00  4.27580254e-02 -1.45870538e+00
 -4.06126418e+00  3.87816496e-02  3.20806746e+00  4.06166254e+00 -7.21062100e-02
  3.20849033e+00 -4.06127000e+00 -7.61072630e-02  5.58479759e+00  3.40150852e-04
 -1.34517504e-01 -5.24038179e+00 -1.56969049e+00 -5.24220469e-01 -5.24052259e+00
  1.56974322e+00 -5.22540401e-01
Integer atomic weights                     I   N=          14
          14          12          12          12          12          12
          12           1           1           1           1           1
           1           1
Real atomic weights                        R   N=          14
  1.40030740e+01  1.20000000e+01  1.20000000e+01  1.20000000e+01  1.20000000e+01
  1.20000000e+01  1.20000000e+01  1.00782503e+00  1.00782503e+00  1.00782503e+00
  1.00782503e+00  1.00782503e+00  1.00782503e+00  1.00782503e+00
Number of primitive shells                 I              161
Number of contracted shells                I               84
Pure/Cartesian d shells                    I                0
Pure/Cartesian f shells                    I                0
Highest angular momentum                   I                2
Largest degree of contraction              I                6
Shell types                                I   N=          84
           0           0           1           0           1           0
           1          -2           0           0           1           0
           1           0           1          -2           0           0
           1           0           1           0           1          -2
           0           0           1           0           1           0
           1          -2           0           0           1           0
           1           0           1          -2           0           0
           1           0           1           0           1          -2
           0           0           1           0           1           0
           1          -2           0           0           0           1
           0           0           0           1           0           0
           0           1           0           0           0           1
           0           0           0           1           0           0
           0           1           0           0           0           1
Number of primitives per shell             I   N=          84
           6           3           3           1           1           1
           1           1           6           3           3           1
           1           1           1           1           6           3
           3           1           1           1           1           1
           6           3           3           1           1           1
           1           1           6           3           3           1
           1           1           1           1           6           3
           3           1           1           1           1           1
           6           3           3           1           1           1
           1           1           3           1           1           1
           3           1           1           1           3           1
           1           1           3           1           1           1
           3           1           1           1           3           1
           1           1           3           1           1           1
Shell to atom map                          I   N=          84
           1           1           1           1           1           1
           1           1           2           2           2           2
           2           2           2           2           3           3
           3           3           3           3           3           3
           4           4           4           4           4           4
           4           4           5           5           5           5
           5           5           5           5           6           6
           6           6           6           6           6           6
           7           7           7           7           7           7
           7           7           8           8           8           8
           9           9           9           9          10          10
          10          10          11          11          11          11
          12          12          12          12          13          13
          13          13          14          14          14          14
Primitive exponents                        R   N=         161
  6.29348000e+03  9.49044000e+02  2.18776000e+02  6.36916000e+01  1.88282000e+01
  2.72023000e+00  3.06331000e+01  7.02614000e+00  2.11205000e+00  3.06331000e+01
  7.02614000e+00  2.11205000e+00  6.84009000e-01  6.84009000e-01  2.00878000e-01
  2.00878000e-01  9.13000000e-01  4.56324000e+03  6.82024000e+02  1.54973000e+02
  4.44553000e+01  1.30290000e+01  1.82773000e+00  2.09642000e+01  4.80331000e+00
  1.45933000e+00  2.09642000e+01  4.80331000e+00  1.45933000e+00  4.83456000e-01
  4.83456000e-01  1.45585000e-01  1.45585000e-01  6.26000000e-01  4.56324000e+03
  6.82024000e+02  1.54973000e+02  4.44553000e+01  1.30290000e+01  1.82773000e+00
  2.09642000e+01  4.80331000e+00  1.45933000e+00  2.09642000e+01  4.80331000e+00
  1.45933000e+00  4.83456000e-01  4.83456000e-01  1.45585000e-01  1.45585000e-01
  6.26000000e-01  4.56324000e+03  6.82024000e+02  1.54973000e+02  4.44553000e+01
  1.30290000e+01  1.82773000e+00  2.09642000e+01  4.80331000e+00  1.45933000e+00
  2.09642000e+01  4.80331000e+00  1.45933000e+00  4.83456000e-01  4.83456000e-01
  1.45585000e-01  1.45585000e-01  6.26000000e-01  4.56324000e+03  6.82024000e+02
  1.54973000e+02  4.44553000e+01  1.30290000e+01  1.82773000e+00  2.09642000e+01
  4.80331000e+00  1.45933000e+00  2.09642000e+01  4.80331000e+00  1.45933000e+00
  4.83456000e-01  4.83456000e-01  1.45585000e-01  1.45585000e-01  6.26000000e-01
  4.56324000e+03  6.82024000e+02  1.54973000e+02  4.44553000e+01  1.30290000e+01
  1.82773000e+00  2.09642000e+01  4.80331000e+00  1.45933000e+00  2.09642000e+01
  4.80331000e+00  1.45933000e+00  4.83456000e-01  4.83456000e-01  1.45585000e-01
  1.45585000e-01  6.26000000e-01  4.56324000e+03  6.82024000e+02  1.54973000e+02
  4.44553000e+01  1.30290000e+01  1.82773000e+00  2.09642000e+01  4.80331000e+00
  1.45933000e+00  2.09642000e+01  4.80331000e+00  1.45933000e+00  4.83456000e-01
  4.83456000e-01  1.45585000e-01  1.45585000e-01  6.26000000e-01  3.38650000e+01
  5.09479000e+00  1.15879000e+00  3.25840000e-01  1.02741000e-01  7.50000000e-01
  3.38650000e+01  5.09479000e+00  1.15879000e+00  3.25840000e-01  1.02741000e-01
  7.50000000e-01  3.38650000e+01  5.09479000e+00  1.15879000e+00  3.25840000e-01
  1.02741000e-01  7.50000000e-01  3.38650000e+01  5.09479000e+00  1.15879000e+00
  3.25840000e-01  1.02741000e-01  7.50000000e-01  3.38650000e+01  5.09479000e+00
  1.15879000e+00  3.25840000e-01  1.02741000e-01  7.50000000e-01  3.38650000e+01
  5.09479000e+00  1.15879000e+00  3.25840000e-01  1.02741000e-01  7.50000000e-01
  3.38650000e+01  5.09479000e+00  1.15879000e+00  3.25840000e-01  1.02741000e-01
  7.50000000e-01
Contraction coefficients                   R   N=         161
  1.96978815e-03  1.49612859e-02  7.35005308e-02  2.48936766e-01  6.02459433e-01
  2.56201759e-01  1.11906080e-01  9.21666655e-01 -2.56919183e-03  3.83119186e-02
  2.37403116e-01  8.17592398e-01  1.00000000e+00  1.00000000e+00  1.00000000e+00
  1.00000000e+00  1.00000000e+00  1.96665025e-03  1.52306019e-02  7.61269097e-02
  2.60801033e-01  6.16462078e-01  2.21006028e-01  1.14660081e-01  9.19999648e-01
 -3.03068213e-03  4.02486927e-02  2.37593957e-01  8.15853851e-01  1.00000000e+00
  1.00000000e+00  1.00000000e+00  1.00000000e+00  1.00000000e+00  1.96665025e-03
  1.52306019e-02  7.61269097e-02  2.60801033e-01  6.16462078e-01  2.21006028e-01
  1.14660081e-01  9.19999648e-01 -3.03068213e-03  4.02486927e-02  2.37593957e-01
  8.15853851e-01  1.00000000e+00  1.00000000e+00  1.00000000e+00  1.00000000e+00
  1.00000000e+00  1.96665025e-03  1.52306019e-02  7.61269097e-02  2.60801033e-01
  6.16462078e-01  2.21006028e-01  1.14660081e-01  9.19999648e-01 -3.03068213e-03
  4.02486927e-02  2.37593957e-01  8.15853851e-01  1.00000000e+00  1.00000000e+00
  1.00000000e+00  1.00000000e+00  1.00000000e+00  1.96665025e-03  1.52306019e-02
  7.61269097e-02  2.60801033e-01  6.16462078e-01  2.21006028e-01  1.14660081e-01
  9.19999648e-01 -3.03068213e-03  4.02486927e-02  2.37593957e-01  8.15853851e-01
  1.00000000e+00  1.00000000e+00  1.00000000e+00  1.00000000e+00  1.00000000e+00
  1.96665025e-03  1.52306019e-02  7.61269097e-02  2.60801033e-01  6.16462078e-01
  2.21006028e-01  1.14660081e-01  9.19999648e-01 -3.03068213e-03  4.02486927e-02
  2.37593957e-01  8.15853851e-01  1.00000000e+00  1.00000000e+00  1.00000000e+00
  1.00000000e+00  1.00000000e+00  1.96665025e-03  1.52306019e-02  7.61269097e-02
  2.60801033e-01  6.16462078e-01  2.21006028e-01  1.14660081e-01  9.19999648e-01
 -3.03068213e-03  4.02486927e-02  2.37593957e-01  8.15853851e-01  1.00000000e+00
  1.00000000e+00  1.00000000e+00  1.00000000e+00  1.00000000e+00  2.54938145e-02
  1.90373109e-01  8.52161486e-01  1.00000000e+00  1.00000000e+00  1.00000000e+00
  2.54938145e-02  1.90373109e-01  8.52161486e-01  1.00000000e+00  1.00000000e+00
  1.00000000e+00  2.54938145e-02  1.90373109e-01  8.52161486e-01  1.00000000e+00
  1.00000000e+00  1.00000000e+00  2.54938145e-02  1.90373109e-01  8.52161486e-01
  1.00000000e+00  1.00000000e+00  1.00000000e+00  2.54938145e-02  1.90373109e-01
  8.52161486e-01  1.00000000e+00  1.00000000e+00  1.00000000e+00  2.54938145e-02
  1.90373109e-01  8.52161486e-01  1.00000000e+00  1.00000000e+00  1.00000000e+00
  2.54938145e-02  1.90373109e-01  8.52161486e-01  1.00000000e+00  1.00000000e+00
  1.00000000e+00
Coordinates of each shell                  R   N=         252
 -4.42688988e+00 -3.33475269e-04  2.20641301e-01 -4.42688988e+00 -3.33475269e-04
  2.20641301e-01 -4.42688988e+00 -3.33475269e-04  2.20641301e-01 -4.42688988e+00
 -3.33475269e-04  2.20641301e-01 -4.42688988e+00 -3.33475269e-04  2.20641301e-01
 -4.42688988e+00 -3.33475269e-04  2.20641301e-01 -4.42688988e+00 -3.33475269e-04
  2.20641301e-01 -4.42688988e+00 -3.33475269e-04  2.20641301e-01 -1.77984443e+00
 -9.67621959e-05  1.95999959e-02 -1.77984443e+00 -9.67621959e-05  1.95999959e-02
 -1.77984443e+00 -9.67621959e-05  1.95999959e-02 -1.77984443e+00 -9.67621959e-05
  1.95999959e-02 -1.77984443e+00 -9.67621959e-05  1.95999959e-02 -1.77984443e+00
 -9.67621959e-05  1.95999959e-02 -1.77984443e+00 -9.67621959e-05  1.95999959e-02
 -1.77984443e+00 -9.67621959e-05  1.95999959e-02 -4.32886570e-01  2.27864191e+00
  1.16715496e-02 -4.32886570e-01  2.27864191e+00  1.16715496e-02 -4.32886570e-01
  2.27864191e+00  1.16715496e-02 -4.32886570e-01  2.27864191e+00  1.16715496e-02
 -4.32886570e-01  2.27864191e+00  1.16715496e-02 -4.32886570e-01  2.27864191e+00
  1.16715496e-02 -4.32886570e-01  2.27864191e+00  1.16715496e-02 -4.32886570e-01
  2.27864191e+00  1.16715496e-02 -4.32649764e-01 -2.27869395e+00  9.43361537e-03
 -4.32649764e-01 -2.27869395e+00  9.43361537e-03 -4.32649764e-01 -2.27869395e+00
  9.43361537e-03 -4.32649764e-01 -2.27869395e+00  9.43361537e-03 -4.32649764e-01
 -2.27869395e+00  9.43361537e-03 -4.32649764e-01 -2.27869395e+00  9.43361537e-03
 -4.32649764e-01 -2.27869395e+00  9.43361537e-03 -4.32649764e-01 -2.27869395e+00
  9.43361537e-03  2.19779158e+00  2.27250962e+00 -5.44412715e-02  2.19779158e+00
  2.27250962e+00 -5.44412715e-02  2.19779158e+00  2.27250962e+00 -5.44412715e-02
  2.19779158e+00  2.27250962e+00 -5.44412715e-02  2.19779158e+00  2.27250962e+00
 -5.44412715e-02  2.19779158e+00  2.27250962e+00 -5.44412715e-02  2.19779158e+00
  2.27250962e+00 -5.44412715e-02  2.19779158e+00  2.27250962e+00 -5.44412715e-02
  2.19802742e+00 -2.27223752e+00 -5.66819964e-02  2.19802742e+00 -2.27223752e+00
 -5.66819964e-02  2.19802742e+00 -2.27223752e+00 -5.66819964e-02  2.19802742e+00
 -2.27223752e+00 -5.66819964e-02  2.19802742e+00 -2.27223752e+00 -5.66819964e-02
  2.19802742e+00 -2.27223752e+00 -5.66819964e-02  2.19802742e+00 -2.27223752e+00
 -5.66819964e-02  2.19802742e+00 -2.27223752e+00 -5.66819964e-02  3.53276000e+00
  2.15124107e-04 -8.22434787e-02  3.53276000e+00  2.15124107e-04 -8.22434787e-02
  3.53276000e+00  2.15124107e-04 -8.22434787e-02  3.53276000e+00  2.15124107e-04
 -8.22434787e-02  3.53276000e+00  2.15124107e-04 -8.22434787e-02  3.53276000e+00
  2.15124107e-04 -8.22434787e-02  3.53276000e+00  2.15124107e-04 -8.22434787e-02
  3.53276000e+00  2.15124107e-04 -8.22434787e-02 -1.45912322e+00  4.06108272e+00
  4.27580254e-02 -1.45912322e+00  4.06108272e+00  4.27580254e-02 -1.45912322e+00
  4.06108272e+00  4.27580254e-02 -1.45912322e+00  4.06108272e+00  4.27580254e-02
 -1.45870538e+00 -4.06126418e+00  3.87816496e-02 -1.45870538e+00 -4.06126418e+00
  3.87816496e-02 -1.45870538e+00 -4.06126418e+00  3.87816496e-02 -1.45870538e+00
 -4.06126418e+00  3.87816496e-02  3.20806746e+00  4.06166254e+00 -7.21062100e-02
  3.20806746e+00  4.06166254e+00 -7.21062100e-02  3.20806746e+00  4.06166254e+00
 -7.21062100e-02  3.20806746e+00  4.06166254e+00 -7.21062100e-02  3.20849033e+00
 -4.06127000e+00 -7.61072630e-02  3.20849033e+00 -4.06127000e+00 -7.61072630e-02
  3.20849033e+00 -4.06127000e+00 -7.61072630e-02  3.20849033e+00 -4.06127000e+00
 -7.61072630e-02  5.58479759e+00  3.40150852e-04 -1.34517504e-01  5.58479759e+00
  3.40150852e-04 -1.34517504e-01  5.58479759e+00  3.40150852e-04 -1.34517504e-01
  5.58479759e+00  3.40150852e-04 -1.34517504e-01 -5.24038179e+00 -1.56969049e+00
 -5.24220469e-01 -5.24038179e+00 -1.56969049e+00 -5.24220469e-01 -5.24038179e+00
 -1.56969049e+00 -5.24220469e-01 -5.24038179e+00 -1.56969049e+00 -5.24220469e-01
 -5.24052259e+00  1.56974322e+00 -5.22540401e-01 -5.24052259e+00  1.56974322e+00
 -5.22540401e-01 -5.24052259e+00  1.56974322e+00 -5.22540401e-01 -5.24052259e+00
  1.56974322e+00 -5.22540401e-01
Total Energy                               R     -2.868043987989385e+02
Alpha Orbital Energies                     R   N=         168
 -1.55589192e+01 -1.12759888e+01 -1.12343366e+01 -1.12343023e+01 -1.12228322e+01
 -1.12228136e+01 -1.12187648e+01 -1.21966253e+00 -1.12418433e+00 -1.01002481e+00
 -9.83519673e-01 -8.29304334e-01 -8.09113024e-01 -7.01128480e-01 -6.78386739e-01
 -6.51736293e-01 -5.95747159e-01 -5.89602714e-01 -5.79070699e-01 -5.31299931e-01
 -5.04015014e-01 -4.87182386e-01 -4.46828074e-01 -3.34562669e-01 -2.94471665e-01
  1.34427865e-01  1.48725481e-01  1.58346537e-01  1.67919006e-01  1.79389424e-01
  2.08813492e-01  2.09144409e-01  2.42992159e-01  2.60191578e-01  3.54613923e-01
  4.00034698e-01  4.32887922e-01  4.39713937e-01  4.54724857e-01  4.77019234e-01
  5.07862262e-01  5.28695251e-01  5.78357304e-01  5.85619268e-01  5.89481862e-01
  6.20123619e-01  6.23901322e-01  6.36647367e-01  6.42076942e-01  6.43005192e-01
  6.52162480e-01  6.75250886e-01  7.19967709e-01  7.20744582e-01  7.44210254e-01
  7.64116279e-01  8.07982739e-01  8.14688545e-01  8.27352887e-01  8.32129181e-01
  8.34926945e-01  8.64937943e-01  8.75870188e-01  9.03777834e-01  9.25639163e-01
  9.47706780e-01  9.61063356e-01  1.00024055e+00  1.03398155e+00  1.06761339e+00
  1.07946586e+00  1.09079378e+00  1.13512203e+00  1.19048366e+00  1.20724921e+00
  1.21624743e+00  1.26105413e+00  1.33058338e+00  1.34185280e+00  1.39816252e+00
  1.40977138e+00  1.43523895e+00  1.46296340e+00  1.58921357e+00  1.65789665e+00
  1.71159696e+00  1.73086780e+00  1.75335419e+00  1.76738177e+00  1.80421665e+00
  1.82524654e+00  1.82718007e+00  1.84619330e+00  1.87425847e+00  1.88506669e+00
  1.89160092e+00  1.94104874e+00  1.95644595e+00  2.01272625e+00  2.03788019e+00
  2.04675992e+00  2.05785812e+00  2.11410132e+00  2.15923063e+00  2.18007058e+00
  2.20693902e+00  2.21352376e+00  2.21533017e+00  2.23469854e+00  2.23737484e+00
  2.28523589e+00  2.32526050e+00  2.33603547e+00  2.37681107e+00  2.37776963e+00
  2.56780363e+00  2.58323099e+00  2.60372434e+00  2.65558603e+00  2.66771005e+00
  2.70601388e+00  2.76172944e+00  2.76486753e+00  2.82016020e+00  2.91047224e+00
  2.91509143e+00  2.93255582e+00  2.94557549e+00  2.95125189e+00  2.95127434e+00
  2.97088504e+00  2.97501165e+00  3.02262576e+00  3.05133680e+00  3.07507977e+00
  3.12127295e+00  3.14148888e+00  3.21575988e+00  3.21789732e+00  3.26470684e+00
  3.28425562e+00  3.28693924e+00  3.35392125e+00  3.45751704e+00  3.55123398e+00
  3.64818894e+00  3.72015263e+00  3.76230085e+00  3.81142715e+00  3.89340874e+00
  3.90134308e+00  4.02737432e+00  4.20647903e+00  4.36759964e+00  4.41132699e+00
  4.47562715e+00  4.52078223e+00  4.52734816e+00  5.23098361e+00  5.28569285e+00
  5.45206854e+00  2.46471520e+01  2.50833306e+01  2.51024747e+01  2.52354595e+01
  2.52663047e+01  2.53561737e+01  3.70413629e+01
Alpha MO coefficients                      R   N=       28224
  5.57621230e-01  4.68222349e-01  3.76661527e-04  8.04967100e-07 -1.47138046e-03
  5.28204096e-03 -1.02328487e-04 -3.05896437e-07  5.64951392e-04 -2.23233355e-03
 -6.25261028e-04 -5.75418610e-08  2.12678824e-05  1.21803015e-04 -3.28566602e-05
 -1.01582107e-07 -2.57984547e-05  1.48398510e-08  1.28649537e-05 -3.89638343e-05
 -8.76257091e-05 -1.37031160e-08  1.85538797e-05  2.58915244e-04 -2.51680157e-04
  3.45195859e-09 -3.81119383e-05 -7.28959639e-06 -1.99023559e-03 -9.90996705e-08
  1.16677290e-04 -3.58568445e-05  3.50970810e-05 -4.89496751e-08  1.63292524e-04
 -3.39448812e-09  1.96004931e-08  2.52312444e-06  4.66690938e-06  1.86257342e-05
  2.72655096e-06 -4.11220314e-05 -5.75607938e-06 -9.84608066e-05 -5.77987022e-06
  1.02102919e-03  6.39361066e-04 -6.24529718e-04 -2.69342526e-05 -1.25843302e-05
 -6.92918336e-06  6.90286765e-06  6.37257780e-06  3.38944959e-05  1.95390829e-08
  2.52327206e-06  4.66864383e-06 -1.86277135e-05  2.70845635e-06 -4.11247949e-05
 -5.76309352e-06  9.84636285e-05 -5.68478799e-06  1.02108198e-03  6.39230579e-04
  6.24665066e-04 -2.63215353e-05 -1.25968689e-05 -6.96119250e-06 -6.88860486e-06
  6.37540759e-06 -3.38865506e-05 -5.90880643e-07  1.53210469e-06 -6.61562906e-06
 -2.05348033e-07 -1.83941375e-06 -1.04934175e-05  3.73546893e-05  6.92598722e-06
  6.42056681e-06 -8.15237623e-04  2.14583941e-04  1.79630927e-04 -1.61514542e-05
 -5.29121407e-06 -2.00374856e-06  1.55244829e-06 -6.67264566e-06  6.59564054e-06
 -5.90890602e-07  1.53214863e-06 -6.61602897e-06  2.06365644e-07 -1.83916855e-06
 -1.04931797e-05  3.73587567e-05 -6.92775997e-06  6.41349867e-06 -8.15223807e-04
  2.14569853e-04 -1.79627660e-04 -1.63286867e-05 -5.29380016e-06 -2.00993667e-06
 -1.53709924e-06 -6.67438807e-06 -6.59472056e-06 -5.54828062e-07  3.22388647e-06
 -1.16188720e-06  2.95836572e-10 -7.35100462e-07 -3.38346539e-05  9.03693668e-06
  2.48393402e-10  1.25232758e-06  4.30132069e-04 -2.61458520e-04 -3.42831601e-08
  8.00020446e-06 -5.86170134e-06  1.14902048e-06  6.03670459e-09 -1.99090474e-06
 -1.19696408e-09 -2.00389794e-05  2.27497665e-04  1.45080606e-04  1.95910291e-05
 -2.90406734e-05 -1.23568474e-06 -2.00385907e-05  2.27493670e-04  1.45087097e-04
  1.95906074e-05  2.90430123e-05 -1.20789138e-06 -5.18703053e-06  2.65148908e-08
 -2.12063002e-05 -1.96416226e-06  2.82702574e-06  1.24028233e-06 -5.18669956e-06
  2.07190346e-08 -2.12102827e-05 -1.96247568e-06 -2.82836216e-06  1.23758436e-06
 -6.63318078e-06  3.47129554e-05  4.56368123e-05  1.44143447e-06  8.83046800e-10
 -4.56373547e-07  2.43679883e-04  2.50385242e-04  2.16170557e-06  7.76839302e-05
  7.24623539e-05 -1.60526902e-05  2.43680655e-04  2.50395065e-04  2.17155939e-06
  7.76916225e-05 -7.24385803e-05 -1.61288051e-05  1.13276147e-04  1.93031491e-04
 -1.12897244e-04 -1.96383519e-08  2.62215008e-05 -5.51874717e-04 -6.22354209e-04
 -1.46156902e-08 -2.63522116e-05  1.40167933e-03  4.88729298e-04  8.40143112e-08
 -1.12047058e-04  3.50602054e-05  6.27918456e-05  9.34583666e-08 -2.34960371e-04
 -5.71434379e-08 -5.63332943e-01 -4.66517626e-01  8.26266141e-04  7.84812489e-08
 -6.67918034e-05 -4.02453274e-03 -8.66781414e-04 -8.08551187e-08  4.35514870e-05
  3.85923271e-04  1.96642295e-03  1.20008044e-07 -4.61034019e-05  4.09652034e-04
 -4.99094043e-06 -4.73163227e-07  2.49504713e-04  2.04186648e-08 -6.14719812e-03
 -5.04476618e-03  1.09598376e-04  1.90006519e-04 -4.80590253e-07 -2.28144801e-04
  3.57339813e-05  3.17954819e-05 -4.17499468e-06 -1.07705652e-03 -6.78098343e-04
  5.48805707e-04  2.04004553e-05 -6.29122629e-05  8.60131840e-07  3.71662831e-06
  5.62149373e-06 -6.37527294e-05 -6.14706446e-03 -5.04465479e-03  1.09615769e-04
 -1.89991795e-04 -6.67114924e-07 -2.28146407e-04  3.57433662e-05 -3.18011013e-05
 -4.20700213e-06 -1.07706962e-03 -6.78041856e-04 -5.48897633e-04  1.98637241e-05
 -6.29165157e-05  9.23089609e-07 -3.61579886e-06  5.60763305e-06  6.37570584e-05
 -2.70994402e-05 -2.38890846e-05  3.34020424e-06 -6.97099227e-06  3.89218209e-07
  8.62465629e-06 -2.49215006e-05  1.00253557e-05 -9.11191765e-07  8.18488585e-04
 -3.12962471e-04 -6.67622724e-05  1.28676275e-05  1.66750251e-06 -1.66206137e-07
 -2.65390302e-09  7.85014878e-06 -4.20517519e-05 -2.70971651e-05 -2.38870405e-05
  3.33933244e-06  6.97075179e-06  3.96085919e-07  8.62345817e-06 -2.49194486e-05
 -1.00257508e-05 -9.21149314e-07  8.18495931e-04 -3.12970870e-04  6.67273871e-05
  1.29352436e-05  1.66777534e-06 -1.24914382e-07 -7.88523739e-09  7.84098695e-06
  4.20533094e-05  9.12579288e-05  7.21763182e-05  5.97997472e-07 -1.38212493e-10
  2.33723851e-08  3.03542249e-05 -1.30075331e-05  3.72978546e-10 -8.06160747e-08
 -1.84490145e-04  2.62981439e-04  1.88370018e-08 -8.37677536e-06  9.06041032e-06
 -4.13291448e-07 -1.59412562e-08  1.67343380e-05  1.64889845e-09 -2.32399489e-06
 -1.06937570e-04 -2.08522705e-04  1.96757138e-05  2.16585324e-05  1.17762968e-08
 -2.32405501e-06 -1.06941481e-04 -2.08519414e-04  1.96767643e-05 -2.16578676e-05
 -8.95794024e-09  7.83553770e-06 -2.56602119e-05  1.52222123e-05  1.41652990e-05
 -1.03695183e-05 -8.23391837e-07  7.83528398e-06 -2.56577025e-05  1.52240444e-05
  1.41639347e-05  1.03718587e-05 -8.13341807e-07  6.61568939e-06 -6.90223377e-05
 -5.01662833e-05  4.14479525e-06 -4.07499119e-12  4.14413978e-08 -1.76697628e-05
 -1.80589374e-04  1.09671571e-04 -5.27570638e-05 -8.61761644e-05 -3.49198872e-05
 -1.76715596e-05 -1.80591393e-04  1.09672896e-04 -5.27651474e-05  8.62100226e-05
 -3.48275608e-05 -5.95233965e-07 -1.69417600e-06 -4.35699520e-07 -6.68218717e-09
 -8.76953802e-07  1.25284242e-05  9.22560086e-06  1.85423133e-08  1.74577118e-06
 -7.51896805e-05 -4.38023937e-05  3.28272192e-07 -2.27037513e-06  1.77205171e-06
  1.25922768e-06 -4.70195140e-09 -4.06860932e-06  4.07938587e-08 -4.93878101e-04
 -4.16975487e-04  2.52450831e-06  4.21966591e-08 -7.67467569e-07  5.44020692e-05
  1.34514927e-05  1.29773684e-07  2.60112485e-06 -7.95059605e-04 -3.70346409e-04
 -2.24497326e-06  1.11165408e-06  8.22430986e-06 -1.61703992e-06 -3.25623127e-08
  3.66820851e-05  1.17632560e-07  2.07905577e-02  1.71781206e-02  1.52720305e-04
  2.34843442e-06 -4.58237877e-06  3.29547366e-04  9.18599092e-05 -5.78956704e-06
 -2.20847808e-06  5.39378319e-04  9.65010475e-05 -4.67979032e-04 -3.10599797e-06
  2.55992856e-05 -7.41030115e-07 -2.35102175e-08  7.54863551e-05  8.73340590e-06
  2.06179274e-02  1.70354765e-02  1.51485525e-04 -2.34221015e-06 -4.54434437e-06
  3.26807754e-04  9.11440504e-05  5.85856612e-06 -2.20451801e-06  5.35373986e-04
  9.79328158e-05  4.65749770e-04 -2.62181761e-06  2.53452941e-05 -7.49470710e-07
 -9.34226975e-08  7.49459992e-05 -8.79432174e-06  3.98785543e-01  3.30278681e-01
  2.50559263e-05  1.17431920e-04 -3.21935854e-06  2.99133897e-03 -6.74825682e-05
 -2.00218635e-04  3.95884357e-06 -7.86928580e-04  1.49508019e-04  5.63620287e-04
 -6.29724142e-06 -3.01838198e-04 -1.23699950e-05  2.45680758e-06  5.46758054e-06
 -6.48150146e-05  3.95593170e-01  3.27634685e-01  2.49492547e-05 -1.16447716e-04
 -3.31246193e-06  2.96767371e-03 -6.69683580e-05  1.98714000e-04  4.13244629e-06
 -7.86631078e-04  1.48030059e-04 -5.61398037e-04 -6.83719089e-06 -2.99371237e-04
 -1.21958194e-05 -1.93134820e-06  5.06451593e-06  6.41953394e-05  3.07937210e-02
  2.54273309e-02 -1.57845249e-04  1.09115570e-06  3.00822975e-06  5.60491509e-04
 -4.81331430e-05  4.47333851e-07  1.42009090e-06  8.44984263e-04 -5.20298315e-04
 -7.97128824e-07  1.27954193e-05  7.32998729e-05  4.31853510e-06 -2.41189828e-08
 -5.82820212e-05 -4.10959023e-07  1.78040627e-05  6.93932213e-05  1.12625225e-04
  2.71914355e-05  2.80240901e-06 -8.54354277e-07  1.76222607e-05  6.96483973e-05
  1.12168215e-04  2.70043169e-05 -2.69168163e-06 -8.55765458e-07  3.07606741e-04
 -1.73351767e-04  3.12051159e-05  8.01537077e-06 -1.06755399e-05  9.67664871e-08
  3.05135138e-04 -1.71852803e-04  3.07505154e-05  8.09356047e-06  1.06758984e-05
  1.07556121e-07  3.17574723e-05  1.91507216e-05  1.54774259e-04 -4.63681768e-06
  1.84681726e-07  2.36324626e-07 -4.15173192e-08 -3.35027426e-06 -2.05877901e-05
  3.65770932e-07  3.38281576e-07 -3.20896425e-07 -6.24935810e-08 -3.37467978e-06
 -2.07422803e-05  3.98171156e-07 -3.43864069e-07 -3.58660019e-07  2.39053238e-09
  6.78622456e-09  1.84451099e-09 -1.78725297e-06  2.71130538e-09 -5.06661556e-08
 -3.73461885e-08  4.75006188e-06 -5.19358609e-09  3.05883897e-07  1.70527805e-07
  8.12220928e-05  4.79575653e-08 -8.33412635e-09  2.37239973e-10 -1.25613419e-06
  1.44257999e-08  1.04676949e-05  1.97452108e-06  1.66715473e-06 -1.04669750e-08
  1.03283333e-05  8.20044627e-09 -2.17503174e-07 -5.57925809e-08  3.26517821e-05
  5.31373722e-09  3.17306877e-06  1.50903737e-06 -5.52656962e-04 -2.74495678e-07
 -3.42171077e-08  2.03834151e-08 -1.85757854e-06 -1.51401205e-07  2.82428641e-05
  2.14242397e-02  1.77027973e-02  1.53265027e-04 -1.75092526e-06 -5.15717889e-06
  3.40037274e-04  8.88392661e-05  7.40094234e-06  2.04843355e-07  4.95968616e-04
 -1.83799869e-04 -2.76291747e-04 -3.37952972e-06  3.15880182e-05 -3.74149623e-08
 -1.39662973e-08  6.72645388e-05 -9.57435276e-06 -2.15903696e-02 -1.78400613e-02
 -1.54485919e-04 -1.75333729e-06  5.19335735e-06 -3.42671978e-04 -8.95736562e-05
  7.34703307e-06 -1.80000311e-07 -5.00256496e-04  1.83050497e-04 -2.80009701e-04
  3.12833537e-06 -3.17929524e-05  3.41644889e-08  1.06706943e-07 -6.78667523e-05
 -9.51685097e-06  3.96154906e-01  3.28104626e-01  1.48233616e-05  1.21928869e-04
 -2.69765411e-06  2.93728489e-03 -6.60344408e-05 -1.86989762e-04  2.91085415e-06
 -3.40658503e-05  1.91454232e-04  2.71409701e-04 -1.74894096e-06 -3.06797651e-04
 -1.38718619e-05  2.64586777e-06  4.82011607e-05 -7.92326200e-05 -3.99342748e-01
 -3.30744834e-01 -1.50379760e-05  1.22867163e-04  2.84462218e-06 -2.96120271e-03
  6.65911271e-05 -1.88595122e-04 -3.12982760e-06  4.03501457e-05 -1.92670410e-04
  2.75885349e-04  2.07189467e-06  3.09215841e-04  1.38928894e-05  2.18715524e-06
 -4.82236884e-05 -7.97783444e-05 -1.24077966e-04 -1.02456559e-04  6.20716703e-07
  2.74718329e-04  1.23280248e-07 -2.25322689e-06  1.83829370e-07  1.10962844e-04
  4.91348323e-08 -3.36698994e-06  2.08615169e-06 -1.91354585e-04 -1.45791356e-07
 -2.93346665e-07 -6.68274215e-08  2.38796450e-06  2.44622824e-07 -9.99943957e-05
  2.26321265e-05 -3.22896842e-05  5.63244101e-05  2.31844110e-05  1.33617965e-05
 -2.04640377e-07 -2.27746924e-05  3.17334334e-05 -5.72239171e-05 -2.34030857e-05
  1.33812941e-05  2.24951429e-07  3.06651441e-04 -1.85356832e-04  5.63184616e-05
 -1.01471868e-05 -2.16705840e-07 -2.78450777e-09 -3.09109444e-04  1.86734602e-04
 -5.65686767e-05  1.00841840e-05 -3.03019170e-07  1.48524247e-09 -1.28251545e-07
 -7.41009496e-08 -6.20329792e-07  1.58007999e-08  4.61312567e-05  2.18501745e-08
  2.63030646e-06  2.72835148e-06  1.91109694e-05 -4.07583506e-06 -8.02152639e-07
  4.60930737e-06 -2.62949914e-06 -2.70671354e-06 -1.89459593e-05  4.07247703e-06
 -7.92836779e-07 -4.60722633e-06  5.91513866e-08  3.65317182e-08 -1.70505490e-07
 -1.20213999e-05 -2.15161300e-08  3.80527755e-07  3.45525990e-07  1.94052809e-05
  1.24875950e-07 -2.65303077e-06 -1.48867945e-06  1.41238629e-05  2.83573862e-07
  6.35963657e-08 -2.83673318e-08  8.10302580e-07  3.11840819e-08  2.57920700e-05
 -7.13328996e-05 -5.97738139e-05  1.34404566e-06  2.75804732e-04  1.16532344e-07
  2.67977001e-06  4.05289025e-07  1.89665189e-04  9.40612378e-08  6.62278968e-06
  3.93334506e-07 -3.52145714e-04 -1.99920565e-07  6.87502676e-07  1.09944675e-07
 -5.80356811e-06 -4.90237806e-07  1.17356138e-04  4.00893612e-01  3.32039450e-01
 -1.15480922e-04  2.86512450e-05 -1.75423220e-05  3.08451806e-03  1.55894662e-04