
    -----------------------------------------------------------------------
          Psi4: An Open-Source Ab Initio Electronic Structure Package
                               Psi4 1.3.2 release

                         Git: Rev {HEAD} ecbda83 


    R. M. Parrish, L. A. Burns, D. G. A. Smith, A. C. Simmonett,
    A. E. DePrince III, E. G. Hohenstein, U. Bozkaya, A. Yu. Sokolov,
    R. Di Remigio, R. M. Richard, J. F. Gonthier, A. M. James,
    H. R. McAlexander, A. Kumar, M. Saitow, X. Wang, B. P. Pritchard,
    P. Verma, H. F. Schaefer III, K. Patkowski, R. A. King, E. F. Valeev,
    F. A. Evangelista, J. M. Turney, T. D. Crawford, and C. D. Sherrill,
    J. Chem. Theory Comput. 13(7) pp 3185--3197 (2017).
    (doi: 10.1021/acs.jctc.7b00174)


                         Additional Contributions by
    P. Kraus, H. Kruse, M. H. Lechner, M. C. Schieber, R. A. Shaw,
    A. Alenaizan, R. Galvelis, Z. L. Glick, S. Lehtola, and J. P. Misiewicz

    -----------------------------------------------------------------------


    Psi4 started on: Sunday, 29 December 2019 02:12PM

    Process ID: 3245
    Host:       bme-nova.bme.utexas.edu
    PSIDATADIR: /home/bdw2292/miniconda3/envs/p4env/share/psi4
    Memory:     500.0 MiB
    Threads:    1
    
  ==> Input File <==

--------------------------------------------------------------------------
molecule { 
0 1
N           -2.342609240876    -0.000176467513     0.116758348253
C           -0.941853110765    -0.000051204349     0.010371871165
C           -0.229073707438     1.205805369689     0.006176318036
C           -0.228948395201    -1.205832910139     0.004992054268
C            1.163021216147     1.202560301327    -0.028809080190
C            1.163146020339    -1.202416312749    -0.029994820759
C            1.869456080665     0.000113838775    -0.043521374654
H           -0.772134754992     2.149032425409     0.022626572624
H           -0.771913645022    -2.149128451749     0.020522365183
H            1.697636192274     2.149339255619    -0.038156963096
H            1.697859964148    -2.149131532425    -0.040274229162
H            2.955347611972     0.000180000079    -0.071183597650
H           -2.773090620968    -0.830644437326    -0.277405525618
H           -2.773165127627     0.830672336532    -0.276516471690
}
memory 700MB
set_num_threads(1)
psi4_io.set_default_path("/scratch/bdw2292")
set freeze_core True
E, wfn = energy('mp2/6-311G**',return_wfn=True)
gdma(wfn)
fchk(wfn, "aniline-dma.fchk")
clean()
--------------------------------------------------------------------------

  Memory set to 667.572 MiB by Python driver.
  Threads set to 1 by Python driver.
    SCF Algorithm Type (re)set to DF.

*** tstart() called on bme-nova.bme.utexas.edu
*** at Sun Dec 29 14:12:40 2019

   => Loading Basis Set <=

    Name: 6-311G**
    Role: ORBITAL
    Keyword: BASIS
    atoms 1    entry N          line   132 file /home/bdw2292/miniconda3/envs/p4env/share/psi4/basis/6-311gss.gbs 
    atoms 2-7  entry C          line   113 file /home/bdw2292/miniconda3/envs/p4env/share/psi4/basis/6-311gss.gbs 
    atoms 8-14 entry H          line    32 file /home/bdw2292/miniconda3/envs/p4env/share/psi4/basis/6-311gss.gbs 


         ---------------------------------------------------------
                                   SCF
               by Justin Turney, Rob Parrish, Andy Simmonett
                          and Daniel G. A. Smith
                              RHF Reference
                        1 Threads,    667 MiB Core
         ---------------------------------------------------------

  ==> Geometry <==

    Molecular point group: c1
    Full point group: C1

    Geometry (in Angstrom), charge = 0, multiplicity = 1:

       Center              X                  Y                   Z               Mass       
    ------------   -----------------  -----------------  -----------------  -----------------
         N           -2.342609240876    -0.000176467513     0.116758348253    14.003074004430
         C           -0.941853110765    -0.000051204349     0.010371871165    12.000000000000
         C           -0.229073707438     1.205805369689     0.006176318036    12.000000000000
         C           -0.228948395201    -1.205832910139     0.004992054268    12.000000000000
         C            1.163021216147     1.202560301327    -0.028809080190    12.000000000000
         C            1.163146020339    -1.202416312749    -0.029994820759    12.000000000000
         C            1.869456080665     0.000113838775    -0.043521374654    12.000000000000
         H           -0.772134754992     2.149032425409     0.022626572624     1.007825032230
         H           -0.771913645022    -2.149128451749     0.020522365183     1.007825032230
         H            1.697636192274     2.149339255619    -0.038156963096     1.007825032230
         H            1.697859964148    -2.149131532425    -0.040274229162     1.007825032230
         H            2.955347611972     0.000180000079    -0.071183597650     1.007825032230
         H           -2.773090620968    -0.830644437326    -0.277405525618     1.007825032230
         H           -2.773165127627     0.830672336532    -0.276516471690     1.007825032230

  Running in c1 symmetry.

  Rotational constants: A =      0.18751  B =      0.08651  C =      0.05932 [cm^-1]
  Rotational constants: A =   5621.49044  B =   2593.42422  C =   1778.32083 [MHz]
  Nuclear repulsion =  271.230076775949726

  Charge       = 0
  Multiplicity = 1
  Electrons    = 50
  Nalpha       = 25
  Nbeta        = 25

  ==> Algorithm <==

  SCF Algorithm Type is DF.
  DIIS enabled.
  MOM disabled.
  Fractional occupation disabled.
  Guess Type is SAD.
  Energy threshold   = 1.00e-08
  Density threshold  = 1.00e-08
  Integral threshold = 0.00e+00

  ==> Primary Basis <==

  Basis Set: 6-311G**
    Blend: 6-311G**
    Number of shells: 84
    Number of basis function: 168
    Number of Cartesian functions: 175
    Spherical Harmonics?: true
    Max angular momentum: 2

   => Loading Basis Set <=

    Name: (6-311G** AUX)
    Role: JKFIT
    Keyword: DF_BASIS_SCF
    atoms 1    entry N          line   177 file /home/bdw2292/miniconda3/envs/p4env/share/psi4/basis/cc-pvtz-jkfit.gbs 
    atoms 2-7  entry C          line   125 file /home/bdw2292/miniconda3/envs/p4env/share/psi4/basis/cc-pvtz-jkfit.gbs 
    atoms 8-14 entry H          line    51 file /home/bdw2292/miniconda3/envs/p4env/share/psi4/basis/cc-pvtz-jkfit.gbs 

  ==> Pre-Iterations <==

   -------------------------------------------------------
    Irrep   Nso     Nmo     Nalpha   Nbeta   Ndocc  Nsocc
   -------------------------------------------------------
     A        168     168       0       0       0       0
   -------------------------------------------------------
    Total     168     168      25      25      25       0
   -------------------------------------------------------

  ==> Integral Setup <==

  DFHelper Memory: AOs need 0.164 GiB; user supplied 0.489 GiB. Using in-core AOs.

  ==> MemDFJK: Density-Fitted J/K Matrices <==

    J tasked:                   Yes
    K tasked:                   Yes
    wK tasked:                   No
    OpenMP threads:               1
    Memory [MiB]:               500
    Algorithm:                 Core
    Schwarz Cutoff:           1E-12
    Mask sparsity (%):       4.4643
    Fitting Condition:        1E-10

   => Auxiliary Basis Set <=

  Basis Set: (6-311G** AUX)
    Blend: CC-PVTZ-JKFIT
    Number of shells: 245
    Number of basis function: 763
    Number of Cartesian functions: 917
    Spherical Harmonics?: true
    Max angular momentum: 4

  Minimum eigenvalue in the overlap matrix is 2.0625348518E-04.
  Using Symmetric Orthogonalization.

  SCF Guess: Superposition of Atomic Densities via on-the-fly atomic UHF.

  ==> Iterations <==

                           Total Energy        Delta E     RMS |[F,P]|

   @DF-RHF iter SAD:  -285.23712959459795   -2.85237e+02   0.00000e+00 
   @DF-RHF iter   1:  -285.63011578952791   -3.92986e-01   3.11622e-03 DIIS
   @DF-RHF iter   2:  -285.77279499187546   -1.42679e-01   1.33378e-03 DIIS
   @DF-RHF iter   3:  -285.79676512749836   -2.39701e-02   2.57025e-04 DIIS
   @DF-RHF iter   4:  -285.79849072474599   -1.72560e-03   5.76224e-05 DIIS
   @DF-RHF iter   5:  -285.79855366603931   -6.29413e-05   2.32219e-05 DIIS
   @DF-RHF iter   6:  -285.79856656182267   -1.28958e-05   7.02742e-06 DIIS
   @DF-RHF iter   7:  -285.79856815775730   -1.59593e-06   2.30596e-06 DIIS
   @DF-RHF iter   8:  -285.79856833855683   -1.80800e-07   7.94561e-07 DIIS
   @DF-RHF iter   9:  -285.79856837044110   -3.18843e-08   3.29268e-07 DIIS
   @DF-RHF iter  10:  -285.79856837777311   -7.33201e-09   1.73471e-07 DIIS
   @DF-RHF iter  11:  -285.79856837979690   -2.02380e-09   6.36136e-08 DIIS
   @DF-RHF iter  12:  -285.79856838012410   -3.27191e-10   1.78052e-08 DIIS
   @DF-RHF iter  13:  -285.79856838013950   -1.54046e-11   6.10657e-09 DIIS
  Energy and wave function converged.


  ==> Post-Iterations <==

    Orbital Energies [Eh]
    ---------------------

    Doubly Occupied:                                                      

       1A    -15.558919     2A    -11.275989     3A    -11.234337  
       4A    -11.234302     5A    -11.222832     6A    -11.222814  
       7A    -11.218765     8A     -1.219663     9A     -1.124184  
      10A     -1.010025    11A     -0.983520    12A     -0.829304  
      13A     -0.809113    14A     -0.701128    15A     -0.678387  
      16A     -0.651736    17A     -0.595747    18A     -0.589603  
      19A     -0.579071    20A     -0.531300    21A     -0.504015  
      22A     -0.487182    23A     -0.446828    24A     -0.334563  
      25A     -0.294472  

    Virtual:                                                              

      26A      0.134428    27A      0.148725    28A      0.158347  
      29A      0.167919    30A      0.179389    31A      0.208813  
      32A      0.209144    33A      0.242992    34A      0.260192  
      35A      0.354614    36A      0.400035    37A      0.432888  
      38A      0.439714    39A      0.454725    40A      0.477019  
      41A      0.507862    42A      0.528695    43A      0.578357  
      44A      0.585619    45A      0.589482    46A      0.620124  
      47A      0.623901    48A      0.636647    49A      0.642077  
      50A      0.643005    51A      0.652162    52A      0.675251  
      53A      0.719968    54A      0.720745    55A      0.744210  
      56A      0.764116    57A      0.807983    58A      0.814689  
      59A      0.827353    60A      0.832129    61A      0.834927  
      62A      0.864938    63A      0.875870    64A      0.903778  
      65A      0.925639    66A      0.947707    67A      0.961063  
      68A      1.000241    69A      1.033982    70A      1.067613  
      71A      1.079466    72A      1.090794    73A      1.135122  
      74A      1.190484    75A      1.207249    76A      1.216247  
      77A      1.261054    78A      1.330583    79A      1.341853  
      80A      1.398163    81A      1.409771    82A      1.435239  
      83A      1.462963    84A      1.589214    85A      1.657897  
      86A      1.711597    87A      1.730868    88A      1.753354  
      89A      1.767382    90A      1.804217    91A      1.825247  
      92A      1.827180    93A      1.846193    94A      1.874258  
      95A      1.885067    96A      1.891601    97A      1.941049  
      98A      1.956446    99A      2.012726   100A      2.037880  
     101A      2.046760   102A      2.057858   103A      2.114101  
     104A      2.159231   105A      2.180071   106A      2.206939  
     107A      2.213524   108A      2.215330   109A      2.234699  
     110A      2.237375   111A      2.285236   112A      2.325260  
     113A      2.336035   114A      2.376811   115A      2.377770  
     116A      2.567804   117A      2.583231   118A      2.603724  
     119A      2.655586   120A      2.667710   121A      2.706014  
     122A      2.761729   123A      2.764868   124A      2.820160  
     125A      2.910472   126A      2.915091   127A      2.932556  
     128A      2.945575   129A      2.951252   130A      2.951274  
     131A      2.970885   132A      2.975012   133A      3.022626  
     134A      3.051337   135A      3.075080   136A      3.121273  
     137A      3.141489   138A      3.215760   139A      3.217897  
     140A      3.264707   141A      3.284256   142A      3.286939  
     143A      3.353921   144A      3.457517   145A      3.551234  
     146A      3.648189   147A      3.720153   148A      3.762301  
     149A      3.811427   150A      3.893409   151A      3.901343  
     152A      4.027374   153A      4.206479   154A      4.367600  
     155A      4.411327   156A      4.475627   157A      4.520782  
     158A      4.527348   159A      5.230984   160A      5.285693  
     161A      5.452069   162A     24.647152   163A     25.083331  
     164A     25.102475   165A     25.235459   166A     25.266305  
     167A     25.356174   168A     37.041363  

    Final Occupation by Irrep:
              A 
    DOCC [    25 ]

  @DF-RHF Final Energy:  -285.79856838013950

   => Energetics <=

    Nuclear Repulsion Energy =            271.2300767759497262
    One-Electron Energy =                -923.3816945391915851
    Two-Electron Energy =                 366.3530493831023023
    Total Energy =                       -285.7985683801394998

Computation Completed


Properties will be evaluated at   0.000000,   0.000000,   0.000000 [a0]

Properties computed using the SCF density matrix

  Nuclear Dipole Moment: [e a0]
     X:    -0.6864      Y:     0.0003      Z:    -0.6194

  Electronic Dipole Moment: [e a0]
     X:     0.3290      Y:    -0.0001      Z:     0.1462

  Dipole Moment: [e a0]
     X:    -0.3574      Y:     0.0002      Z:    -0.4732     Total:     0.5930

  Dipole Moment: [D]
     X:    -0.9085      Y:     0.0006      Z:    -1.2028     Total:     1.5073


*** tstop() called on bme-nova.bme.utexas.edu at Sun Dec 29 14:12:44 2019
Module time:
	user time   =       4.07 seconds =       0.07 minutes
	system time =       0.10 seconds =       0.00 minutes
	total time  =          4 seconds =       0.07 minutes
Total time:
	user time   =       4.07 seconds =       0.07 minutes
	system time =       0.10 seconds =       0.00 minutes
	total time  =          4 seconds =       0.07 minutes

*** tstart() called on bme-nova.bme.utexas.edu
*** at Sun Dec 29 14:12:44 2019


  //>>>>>>>>>>>>>>>>>>>>>>>>>>>>>>>>>>>//
  //               DFMP2               //
  //<<<<<<<<<<<<<<<<<<<<<<<<<<<<<<<<<<<//

   => Loading Basis Set <=

    Name: (6-311G** AUX)
    Role: RIFIT
    Keyword: DF_BASIS_MP2
    atoms 1    entry N          line   257 file /home/bdw2292/miniconda3/envs/p4env/share/psi4/basis/cc-pvtz-ri.gbs 
    atoms 2-7  entry C          line   209 file /home/bdw2292/miniconda3/envs/p4env/share/psi4/basis/cc-pvtz-ri.gbs 
    atoms 8-14 entry H          line    19 file /home/bdw2292/miniconda3/envs/p4env/share/psi4/basis/cc-pvtz-ri.gbs 

	 --------------------------------------------------------
	                          DF-MP2                         
	      2nd-Order Density-Fitted Moller-Plesset Theory     
	              RMP2 Wavefunction,   1 Threads             
	                                                         
	        Rob Parrish, Justin Turney, Andy Simmonett,      
	           Ed Hohenstein, and C. David Sherrill          
	 --------------------------------------------------------

   => Auxiliary Basis Set <=

  Basis Set: (6-311G** AUX)
    Blend: CC-PVTZ-RI
    Number of shells: 231
    Number of basis function: 777
    Number of Cartesian functions: 952
    Spherical Harmonics?: true
    Max angular momentum: 4

	 --------------------------------------------------------
	                 NBF =   168, NAUX =   777
	 --------------------------------------------------------
	   CLASS    FOCC     OCC    AOCC    AVIR     VIR    FVIR
	   PAIRS       7      25      18     143     143       0
	 --------------------------------------------------------

	-----------------------------------------------------------
	 ==================> DF-MP2 Energies <==================== 
	-----------------------------------------------------------
	 Reference Energy          =    -285.7985683801394998 [Eh]
	 Singles Energy            =      -0.0000000000000000 [Eh]
	 Same-Spin Energy          =      -0.2637322715414264 [Eh]
	 Opposite-Spin Energy      =      -0.7420981472575831 [Eh]
	 Correlation Energy        =      -1.0058304187990095 [Eh]
	 Total Energy              =    -286.8043987989385073 [Eh]
	-----------------------------------------------------------
	 ================> DF-SCS-MP2 Energies <================== 
	-----------------------------------------------------------
	 SCS Same-Spin Scale       =       0.3333333333333333 [-]
	 SCS Opposite-Spin Scale   =       1.2000000000000000 [-]
	 SCS Same-Spin Energy      =      -0.0879107571804755 [Eh]
	 SCS Opposite-Spin Energy  =      -0.8905177767090996 [Eh]
	 SCS Correlation Energy    =      -0.9784285338895751 [Eh]
	 SCS Total Energy          =    -286.7769969140290982 [Eh]
	-----------------------------------------------------------


*** tstop() called on bme-nova.bme.utexas.edu at Sun Dec 29 14:12:46 2019
Module time:
	user time   =       1.88 seconds =       0.03 minutes
	system time =       0.08 seconds =       0.00 minutes
	total time  =          2 seconds =       0.03 minutes
Total time:
	user time   =       5.95 seconds =       0.10 minutes
	system time =       0.18 seconds =       0.00 minutes
	total time  =          6 seconds =       0.10 minutes
                                     G D M A

                                 by Anthony Stone

                           version 2.2.06, 22 June 2011

               Distributed Multipoles from Gaussian wavefunctions


Starting at 14:12:46 on 29 Dec 2019 


Using CC density matrix from file aniline-dma.default.3245.fchk


                         Distributed Multipole Analysis

Standard DMA for products of primitives with exponent greater than 4.00000
Using 80-point Euler-MacLaurin radial quadrature
Using 590-point Lebedev quadrature
Becke smoothing parameter = 3

Positions and radii in angstrom
Multipole moments in atomic units, ea_0^k for rank k

N          x = -2.342609  y = -0.000176  z =  0.116758 angstrom
           Maximum rank =  2   Radius =  0.650 angstrom
                   Q00  =  -0.292117
|Q1| =   0.429404  Q10  =  -0.392861  Q11c =   0.173343  Q11s =   0.000222
|Q2| =   1.318204  Q20  =  -1.206300  Q21c =   0.523111  Q21s =   0.001093
                   Q22c =   0.094110  Q22s =  -0.000268

C          x = -0.941853  y = -0.000051  z =  0.010372 angstrom
           Maximum rank =  2   Radius =  0.650 angstrom
                   Q00  =   0.016562
|Q1| =   0.056642  Q10  =   0.056275  Q11c =   0.006440  Q11s =  -0.000027
|Q2| =   1.127710  Q20  =  -1.115485  Q21c =  -0.119845  Q21s =   0.000888
                   Q22c =   0.114275  Q22s =   0.000074

C          x = -0.229074  y =  1.205805  z =  0.006176 angstrom
           Maximum rank =  2   Radius =  0.650 angstrom
                   Q00  =  -0.111704
|Q1| =   0.145472  Q10  =   0.014744  Q11c =   0.027843  Q11s =  -0.142019
|Q2| =   1.386031  Q20  =  -1.382712  Q21c =  -0.090100  Q21s =   0.018719
                   Q22c =   0.015933  Q22s =   0.021653

C          x = -0.228948  y = -1.205833  z =  0.004992 angstrom
           Maximum rank =  2   Radius =  0.650 angstrom
                   Q00  =  -0.111702
|Q1| =   0.145469  Q10  =   0.014884  Q11c =   0.027826  Q11s =   0.142004
|Q2| =   1.386035  Q20  =  -1.382744  Q21c =  -0.090130  Q21s =  -0.016402
                   Q22c =   0.015924  Q22s =  -0.021558

C          x =  1.163021  y =  1.202560  z = -0.028809 angstrom
           Maximum rank =  2   Radius =  0.650 angstrom
                   Q00  =  -0.064618
|Q1| =   0.117353  Q10  =   0.005495  Q11c =  -0.063170  Q11s =  -0.098748
|Q2| =   1.224590  Q20  =  -1.220774  Q21c =  -0.050185  Q21s =   0.000931
                   Q22c =  -0.040291  Q22s =   0.072033

C          x =  1.163146  y = -1.202416  z = -0.029995 angstrom
           Maximum rank =  2   Radius =  0.650 angstrom
                   Q00  =  -0.064618
|Q1| =   0.117355  Q10  =   0.005593  Q11c =  -0.063179  Q11s =   0.098739
|Q2| =   1.224588  Q20  =  -1.220772  Q21c =  -0.050260  Q21s =   0.001186
                   Q22c =  -0.040275  Q22s =  -0.071991

C          x =  1.869456  y =  0.000114  z = -0.043521 angstrom
           Maximum rank =  2   Radius =  0.650 angstrom
                   Q00  =  -0.112313
|Q1| =   0.134596  Q10  =   0.002968  Q11c =  -0.134564  Q11s =  -0.000011
|Q2| =   1.347430  Q20  =  -1.343242  Q21c =  -0.056116  Q21s =   0.001100
                   Q22c =   0.090109  Q22s =   0.000035

H          x = -0.772135  y =  2.149032  z =  0.022627 angstrom
           Maximum rank =  2   Radius =  0.325 angstrom
                   Q00  =   0.083742
|Q1| =   0.131109  Q10  =   0.000931  Q11c =   0.056477  Q11s =  -0.118317
|Q2| =   0.183849  Q20  =  -0.159094  Q21c =  -0.007605  Q21s =   0.004789
                   Q22c =  -0.045203  Q22s =  -0.079783

H          x = -0.771914  y = -2.149128  z =  0.020522 angstrom
           Maximum rank =  2   Radius =  0.325 angstrom
                   Q00  =   0.083742
|Q1| =   0.131109  Q10  =   0.001048  Q11c =   0.056465  Q11s =   0.118322
|Q2| =   0.183849  Q20  =  -0.159102  Q21c =  -0.007529  Q21s =  -0.004477
                   Q22c =  -0.045223  Q22s =   0.079782

H          x =  1.697636  y =  2.149339  z = -0.038157 angstrom
           Maximum rank =  2   Radius =  0.325 angstrom
                   Q00  =   0.083674
|Q1| =   0.124689  Q10  =   0.001597  Q11c =  -0.062074  Q11s =  -0.108127
|Q2| =   0.184767  Q20  =  -0.145499  Q21c =  -0.004042  Q21s =  -0.001263
                   Q22c =  -0.058407  Q22s =   0.097670

H          x =  1.697860  y = -2.149132  z = -0.040274 angstrom
           Maximum rank =  2   Radius =  0.325 angstrom
                   Q00  =   0.083675
|Q1| =   0.124688  Q10  =   0.001703  Q11c =  -0.062085  Q11s =   0.108119
|Q2| =   0.184767  Q20  =  -0.145496  Q21c =  -0.004138  Q21s =   0.001568
                   Q22c =  -0.058385  Q22s =  -0.097678

H          x =  2.955348  y =  0.000180  z = -0.071184 angstrom
           Maximum rank =  2   Radius =  0.325 angstrom
                   Q00  =   0.077314
|Q1| =   0.127645  Q10  =   0.003228  Q11c =  -0.127604  Q11s =  -0.000009
|Q2| =   0.195668  Q20  =  -0.156483  Q21c =  -0.009618  Q21s =   0.000075
                   Q22c =   0.117075  Q22s =   0.000016

H          x = -2.773091  y = -0.830644  z = -0.277406 angstrom
           Maximum rank =  2   Radius =  0.325 angstrom
                   Q00  =   0.164181
|Q1| =   0.079819  Q10  =   0.024562  Q11c =   0.061864  Q11s =   0.044052
|Q2| =   0.172790  Q20  =  -0.101055  Q21c =   0.056919  Q21s =   0.094249
                   Q22c =  -0.038201  Q22s =   0.077860

H          x = -2.773165  y =  0.830672  z = -0.276516 angstrom
           Maximum rank =  2   Radius =  0.325 angstrom
                   Q00  =   0.164180
|Q1| =   0.079819  Q10  =   0.024515  Q11c =   0.061869  Q11s =  -0.044073
|Q2| =   0.172789  Q20  =  -0.101230  Q21c =   0.056843  Q21s =  -0.094016
                   Q22c =  -0.038286  Q22s =  -0.077928

Total multipoles referred to origin at
           x =   0.000000,  y =    0.000000,  z =    0.000000 angstrom
                   Q00  =  -0.000002
|Q1| =   0.593028  Q10  =  -0.473218  Q11c =  -0.357417  Q11s =   0.000233
|Q2| =   9.745505  Q20  =  -8.570123  Q21c =   4.615639  Q21s =   0.007426
                   Q22c =   0.472944  Q22s =  -0.002454

Finished at 14:13:53 on 29 Dec 2019 

  DMA results are available in the Python driver through the
	  variable('DMA DISTRIBUTED MULTIPOLES')
  and
	  variable('DMA TOTAL MULTIPOLES')
  commands.


    Psi4 stopped on: Sunday, 29 December 2019 02:13PM
    Psi4 wall time for execution: 0:01:12.63

*** Psi4 exiting successfully. Buy a developer a beer!
