
    -----------------------------------------------------------------------
          Psi4: An Open-Source Ab Initio Electronic Structure Package
                               Psi4 1.3.2 release

                         Git: Rev {HEAD} ecbda83 


    R. M. Parrish, L. A. Burns, D. G. A. Smith, A. C. Simmonett,
    A. E. DePrince III, E. G. Hohenstein, U. Bozkaya, A. Yu. Sokolov,
    R. Di Remigio, R. M. Richard, J. F. Gonthier, A. M. James,
    H. R. McAlexander, A. Kumar, M. Saitow, X. Wang, B. P. Pritchard,
    P. Verma, H. F. Schaefer III, K. Patkowski, R. A. King, E. F. Valeev,
    F. A. Evangelista, J. M. Turney, T. D. Crawford, and C. D. Sherrill,
    J. Chem. Theory Comput. 13(7) pp 3185--3197 (2017).
    (doi: 10.1021/acs.jctc.7b00174)


                         Additional Contributions by
    P. Kraus, H. Kruse, M. H. Lechner, M. C. Schieber, R. A. Shaw,
    A. Alenaizan, R. Galvelis, Z. L. Glick, S. Lehtola, and J. P. Misiewicz

    -----------------------------------------------------------------------


    Psi4 started on: Sunday, 29 December 2019 01:25PM

    Process ID: 143331
    Host:       bme-nova.bme.utexas.edu
    PSIDATADIR: /home/bdw2292/miniconda3/envs/p4env/share/psi4
    Memory:     500.0 MiB
    Threads:    1
    
  ==> Input File <==

--------------------------------------------------------------------------
molecule { 
0 1
C            0.000001138234    -0.000001519993     0.000000015027
H           -0.363156167621     0.553414948574    -0.865343939711
H           -0.363179981210    -1.026114404377    -0.046589349107
H           -0.363157803529     0.472721678739     0.911933417928
H            1.089480399602    -0.000004124634    -0.000000308039
}
memory 700MB
set_num_threads(1)
psi4_io.set_default_path("/scratch/bdw2292")
set freeze_core True
E, wfn = energy('mp2/6-311++G(2d,2p)',return_wfn=True)
oeprop(wfn,"DIPOLE","GRID_ESP")
clean()
--------------------------------------------------------------------------

  Memory set to 667.572 MiB by Python driver.
  Threads set to 1 by Python driver.
    SCF Algorithm Type (re)set to DF.

*** tstart() called on bme-nova.bme.utexas.edu
*** at Sun Dec 29 13:25:28 2019

   => Loading Basis Set <=

    Name: 6-311++G(2D,2P)
    Role: ORBITAL
    Keyword: BASIS
    atoms 1   entry C          line   130 file /home/bdw2292/miniconda3/envs/p4env/share/psi4/basis/6-311ppg_2d_2p_.gbs 
    atoms 2-5 entry H          line    45 file /home/bdw2292/miniconda3/envs/p4env/share/psi4/basis/6-311ppg_2d_2p_.gbs 


         ---------------------------------------------------------
                                   SCF
               by Justin Turney, Rob Parrish, Andy Simmonett
                          and Daniel G. A. Smith
                              RHF Reference
                        1 Threads,    667 MiB Core
         ---------------------------------------------------------

  ==> Geometry <==

    Molecular point group: c1
    Full point group: C1

    Geometry (in Angstrom), charge = 0, multiplicity = 1:

       Center              X                  Y                   Z               Mass       
    ------------   -----------------  -----------------  -----------------  -----------------
         C            0.000001138234    -0.000001519993     0.000000015027    12.000000000000
         H           -0.363156167621     0.553414948574    -0.865343939711     1.007825032230
         H           -0.363179981210    -1.026114404377    -0.046589349107     1.007825032230
         H           -0.363157803529     0.472721678739     0.911933417928     1.007825032230
         H            1.089480399602    -0.000004124634    -0.000000308039     1.007825032230

  Running in c1 symmetry.

  Rotational constants: A =      5.28451  B =      5.28447  C =      5.28445 [cm^-1]
  Rotational constants: A = 158425.63654  B = 158424.39682  C = 158423.70522 [MHz]
  Nuclear repulsion =   13.441767208682446

  Charge       = 0
  Multiplicity = 1
  Electrons    = 10
  Nalpha       = 5
  Nbeta        = 5

  ==> Algorithm <==

  SCF Algorithm Type is DF.
  DIIS enabled.
  MOM disabled.
  Fractional occupation disabled.
  Guess Type is SAD.
  Energy threshold   = 1.00e-08
  Density threshold  = 1.00e-08
  Integral threshold = 0.00e+00

  ==> Primary Basis <==

  Basis Set: 6-311++G(2D,2P)
    Blend: 6-311++G(2D,2P)
    Number of shells: 35
    Number of basis function: 67
    Number of Cartesian functions: 69
    Spherical Harmonics?: true
    Max angular momentum: 2

   => Loading Basis Set <=

    Name: (6-311++G(2D,2P) AUX)
    Role: JKFIT
    Keyword: DF_BASIS_SCF
    atoms 1   entry C          line   162 file /home/bdw2292/miniconda3/envs/p4env/share/psi4/basis/aug-cc-pvtz-jkfit.gbs 
    atoms 2-5 entry H          line    70 file /home/bdw2292/miniconda3/envs/p4env/share/psi4/basis/aug-cc-pvtz-jkfit.gbs 

  ==> Pre-Iterations <==

   -------------------------------------------------------
    Irrep   Nso     Nmo     Nalpha   Nbeta   Ndocc  Nsocc
   -------------------------------------------------------
     A         67      67       0       0       0       0
   -------------------------------------------------------
    Total      67      67       5       5       5       0
   -------------------------------------------------------

  ==> Integral Setup <==

  DFHelper Memory: AOs need 0.011 GiB; user supplied 0.489 GiB. Using in-core AOs.

  ==> MemDFJK: Density-Fitted J/K Matrices <==

    J tasked:                   Yes
    K tasked:                   Yes
    wK tasked:                   No
    OpenMP threads:               1
    Memory [MiB]:               500
    Algorithm:                 Core
    Schwarz Cutoff:           1E-12
    Mask sparsity (%):       0.0000
    Fitting Condition:        1E-10

   => Auxiliary Basis Set <=

  Basis Set: (6-311++G(2D,2P) AUX)
    Blend: AUG-CC-PVTZ-JKFIT
    Number of shells: 86
    Number of basis function: 288
    Number of Cartesian functions: 351
    Spherical Harmonics?: true
    Max angular momentum: 4

  Minimum eigenvalue in the overlap matrix is 1.1689730644E-03.
  Using Symmetric Orthogonalization.

  SCF Guess: Superposition of Atomic Densities via on-the-fly atomic UHF.

  ==> Iterations <==

                           Total Energy        Delta E     RMS |[F,P]|

   @DF-RHF iter SAD:   -39.62316045555193   -3.96232e+01   0.00000e+00 
   @DF-RHF iter   1:   -40.13568334906816   -5.12523e-01   5.46740e-03 DIIS
   @DF-RHF iter   2:   -40.19980552245347   -6.41222e-02   2.26397e-03 DIIS
   @DF-RHF iter   3:   -40.21127259032608   -1.14671e-02   3.47975e-04 DIIS
   @DF-RHF iter   4:   -40.21200788838135   -7.35298e-04   4.27694e-05 DIIS
   @DF-RHF iter   5:   -40.21201843958295   -1.05512e-05   3.88859e-06 DIIS
   @DF-RHF iter   6:   -40.21201852615597   -8.65730e-08   3.28048e-07 DIIS
   @DF-RHF iter   7:   -40.21201852668097   -5.25006e-10   2.66818e-08 DIIS
   @DF-RHF iter   8:   -40.21201852668398   -3.00560e-12   1.80313e-09 DIIS
  Energy and wave function converged.


  ==> Post-Iterations <==

    Orbital Energies [Eh]
    ---------------------

    Doubly Occupied:                                                      

       1A    -11.205994     2A     -0.942534     3A     -0.544812  
       4A     -0.544810     5A     -0.544808  

    Virtual:                                                              

       6A      0.041888     7A      0.077226     8A      0.077226  
       9A      0.077227    10A      0.152441    11A      0.152441  
      12A      0.152441    13A      0.189611    14A      0.300146  
      15A      0.300147    16A      0.300147    17A      0.365505  
      18A      0.549463    19A      0.549465    20A      0.549466  
      21A      0.671823    22A      0.671824    23A      0.754804  
      24A      0.754805    25A      0.754805    26A      0.839365  
      27A      0.882295    28A      1.063862    29A      1.063864  
      30A      1.063866    31A      1.251665    32A      1.251666  
      33A      1.251668    34A      1.348435    35A      1.348437  
      36A      1.348439    37A      1.590033    38A      1.590033  
      39A      1.686658    40A      1.686660    41A      1.686661  
      42A      1.828715    43A      2.848961    44A      2.848964  
      45A      2.848966    46A      3.103179    47A      3.493311  
      48A      3.493312    49A      3.493316    50A      3.593147  
      51A      3.593147    52A      3.976316    53A      3.976317  
      54A      3.976325    55A      4.150337    56A      4.150339  
      57A      4.150340    58A      4.452189    59A      4.452189  
      60A      4.457341    61A      4.457342    62A      4.457345  
      63A      4.573164    64A      5.453399    65A      5.453402  
      66A      5.453413    67A     25.180205  

    Final Occupation by Irrep:
              A 
    DOCC [     5 ]

  @DF-RHF Final Energy:   -40.21201852668398

   => Energetics <=

    Nuclear Repulsion Energy =             13.4417672086824460
    One-Electron Energy =                 -79.7416577824827186
    Two-Electron Energy =                  26.0878720471162922
    Total Energy =                        -40.2120185266839769

Computation Completed


Properties will be evaluated at   0.000000,   0.000000,   0.000000 [a0]

Properties computed using the SCF density matrix

  Nuclear Dipole Moment: [e a0]
     X:    -0.0000      Y:     0.0000      Z:    -0.0000

  Electronic Dipole Moment: [e a0]
     X:     0.0000      Y:    -0.0000      Z:     0.0000

  Dipole Moment: [e a0]
     X:     0.0000      Y:     0.0000      Z:    -0.0000     Total:     0.0000

  Dipole Moment: [D]
     X:     0.0000      Y:     0.0000      Z:    -0.0000     Total:     0.0000


*** tstop() called on bme-nova.bme.utexas.edu at Sun Dec 29 13:25:29 2019
Module time:
	user time   =       0.72 seconds =       0.01 minutes
	system time =       0.02 seconds =       0.00 minutes
	total time  =          1 seconds =       0.02 minutes
Total time:
	user time   =       0.72 seconds =       0.01 minutes
	system time =       0.02 seconds =       0.00 minutes
	total time  =          1 seconds =       0.02 minutes

*** tstart() called on bme-nova.bme.utexas.edu
*** at Sun Dec 29 13:25:29 2019


  //>>>>>>>>>>>>>>>>>>>>>>>>>>>>>>>>>>>//
  //               DFMP2               //
  //<<<<<<<<<<<<<<<<<<<<<<<<<<<<<<<<<<<//

   => Loading Basis Set <=

    Name: (6-311++G(2D,2P) AUX)
    Role: RIFIT
    Keyword: DF_BASIS_MP2
    atoms 1   entry C          line   148 file /home/bdw2292/miniconda3/envs/p4env/share/psi4/basis/aug-cc-pvtz-ri.gbs 
    atoms 2-5 entry H          line    30 file /home/bdw2292/miniconda3/envs/p4env/share/psi4/basis/aug-cc-pvtz-ri.gbs 

	 --------------------------------------------------------
	                          DF-MP2                         
	      2nd-Order Density-Fitted Moller-Plesset Theory     
	              RMP2 Wavefunction,   1 Threads             
	                                                         
	        Rob Parrish, Justin Turney, Andy Simmonett,      
	           Ed Hohenstein, and C. David Sherrill          
	 --------------------------------------------------------

   => Auxiliary Basis Set <=

  Basis Set: (6-311++G(2D,2P) AUX)
    Blend: AUG-CC-PVTZ-RI
    Number of shells: 84
    Number of basis function: 290
    Number of Cartesian functions: 356
    Spherical Harmonics?: true
    Max angular momentum: 4

	 --------------------------------------------------------
	                 NBF =    67, NAUX =   290
	 --------------------------------------------------------
	   CLASS    FOCC     OCC    AOCC    AVIR     VIR    FVIR
	   PAIRS       1       5       4      62      62       0
	 --------------------------------------------------------

	-----------------------------------------------------------
	 ==================> DF-MP2 Energies <==================== 
	-----------------------------------------------------------
	 Reference Energy          =     -40.2120185266839769 [Eh]
	 Singles Energy            =      -0.0000000000000000 [Eh]
	 Same-Spin Energy          =      -0.0342221792284815 [Eh]
	 Opposite-Spin Energy      =      -0.1474343740108970 [Eh]
	 Correlation Energy        =      -0.1816565532393785 [Eh]
	 Total Energy              =     -40.3936750799233550 [Eh]
	-----------------------------------------------------------
	 ================> DF-SCS-MP2 Energies <================== 
	-----------------------------------------------------------
	 SCS Same-Spin Scale       =       0.3333333333333333 [-]
	 SCS Opposite-Spin Scale   =       1.2000000000000000 [-]
	 SCS Same-Spin Energy      =      -0.0114073930761605 [Eh]
	 SCS Opposite-Spin Energy  =      -0.1769212488130764 [Eh]
	 SCS Correlation Energy    =      -0.1883286418892369 [Eh]
	 SCS Total Energy          =     -40.4003471685732123 [Eh]
	-----------------------------------------------------------


*** tstop() called on bme-nova.bme.utexas.edu at Sun Dec 29 13:25:29 2019
Module time:
	user time   =       0.19 seconds =       0.00 minutes
	system time =       0.00 seconds =       0.00 minutes
	total time  =          0 seconds =       0.00 minutes
Total time:
	user time   =       0.91 seconds =       0.02 minutes
	system time =       0.02 seconds =       0.00 minutes
	total time  =          1 seconds =       0.02 minutes


Properties will be evaluated at   0.000000,   0.000000,   0.000000 [a0]
OEProp: No title given, name of density matrix used for the following properties is 'SCF density'
  Nuclear Dipole Moment: [e a0]
     X:    -0.0000      Y:     0.0000      Z:    -0.0000

  Electronic Dipole Moment: [e a0]
     X:     0.0000      Y:    -0.0000      Z:     0.0000

  Dipole Moment: [e a0]
     X:     0.0000      Y:     0.0000      Z:    -0.0000     Total:     0.0000

  Dipole Moment: [D]
     X:     0.0000      Y:     0.0000      Z:    -0.0000     Total:     0.0000


 Electrostatic potential computed on the grid and written to grid_esp.dat

    Psi4 stopped on: Sunday, 29 December 2019 01:25PM
    Psi4 wall time for execution: 0:00:05.57

*** Psi4 exiting successfully. Buy a developer a beer!
