Generated by Psi4
        SP                        DF-MP2                      6-311G**
Number of atoms                            I                5
Charge                                     I                0
Multiplicity                               I                1
Number of electrons                        I               10
Number of alpha electrons                  I                5
Number of beta electrons                   I                5
Number of basis functions                  I               42
Number of independent functions            I               42
Atomic numbers                             I   N=           5
           6           1           1           1           1
Nuclear charges                            R   N=           5
  6.00000000e+00  1.00000000e+00  1.00000000e+00  1.00000000e+00  1.00000000e+00
Current cartesian coordinates              R   N=          15
  2.15095062e-06 -2.87237117e-06  2.83975186e-08 -6.86265698e-01  1.04580269e+00
 -1.63526305e+00 -6.86310699e-01 -1.93907520e+00 -8.80411102e-02 -6.86268789e-01
  8.93314506e-01  1.72330440e+00  2.05881957e+00 -7.79442931e-06 -5.82108742e-07
Integer atomic weights                     I   N=           5
          12           1           1           1           1
Real atomic weights                        R   N=           5
  1.20000000e+01  1.00782503e+00  1.00782503e+00  1.00782503e+00  1.00782503e+00
Number of primitive shells                 I               41
Number of contracted shells                I               24
Pure/Cartesian d shells                    I                0
Pure/Cartesian f shells                    I                0
Highest angular momentum                   I                2
Largest degree of contraction              I                6
Shell types                                I   N=          24
           0           0           1           0           1           0
           1          -2           0           0           0           1
           0           0           0           1           0           0
           0           1           0           0           0           1
Number of primitives per shell             I   N=          24
           6           3           3           1           1           1
           1           1           3           1           1           1
           3           1           1           1           3           1
           1           1           3           1           1           1
Shell to atom map                          I   N=          24
           1           1           1           1           1           1
           1           1           2           2           2           2
           3           3           3           3           4           4
           4           4           5           5           5           5
Primitive exponents                        R   N=          41
  4.56324000e+03  6.82024000e+02  1.54973000e+02  4.44553000e+01  1.30290000e+01
  1.82773000e+00  2.09642000e+01  4.80331000e+00  1.45933000e+00  2.09642000e+01
  4.80331000e+00  1.45933000e+00  4.83456000e-01  4.83456000e-01  1.45585000e-01
  1.45585000e-01  6.26000000e-01  3.38650000e+01  5.09479000e+00  1.15879000e+00
  3.25840000e-01  1.02741000e-01  7.50000000e-01  3.38650000e+01  5.09479000e+00
  1.15879000e+00  3.25840000e-01  1.02741000e-01  7.50000000e-01  3.38650000e+01
  5.09479000e+00  1.15879000e+00  3.25840000e-01  1.02741000e-01  7.50000000e-01
  3.38650000e+01  5.09479000e+00  1.15879000e+00  3.25840000e-01  1.02741000e-01
  7.50000000e-01
Contraction coefficients                   R   N=          41
  1.96665025e-03  1.52306019e-02  7.61269097e-02  2.60801033e-01  6.16462078e-01
  2.21006028e-01  1.14660081e-01  9.19999648e-01 -3.03068213e-03  4.02486927e-02
  2.37593957e-01  8.15853851e-01  1.00000000e+00  1.00000000e+00  1.00000000e+00
  1.00000000e+00  1.00000000e+00  2.54938145e-02  1.90373109e-01  8.52161486e-01
  1.00000000e+00  1.00000000e+00  1.00000000e+00  2.54938145e-02  1.90373109e-01
  8.52161486e-01  1.00000000e+00  1.00000000e+00  1.00000000e+00  2.54938145e-02
  1.90373109e-01  8.52161486e-01  1.00000000e+00  1.00000000e+00  1.00000000e+00
  2.54938145e-02  1.90373109e-01  8.52161486e-01  1.00000000e+00  1.00000000e+00
  1.00000000e+00
Coordinates of each shell                  R   N=          72
  2.15095062e-06 -2.87237117e-06  2.83975186e-08  2.15095062e-06 -2.87237117e-06
  2.83975186e-08  2.15095062e-06 -2.87237117e-06  2.83975186e-08  2.15095062e-06
 -2.87237117e-06  2.83975186e-08  2.15095062e-06 -2.87237117e-06  2.83975186e-08
  2.15095062e-06 -2.87237117e-06  2.83975186e-08  2.15095062e-06 -2.87237117e-06
  2.83975186e-08  2.15095062e-06 -2.87237117e-06  2.83975186e-08 -6.86265698e-01
  1.04580269e+00 -1.63526305e+00 -6.86265698e-01  1.04580269e+00 -1.63526305e+00
 -6.86265698e-01  1.04580269e+00 -1.63526305e+00 -6.86265698e-01  1.04580269e+00
 -1.63526305e+00 -6.86310699e-01 -1.93907520e+00 -8.80411102e-02 -6.86310699e-01
 -1.93907520e+00 -8.80411102e-02 -6.86310699e-01 -1.93907520e+00 -8.80411102e-02
 -6.86310699e-01 -1.93907520e+00 -8.80411102e-02 -6.86268789e-01  8.93314506e-01
  1.72330440e+00 -6.86268789e-01  8.93314506e-01  1.72330440e+00 -6.86268789e-01
  8.93314506e-01  1.72330440e+00 -6.86268789e-01  8.93314506e-01  1.72330440e+00
  2.05881957e+00 -7.79442931e-06 -5.82108742e-07  2.05881957e+00 -7.79442931e-06
 -5.82108742e-07  2.05881957e+00 -7.79442931e-06 -5.82108742e-07  2.05881957e+00
 -7.79442931e-06 -5.82108742e-07
Total Energy                               R     -4.037921465743401e+01
Alpha Orbital Energies                     R   N=          42
 -1.12075953e+01 -9.42845432e-01 -5.44744883e-01 -5.44742712e-01 -5.44740815e-01
  1.61751784e-01  2.37093408e-01  2.37093878e-01  2.37094104e-01  4.27157184e-01
  4.27158280e-01  4.27159337e-01  7.53467952e-01  8.12290654e-01  8.12290811e-01
  8.12292656e-01  9.36467706e-01  1.20216290e+00  1.20216300e+00  1.72088495e+00
  1.72088714e+00  1.72088873e+00  1.72395508e+00  1.72395775e+00  1.72396182e+00
  2.18087112e+00  2.18087320e+00  2.18087846e+00  2.52198235e+00  2.62211972e+00
  2.62211989e+00  2.70210038e+00  2.70210083e+00  2.70210198e+00  2.90213564e+00
  2.90213729e+00  2.90214305e+00  3.18874959e+00  4.19318214e+00  4.19318691e+00
  4.19319479e+00  2.51592666e+01
Alpha MO coefficients                      R   N=        1764
  5.63328758e-01  4.66540057e-01 -5.74960551e-09 -4.49612000e-11  2.27734387e-10
  4.43879301e-03  1.27378353e-08  1.48642619e-08 -1.08505955e-09 -1.07767650e-03
  1.60746852e-09 -6.84847202e-09  2.06092244e-10 -5.06660148e-09  1.65150199e-10
 -5.59751053e-10  1.00584681e-08 -5.42117703e-10  3.68102616e-04  7.82359662e-05
  2.10998941e-04  5.90630448e-07 -9.01780099e-07  1.40597759e-06  3.68101126e-04
  7.82424372e-05  2.10992648e-04  5.93823996e-07  1.67335716e-06  7.61110709e-08
  3.68102364e-04  7.82374031e-05  2.10998010e-04  5.91132501e-07 -7.71131180e-07
 -1.48252417e-06  3.68104496e-04  7.82205131e-05  2.11003988e-04 -1.76588838e-06
 -2.58711491e-09  1.38506417e-10  1.02871802e-01  1.69496375e-01 -1.74076875e-07
 -1.06635338e-06  4.87679886e-08 -4.23797391e-01 -1.09309841e-07 -1.27002339e-06
  5.42307239e-08 -2.63505526e-01 -1.22167455e-07 -2.03977350e-07  1.28217434e-08
  1.65484925e-07  2.53770637e-09 -5.77498515e-09 -1.17655363e-07 -5.81876799e-08
 -8.34513257e-02 -1.13093804e-01 -7.62174498e-03 -6.49382973e-03  9.89590904e-03
 -1.54736930e-02 -8.34503303e-02 -1.13092614e-01 -7.62148956e-03 -6.49416877e-03
 -1.83482859e-02 -8.33076699e-04 -8.34511976e-02 -1.13093665e-01 -7.62172698e-03
 -6.49384904e-03  8.45297368e-03  1.63067622e-02 -8.34517142e-02 -1.13093963e-01
 -7.62152637e-03  1.94816339e-02 -8.47021042e-08 -4.18722328e-09  7.23762769e-08
  1.36864380e-07  1.74748925e-01  7.21090093e-02  6.66526498e-04 -3.17878050e-07
  2.75373669e-01  1.13631349e-01  1.05032785e-03 -1.56940721e-06  1.81030110e-01
  7.47012251e-02  6.90490902e-04 -6.39510522e-03 -6.69260695e-05 -1.29505264e-03
  3.13814409e-02 -7.23716993e-03 -2.02577175e-02 -3.19104793e-02 -1.38510757e-02
  9.14641920e-03  6.01304176e-03 -2.71551792e-03 -1.15414882e-01 -1.81804817e-01
 -7.89134119e-02  3.71534858e-03 -1.43597004e-02 -8.05709601e-04 -2.41480527e-02
 -3.80386496e-02 -1.65110469e-02  8.92438379e-03  6.04515608e-03  3.49994452e-03
  1.59820035e-01  2.51752546e-01  1.09274547e-01 -1.70603865e-02  4.25138151e-03
  3.92999788e-05  5.67879469e-07  9.61514066e-07 -7.20001187e-02  1.74371203e-01
  1.21609390e-02 -2.68193421e-06 -1.13459605e-01  2.74779011e-01  1.91635583e-02
 -2.28272044e-06 -7.45883193e-02  1.80640142e-01  1.25981661e-02  2.76939674e-02
 -1.22046522e-03 -1.64811091e-03  1.53690367e-03 -1.74996875e-02  9.41221320e-02
  1.48263754e-01  6.43554398e-02  1.12664246e-03  2.09463897e-03  1.35164450e-02
 -1.28724603e-01 -2.02771348e-01 -8.80150682e-02 -1.15915659e-02 -1.04768144e-02
 -2.25485394e-04  1.00454001e-01  1.58237932e-01  6.86848232e-02  1.48802583e-03
  2.81780622e-03 -1.36790397e-02 -6.58510428e-02 -1.03730673e-01 -4.50255718e-02
  7.02945585e-03  1.02802895e-02  7.16963906e-04 -5.27871670e-08 -9.01657988e-08
  4.02394466e-03 -1.14952989e-02  1.88650268e-01  2.47981389e-07  6.34102873e-03
 -1.81146095e-02  2.97280453e-01  2.82577671e-07  4.16860072e-03 -1.19085854e-02
  1.95433085e-01  1.39684497e-03 -1.89319766e-02  2.67484785e-02  1.61419244e-03
  1.15359055e-03 -1.43606815e-01 -2.26214136e-01 -9.81918065e-02 -7.95833474e-03
  1.18114946e-02 -8.40648189e-03  1.29702620e-03  2.04314260e-03  8.86877019e-04
  3.11261977e-04 -4.68579143e-04  1.11316573e-02  1.38629482e-01  2.18373759e-01
  9.47885754e-02  8.14878730e-03 -1.09761400e-02 -8.74459370e-03  3.68029891e-03
  5.79733990e-03  2.51644084e-03 -3.92861125e-04 -6.77728520e-04  1.11222663e-02
  4.88280191e-02  7.83260108e-02  7.11991321e-07 -9.33267127e-08 -2.43155373e-08
 -6.55902977e-02  8.40158820e-07 -4.37652471e-07 -1.58126022e-08 -2.15717539e+00
  5.79409107e-06 -5.92445119e-06  5.19383765e-09  2.86701887e-08  7.69938638e-10
  1.99598969e-08 -1.66768534e-07  4.50979182e-08  8.94568657e-03 -6.99515341e-03
  7.83898795e-01  6.98220894e-04 -1.06385219e-03  1.66380026e-03  8.94640427e-03
 -6.99629397e-03  7.83899436e-01  6.98102390e-04  1.97266385e-03  8.95509672e-05
  8.94575870e-03 -6.99525020e-03  7.83898896e-01  6.98207648e-04 -9.08684735e-04
 -1.75335613e-03  8.94583945e-03 -6.99577823e-03  7.83898145e-01 -2.09455048e-03
  2.12097715e-07 -7.65526751e-09  1.69176374e-07  3.49469382e-07  6.74226074e-02
  1.19874528e-01  6.85142848e-03 -2.16667672e-06  3.12857761e-02  5.56274123e-02
  3.17943051e-03  7.94874923e-06  5.55732747e-01  9.88064944e-01  5.64728005e-02
 -1.21244293e-02  9.41808277e-04  1.84251510e-03 -2.55346041e-02  1.64781737e-02
 -4.62109247e-03  5.00466108e-02 -5.64502501e-01  5.35993742e-03 -2.00489436e-03
  8.51396546e-03  1.90140720e-02 -2.05909998e-01  2.32252918e+00 -1.25075451e-02
 -3.72929397e-02 -1.65423769e-03 -4.94319265e-03  5.35342797e-02 -6.03842713e-01
  5.60339406e-03 -1.54556893e-03 -9.19410398e-03 -9.44786491e-03  1.02328979e-01
 -1.15419096e+00 -1.95623720e-02  3.31879277e-03  1.89687809e-04  2.81528682e-07
  4.38363952e-07 -1.19165645e-01  6.58434891e-02  2.06596531e-02 -6.75421321e-07
 -5.52961689e-02  3.05546587e-02  9.58716245e-03 -7.86390679e-06 -9.82222633e-01
  5.42712519e-01  1.70286328e-01 -2.56393025e-02  2.83976336e-03 -2.24218603e-03
  1.79579914e-02  9.05042960e-03 -7.95403499e-03  8.61427320e-02 -9.71631612e-01
  2.71387584e-03 -7.34030576e-03  1.49002009e-02  3.24844800e-03 -3.51709910e-02
  3.96713340e-01 -5.75423086e-03 -5.11384736e-03  2.57032988e-04 -1.19940246e-02
  1.29891963e-01 -1.46509739e+00  5.76777714e-03 -9.97940721e-03 -2.21961824e-02
  1.67006002e-02 -1.80866447e-01  2.04002532e+00  3.45764239e-02  1.82288800e-03
  5.71999043e-04 -5.61443784e-08 -9.64203016e-08  1.47085272e-02 -1.60443488e-02
  1.35974171e-01  3.18837119e-07  6.82515941e-03 -7.44533149e-03  6.30989680e-02
  2.42824800e-07  1.21234863e-01 -1.32244814e-01  1.12076014e+00  1.32074774e-03
  1.86901816e-02 -2.66113043e-02 -3.28119301e-03 -2.20535123e-03  1.69659260e-02
 -1.83725894e-01  2.07231721e+00 -1.24175297e-02  1.90994387e-02 -2.67944235e-02
 -6.15873518e-04  6.66823089e-03 -7.52131008e-02  8.72697773e-04  8.70956449e-04
  3.82443178e-03 -1.42889577e-02  1.54733660e-01 -1.74530406e+00  1.12082515e-02
 -1.45038966e-02 -2.33577573e-02 -2.06143071e-03  2.23243905e-02 -2.51800638e-01
 -4.26777823e-03 -4.44219490e-04  3.76486587e-03 -4.53703841e-08 -6.92349567e-08
  1.85824274e-04 -3.51011570e-04  4.74553769e-03  1.78671873e-07  1.85673942e-03
 -3.50669590e-03  4.74065947e-02 -1.15146615e-06  6.10732795e-02 -1.15350586e-01
  1.55944005e+00  9.92003738e-04 -2.33303318e-02  3.30214325e-02  2.40033813e-03
  1.72573936e-03  5.52766322e-02  1.17127162e+00 -4.51673442e-02  1.97744250e-02
 -3.02144478e-02  5.22135999e-02 -9.06224915e-04 -1.91995201e-02  7.40973677e-04
 -1.00374401e-04 -1.32138824e-03  5.58012953e-03 -5.18085189e-02 -1.09778021e+00
  4.23353380e-02 -1.81073237e-02  2.34410118e-02  5.16410665e-02 -2.56240794e-03
 -5.42928433e-02  2.09357644e-03  2.93931872e-03 -4.15708983e-04  5.62047814e-03
 -3.34186477e-07 -5.66641778e-07  2.74356297e-03 -3.87218289e-03 -3.93893907e-04
  1.86593014e-06  2.74132240e-02 -3.86832491e-02 -3.93481860e-03  6.00758376e-07
  9.01688951e-01 -1.27246291e+00 -1.29435676e-01 -3.51043841e-02  1.93651065e-03
  9.39924374e-04  6.71460851e-03  1.90381464e-02  3.54109500e-02  7.50367054e-01
 -2.89215773e-02  1.57765443e-02 -2.36762256e-02  2.93845385e-02 -3.79012684e-02
 -8.03095934e-01  3.09675738e-02 -1.01569155e-02 -4.24687506e-02 -2.18659729e-03
  4.03153229e-02  8.54289381e-01 -3.29286032e-02  1.75116304e-02 -2.31510545e-02
 -3.62811552e-02 -3.78295516e-02 -8.01572431e-01  3.08966535e-02  4.33964123e-02
 -4.58731676e-03 -4.66643312e-04  2.19668368e-07  2.55611573e-07  3.88727249e-03
  2.74968778e-03  5.11385973e-05 -9.27142536e-08  3.88421278e-02  2.74702970e-02
  5.10842370e-04  1.83309124e-05  1.27759263e+00  9.03604257e-01  1.68043723e-02
 -1.07678280e-04 -2.51486888e-04 -2.24211971e-03  3.81661394e-02 -1.35195091e-02
 -8.29750753e-04 -1.75922532e-02  6.77539291e-04  4.31083246e-03  3.70454942e-03
 -6.39167737e-04  5.35987588e-02  1.13575499e+00 -4.37739137e-02  2.35679817e-02
  5.68311787e-02  2.49302366e-03  8.27949714e-04  1.75343011e-02 -6.76179476e-04
  4.89745994e-03  2.87601537e-03 -6.74569305e-04 -5.35954537e-02 -1.13569932e+00
  4.37536490e-02  6.14872216e-02  3.25776268e-03  6.06161480e-05  6.62365771e-02
  1.27578844e-01  3.30490405e-06  7.00851257e-06 -4.05442820e-07 -3.86912264e-01
  1.03022780e-05  2.39987520e-05 -1.34846618e-06 -2.18254366e+00 -3.37937161e-06
 -9.80153615e-05  3.98641887e-06 -2.06622147e-06 -1.49673086e-07  4.83675633e-07
 -2.04717867e-06  1.99815218e-06  4.85849280e-02  1.20106325e+00 -1.50250090e-01
 -7.05882282e-03  1.07593488e-02 -1.68214844e-02  4.85886380e-02  1.20105044e+00
 -1.50354978e-01 -7.06204342e-03 -1.99528920e-02 -9.06018619e-04  4.85853159e-02
  1.20106268e+00 -1.50260911e-01 -7.05923930e-03  9.19105423e-03  1.77276969e-02
  4.85853964e-02  1.20104530e+00 -1.50266458e-01  2.11800065e-02  1.37638969e-06
 -1.46260841e-07 -3.70653874e-07 -7.28830951e-07 -2.44038142e-03  5.51324721e-02
  2.48725180e-01  3.33086931e-06 -9.94584721e-03  2.24690545e-01  1.01367482e+00
  4.20316967e-06  1.61294436e-02 -3.64396387e-01 -1.64393804e+00 -1.68512355e-02
  3.79820855e-02 -5.16036843e-02 -8.98334311e-03  8.41971165e-03  4.10530963e-02
  3.88723891e-01 -1.17608538e+00 -2.62966728e-02  5.05298735e-02 -1.08921707e-02
  1.50227786e-02  1.42245556e-01 -4.30375294e-01 -9.93835267e-03 -1.54643827e-02
  4.93741468e-02 -5.66704787e-02 -5.36607883e-01  1.62347949e+00  3.51192471e-02
 -3.51475425e-02 -3.88490831e-02  5.93675977e-04  5.61878590e-03 -1.70123647e-02
  6.22949443e-04  1.12129211e-02  5.05861013e-02  2.13771599e-06  4.20132352e-06
  5.40631146e-03 -2.48669777e-01  5.51729838e-02 -1.77178564e-05  2.20343019e-02
 -1.01344667e+00  2.24856762e-01 -3.67660224e-05 -3.57318927e-02  1.64357433e+00
 -3.64663173e-01  4.53932919e-02  8.42513615e-03 -1.90926083e-02  2.45549498e-02
 -3.79755830e-02  4.18330592e-02  3.96131354e-01 -1.19839698e+00 -2.51910789e-02
 -1.05105187e-02 -5.14251449e-02 -5.59671595e-02 -5.29925849e-01  1.60337003e+00
  3.62757999e-02  4.88115297e-02  1.57334668e-02  1.54542760e-02  1.46353519e-01
 -4.42702383e-01 -8.61301595e-03 -3.79318482e-02  3.56104586e-02 -1.31481433e-03
 -1.24310894e-02  3.76956806e-02 -1.37932299e-03 -5.05748584e-02  1.12211711e-02
 -3.96450086e-07 -7.70993477e-07  2.54705016e-01  5.80675459e-03  1.21197256e-03
 -2.38228200e-06  1.03804838e+00  2.36643438e-02  4.93947557e-03  5.43785880e-05
 -1.68346380e+00 -3.83804923e-02 -8.01044877e-03  3.25767301e-02  1.85083758e-04
 -8.89946472e-05 -5.89825516e-02  8.87984547e-04  2.01720239e-02  1.90993844e-01
 -5.77901448e-01  3.91245663e-02  2.05007593e-02 -2.99628625e-02  2.19994327e-02
  2.08296860e-01 -6.30254863e-01  3.79744356e-02 -3.78867876e-02 -1.52732159e-03
  1.97956732e-02  1.87430008e-01 -5.67119760e-01  3.93609357e-02  1.73759010e-02
  3.14884512e-02 -6.19681625e-02 -5.86799909e-01  1.77526891e+00 -6.50330781e-02
  1.18168289e-03  2.46511663e-04  1.03255480e-01  2.18614146e-01 -9.74110279e-07
  6.89717711e-08  3.55776891e-08 -1.92543803e+00 -3.41284140e-06  1.11722224e-05
 -3.05117298e-07  5.69153021e+00 -5.66488428e-06  2.75221014e-05 -8.59448849e-07
 -1.73243788e-06  8.02929670e-08  4.61967448e-08  1.88334424e-06  4.09769833e-07
  1.44105711e-02 -7.29093480e-01 -7.39876544e-01 -5.09324981e-02  7.76152494e-02
 -1.21363129e-01  1.44107547e-02 -7.29066861e-01 -7.39874229e-01 -5.09344783e-02
 -1.43907455e-01 -6.53398959e-03  1.44105846e-02 -7.29091437e-01 -7.39875544e-01
 -5.09324106e-02  6.62980573e-02  1.27896888e-01  1.44107173e-02 -7.29074281e-01
 -7.39892471e-01  1.52798130e-01 -8.09716516e-07  8.12231325e-08  8.51321720e-09
  2.21649096e-08 -1.33064230e-07  9.40279841e-08  6.81227359e-08 -2.68950119e-07
 -5.71274075e-06  4.29190675e-06  2.75361565e-06  1.02383901e-06  2.92960858e-07
  1.11832510e-06 -1.03759373e-06  1.71533351e-01 -2.14237877e-01 -1.80025638e-01
  9.90353865e-02  3.12051426e-01  5.57239644e-07 -2.70526005e-06  4.07281931e-07
  2.67875588e-01 -5.02370373e-02 -1.44548993e-01 -6.27247456e-07  2.43666886e-06
 -7.86519966e-07 -2.32068091e-01  7.35358526e-02  1.89492728e-01  1.09984368e-06
 -4.92325438e-06  2.60418614e-06 -3.58011525e-02 -2.77632622e-01  1.29663493e-01
 -1.08761256e-06  4.32367274e-06 -2.58915683e-06 -1.77052814e-06  2.54328301e-01
 -1.74608047e-01 -2.19658863e-08 -5.71887095e-08 -8.46534301e-08  8.75895365e-08
 -6.56711060e-08  6.93874845e-07 -3.64823419e-06  3.92670554e-06 -2.58315784e-06
 -2.64145931e-06  1.14556921e-07  6.71419340e-07  1.37107353e-06  1.55914783e-01
  3.12060091e-01  1.98056407e-01  9.00179950e-02  2.14229978e-01  9.45973241e-07
 -3.25911508e-06  2.65893457e-06 -1.13320475e-01 -2.60944910e-01 -1.19328390e-01
 -5.39878565e-07  3.04430363e-06 -5.99704592e-07 -1.75321885e-01  7.30918169e-02
 -2.43088362e-01  4.02274321e-07 -1.05615183e-06  2.23546972e-07  2.88646422e-01
  1.32468723e-02  1.08081977e-01 -6.59296083e-07  3.51083004e-06 -1.34315926e-06
 -1.02809835e-06  1.74601727e-01  2.54334927e-01 -2.39350225e-07 -6.94104249e-07
  3.57516399e-02  4.71692189e-02  2.97131426e-03  3.48427030e-06  1.07495301e-01
  1.41812199e-01  8.93303074e-03  2.84710503e-05  5.99589548e-01  7.91056544e-01
  4.98300607e-02  2.20483001e-01 -2.44751015e-02 -4.02676850e-02  7.16242540e-01
 -3.88543389e-01  5.54321161e-02 -2.49511870e-01  2.99322933e-02 -1.80436721e-01
 -2.06819531e-01 -4.04314034e-02 -3.23288962e-01  1.45514786e+00 -1.74582922e-01
 -1.05908128e-01 -4.14972648e-02 -5.86764877e-03  6.31805479e-02 -2.84387597e-01
  3.41172069e-02 -1.82024182e-01 -2.07327858e-01  1.75588621e-02  2.04673289e-01
 -9.21275003e-01  1.10519872e-01 -4.72453359e-02 -2.24641772e-01 -1.41127672e-02
  6.43268982e-08  3.14629772e-07 -4.71528204e-02  3.53455748e-02  6.25753308e-03
 -5.73342501e-06 -1.41782373e-01  1.06270081e-01  1.88135684e-02  8.13638269e-06
 -7.90792145e-01  5.92762089e-01  1.04941486e-01  6.98192890e-01 -5.15425521e-02
  1.63501532e-02 -3.73711204e-01 -2.91136824e-01  1.64315064e-01 -7.39601696e-01
  8.87360837e-02  1.90833398e-01 -1.17919160e-01 -1.07744941e-01 -1.02131753e-01
  4.59688173e-01 -5.51601797e-02  2.44595098e-01 -1.10375892e-01 -2.71475441e-02
  2.07768847e-01 -9.35188692e-01  1.12203672e-01  1.82300757e-01 -1.14049154e-01
  7.44172535e-02 -2.69960483e-01  1.21511280e+00 -1.45789985e-01  6.23120535e-02
 -1.67416930e-01 -2.97724045e-02  1.90446460e-08  4.25951592e-08  3.20842244e-03
 -6.13923167e-03  5.88543888e-02  1.95920912e-07  9.64786942e-03 -1.84591703e-02
  1.76958053e-01 -3.82268777e-06  5.38074226e-02 -1.02957929e-01  9.87009859e-01
 -3.68102971e-03 -4.84775268e-01  6.88959859e-01  5.07338879e-02  5.05681569e-02
 -2.91609569e-01  1.31254035e+00 -1.57493746e-01  4.26770813e-02 -5.89010474e-02
 -1.40330963e-01  1.25720638e-02 -5.65854465e-02  6.79019899e-03 -1.77682387e-02
  2.20978882e-02 -2.80314779e-01  2.60668854e-01 -1.17327121e+00  1.40784448e-01
 -6.69406611e-02  9.62133574e-02 -1.48422281e-01  1.83697915e-02 -8.26819151e-02
  9.92156357e-03 -4.23993467e-03  2.91307755e-02 -2.79739827e-01 -2.99157078e-10
 -9.53768823e-10  6.66808095e-05  3.04958163e-05  2.76933801e-07  7.36579805e-09
  2.13010761e-04  9.21064823e-05  2.79863685e-07  2.64787281e-08  1.12937201e-03
  5.12182700e-04  4.19014605e-06 -1.79484624e-04 -1.81868557e-06 -4.58073193e-05
  1.01739032e-03 -2.51822686e-04 -4.26282214e-05  1.89225409e-04 -2.46049189e-05
 -2.66766466e-01 -1.81292980e-01 -4.00047607e-03 -2.97696855e-04  1.32857232e-03
 -1.62656948e-04  5.98007143e-01 -2.09093731e-01 -5.79661126e-02 -5.37194676e-05
  2.38456309e-04 -3.10145457e-05 -3.32126528e-01 -2.42002817e-01 -6.80143420e-03
  3.94046293e-04 -1.75628994e-03  2.18267810e-04 -8.18449142e-05  6.31947993e-01
  6.87641232e-02  2.83711702e-11  9.43954464e-11 -8.93585420e-06 -2.97544512e-06
 -3.81394813e-05 -8.44208495e-10 -2.86445487e-05 -9.14194425e-06 -1.24845709e-04
 -2.03525532e-09 -1.51420576e-04 -5.01138933e-05 -6.48398748e-04 -1.85924932e-05
  3.22947105e-04 -4.48178277e-04 -1.61119343e-04  2.47196708e-05  1.89483899e-04
 -8.43612856e-04  1.06138087e-04  3.20891410e-01  4.37301129e-01  1.45050804e-01
  4.36814622e-05 -1.94751373e-04  2.41166233e-05 -5.03204185e-02  4.55385288e-02
 -6.10485777e-01 -1.80293400e-04  8.02749603e-04 -1.00923316e-04 -2.70452403e-01
 -4.13029794e-01  1.06447177e-01 -5.28724049e-05  2.35618139e-04 -2.93310035e-05
  1.11110314e-05 -6.97667502e-02  3.59541883e-01  3.69722154e-11  1.18811775e-10
 -5.97190397e-06 -8.94020695e-07  6.44603560e-05 -9.44897203e-10 -1.92188895e-05
 -2.44069470e-06  2.01552604e-04 -3.15822087e-09 -1.01253098e-04 -1.48027882e-05
  1.08817054e-03  1.24319516e-04 -5.38184646e-04  7.55376899e-04 -2.88485675e-05
  7.17506618e-06 -2.90930199e-04  1.29793083e-03 -1.59510444e-04  4.32081210e-01
 -2.77586098e-01 -3.58934558e-01  3.40941711e-07 -1.57394120e-06  1.17877995e-07
 -1.09011222e-02 -3.81086387e-03  1.68913288e-01  3.25974890e-04 -1.45401651e-03
  1.79056865e-04 -4.21100928e-01  3.16679843e-01 -3.31936726e-01 -3.53859148e-05
  1.57664076e-04 -1.96633370e-05  7.53442360e-06 -3.52699884e-02  5.21023370e-01
 -1.29914223e-07 -2.96959315e-07  2.57142184e-02 -3.32776583e-02  2.59670188e-01
  2.51548355e-06 -5.06601724e-02  6.55570880e-02 -5.11543494e-01 -7.58189369e-06
  6.98429475e-02 -9.03868865e-02  7.05303279e-01  3.27742385e-02  4.36571992e-01
 -6.22454753e-01 -6.75473131e-02 -5.59480220e-02  3.75744434e-01 -8.55974097e-01
  6.95382377e-01  1.96181566e-02 -4.43717520e-02 -4.39095605e-01 -1.89181411e-02
  4.30973134e-02 -3.50091357e-02 -6.71281519e-02  6.97431583e-02 -6.36431990e-01
 -3.15132169e-01  7.17894480e-01 -5.83205387e-01 -1.32235278e-01  1.71661987e-01
 -4.61954205e-01 -4.16984170e-02  9.49951576e-02 -7.71677104e-02 -3.54769713e-02
  8.14928487e-02 -6.35898243e-01  5.45368738e-07  9.05295186e-07 -2.31080622e-01
  1.19747135e-01  3.82286292e-02 -5.33056917e-06  4.55265157e-01 -2.35903512e-01
 -7.53103514e-02  3.86595148e-05 -6.27637614e-01  3.25248462e-01  1.03833918e-01
 -5.91438994e-01  6.42726956e-02 -5.14225550e-02  4.35577530e-01  2.01322392e-01
 -1.74293499e-01  3.97052544e-01 -3.22563002e-01  5.27563405e-01 -2.34862884e-01
 -1.84894712e-01  6.06280692e-02 -1.38115657e-01  1.12193907e-01  5.79201737e-01
 -2.55585331e-01 -9.19065884e-02 -2.61035873e-01  5.94657128e-01 -4.83092517e-01
  5.08497993e-01 -2.18555376e-01  5.04543016e-02  3.74720959e-01 -8.53665687e-01
  6.93461226e-01  3.18818081e-01 -2.93247134e-01 -9.36160856e-02  4.83935681e-07
  1.47328862e-06  1.23046123e-01  2.31847005e-01  1.75273198e-02 -1.49944760e-05
 -2.42432390e-01 -4.56764924e-01 -3.45300222e-02  2.08940749e-05  3.34198276e-01
  6.29712639e-01  4.76056408e-02 -2.98736534e-01  2.94693608e-02  3.35155018e-02
 -5.86215237e-01  3.89820861e-01 -1.01884475e-01  2.32096848e-01 -1.88552738e-01
 -3.23701939e-01 -5.33618830e-01 -9.62801150e-02  4.21830382e-01 -9.60957452e-01
  7.80622610e-01 -2.08601437e-01 -3.05808073e-01 -3.10275596e-02 -1.20403368e-01
  2.74283639e-01 -2.22824036e-01 -3.27772401e-01 -5.33296262e-01  2.35319772e-02
 -1.99528306e-01  4.54548134e-01 -3.69246605e-01 -1.69772677e-01 -5.67746828e-01
 -4.29214055e-02  6.22408643e-02  1.18622273e-01  1.11957385e-05 -7.72531050e-06
 -1.36267011e-07 -6.09040551e-01  1.18800540e-05  4.54993910e-05 -2.25581731e-06
  7.87494066e-01  9.62317208e-06  2.36451003e-05 -1.30776215e-06  1.28294664e-05
 -1.10927807e-06 -5.32026265e-06  1.85732930e-05 -1.54813070e-05  7.00325786e-01
 -8.42356835e-01  1.76975235e-01  8.87386702e-02 -1.35238407e-01  2.11459079e-01
  7.00292797e-01 -8.42239959e-01  1.76959022e-01  8.87641680e-02  2.50797305e-01
  1.13863904e-02  7.00323059e-01 -8.42345176e-01  1.76974283e-01  8.87431127e-02
 -1.15521609e-01 -2.22849180e-01  7.00306158e-01 -8.42330060e-01  1.76957283e-01
 -2.66222694e-01 -1.53126938e-06  1.39123399e-06  1.31804261e-07  2.59956990e-07
 -1.03428682e-06  3.29038999e-06  2.77458372e-06 -1.34021143e-06  5.21707919e-05
 -8.08823581e-05 -3.37503954e-06  5.50514495e-07  1.75245452e-05 -2.43395519e-05
  3.40887233e-06  4.22001364e-01  8.37929314e-01  5.31276023e-01  2.43656182e-01
  5.80797662e-01 -3.44401831e-05  9.09983973e-05 -1.84073256e-05  2.08320735e-01
  4.85235718e-01  2.22952944e-01  3.89186161e-05 -9.89284602e-05  2.32018117e-05
  3.27649281e-01 -1.36449704e-01  4.50066356e-01 -3.38687176e-05  9.06338940e-05
 -2.24246682e-05 -5.35990904e-01 -2.23059167e-02 -2.01936235e-01  3.46969798e-05
 -8.75646974e-05  1.91086209e-05  3.81632144e-05 -3.26514288e-01 -4.71096075e-01
 -5.16069412e-08 -1.01758875e-07 -1.29653744e-06  4.60548664e-06 -1.82508522e-06
  5.25106330e-07  7.73902226e-05 -9.94834288e-05 -9.58666322e-06 -2.20235193e-07
  2.63950077e-05 -2.90001939e-05 -6.60118035e-06  4.60106793e-01 -5.80809062e-01
 -4.87278517e-01  2.65661797e-01  8.37917444e-01 -4.42986513e-05  1.14500741e-04
 -2.76177337e-05 -4.98643824e-01  9.11495048e-02  2.67624175e-01  4.30239025e-05
 -1.12835957e-04  2.68068560e-05  4.29677882e-01 -1.36058202e-01 -3.54096539e-01
 -4.98010726e-05  1.27834378e-04 -2.71876838e-05  6.89324363e-02  5.15930945e-01
 -2.40064207e-01  4.89960073e-05 -1.27588845e-04  2.74206907e-05  5.80869189e-05
 -4.71066754e-01  3.26542248e-01  1.32054513e-08  7.51026206e-07 -8.56074759e-02
  2.24509237e-02  1.04636063e-02 -1.87946864e-05 -1.61764078e+00  4.24329447e-01
  1.97725110e-01  2.73259931e-05 -5.73074967e-01  1.50312310e-01  7.00452835e-02
  3.27651532e-01 -3.32419231e-02  3.28820749e-02 -3.54747083e-01 -7.12605104e-02
  2.75950178e-01 -9.25300655e-01  1.41875952e-01  8.72666052e-02  2.42803070e-01
 -5.38160851e-01  6.05325376e-02 -2.02997289e-01  3.11109041e-02  2.51715519e-01
 -2.08689710e-01 -4.23377595e-02  4.10361735e-01 -1.37599545e+00  2.10983638e-01
 -1.53007097e-02  3.29531310e-01  7.49929751e-01 -7.46829171e-01  2.50426380e+00
 -3.83976510e-01 -1.41194658e+00 -7.81700025e-02 -3.64080032e-02  4.16109393e-07
  9.99099403e-07  5.44623311e-03 -1.96550828e-02  8.67436243e-02 -6.07077281e-06
  1.02958466e-01 -3.71384539e-01  1.63930614e+00 -9.59710782e-06  3.64697503e-02
 -1.31568299e-01  5.80717011e-01 -4.49596471e-02 -2.75608525e-01  3.98153231e-01
  8.66391249e-03  6.24251461e-02 -7.04099458e-01  2.36091742e+00 -3.62022218e-01
  5.18343602e-01 -7.50412232e-01  9.78448250e-01  1.13284861e-01 -3.79848106e-01
  5.82428111e-02 -1.05417793e-01 -1.75868003e-01 -3.12941637e-01  5.43288468e-01
 -1.82167187e+00  2.79341567e-01 -4.33526542e-01  6.08031363e-01  7.39210427e-01
  4.75407135e-02 -1.59395512e-01  2.44453567e-02  8.98657902e-02  6.83945678e-02
 -3.01846631e-01 -1.65325926e-06 -4.23343394e-06  2.41787540e-02  8.39961212e-02
  1.75071881e-02  3.09441749e-05  4.56672870e-01  1.58676421e+00  3.30802671e-01
  2.79940805e-05  1.61804752e-01  5.62167175e-01  1.17190218e-01  2.66504647e-01
 -5.56117916e-02  2.67304090e-02  3.07406509e-01 -2.66731568e-01  1.80521999e-01
 -6.05373132e-01  9.28091576e-02 -2.21891893e-01 -8.22034439e-02 -3.89194870e-01
 -7.66802742e-01  2.57118069e+00 -3.94221936e-01  5.01130333e-01  1.36118490e+00
  1.41582755e-02  3.75412502e-01 -1.25885924e+00  1.93013444e-01 -3.70616487e-01
  8.07718249e-02  6.58506526e-01  2.10804857e-01 -7.06945100e-01  1.08371765e-01
  3.98604002e-01 -2.92231354e-01 -6.09161924e-02  4.43135308e-07  8.63679669e-07
  5.98351305e-02  8.39163014e-01  1.02617345e-01 -1.79095297e-06 -1.78421017e-02
 -2.50086619e-01 -3.05812001e-02 -2.32980775e-05  3.78592209e-02  5.31076666e-01
  6.49438194e-02  6.40742793e-01 -6.68591837e-02 -1.12413964e-02  4.47876590e-01
 -5.46769070e-01 -2.77102062e-01  2.70424557e-02 -2.38437680e-01 -5.04647462e-02
  2.99943653e-01 -1.29867997e-01  6.95044476e-01 -6.78255349e-02  5.98061181e-01