
    -----------------------------------------------------------------------
          Psi4: An Open-Source Ab Initio Electronic Structure Package
                               Psi4 1.3.2 release

                         Git: Rev {HEAD} ecbda83 


    R. M. Parrish, L. A. Burns, D. G. A. Smith, A. C. Simmonett,
    A. E. DePrince III, E. G. Hohenstein, U. Bozkaya, A. Yu. Sokolov,
    R. Di Remigio, R. M. Richard, J. F. Gonthier, A. M. James,
    H. R. McAlexander, A. Kumar, M. Saitow, X. Wang, B. P. Pritchard,
    P. Verma, H. F. Schaefer III, K. Patkowski, R. A. King, E. F. Valeev,
    F. A. Evangelista, J. M. Turney, T. D. Crawford, and C. D. Sherrill,
    J. Chem. Theory Comput. 13(7) pp 3185--3197 (2017).
    (doi: 10.1021/acs.jctc.7b00174)


                         Additional Contributions by
    P. Kraus, H. Kruse, M. H. Lechner, M. C. Schieber, R. A. Shaw,
    A. Alenaizan, R. Galvelis, Z. L. Glick, S. Lehtola, and J. P. Misiewicz

    -----------------------------------------------------------------------


    Psi4 started on: Sunday, 29 December 2019 01:25PM

    Process ID: 143324
    Host:       bme-nova.bme.utexas.edu
    PSIDATADIR: /home/bdw2292/miniconda3/envs/p4env/share/psi4
    Memory:     500.0 MiB
    Threads:    1
    
  ==> Input File <==

--------------------------------------------------------------------------
molecule { 
0 1
C            0.000001138234    -0.000001519993     0.000000015027
H           -0.363156167621     0.553414948574    -0.865343939711
H           -0.363179981210    -1.026114404377    -0.046589349107
H           -0.363157803529     0.472721678739     0.911933417928
H            1.089480399602    -0.000004124634    -0.000000308039
}
memory 700MB
set_num_threads(1)
psi4_io.set_default_path("/scratch/bdw2292")
set freeze_core True
E, wfn = energy('mp2/6-311G**',return_wfn=True)
gdma(wfn)
fchk(wfn, "methane-dma.fchk")
clean()
--------------------------------------------------------------------------

  Memory set to 667.572 MiB by Python driver.
  Threads set to 1 by Python driver.
    SCF Algorithm Type (re)set to DF.

*** tstart() called on bme-nova.bme.utexas.edu
*** at Sun Dec 29 13:25:24 2019

   => Loading Basis Set <=

    Name: 6-311G**
    Role: ORBITAL
    Keyword: BASIS
    atoms 1   entry C          line   113 file /home/bdw2292/miniconda3/envs/p4env/share/psi4/basis/6-311gss.gbs 
    atoms 2-5 entry H          line    32 file /home/bdw2292/miniconda3/envs/p4env/share/psi4/basis/6-311gss.gbs 


         ---------------------------------------------------------
                                   SCF
               by Justin Turney, Rob Parrish, Andy Simmonett
                          and Daniel G. A. Smith
                              RHF Reference
                        1 Threads,    667 MiB Core
         ---------------------------------------------------------

  ==> Geometry <==

    Molecular point group: c1
    Full point group: C1

    Geometry (in Angstrom), charge = 0, multiplicity = 1:

       Center              X                  Y                   Z               Mass       
    ------------   -----------------  -----------------  -----------------  -----------------
         C            0.000001138234    -0.000001519993     0.000000015027    12.000000000000
         H           -0.363156167621     0.553414948574    -0.865343939711     1.007825032230
         H           -0.363179981210    -1.026114404377    -0.046589349107     1.007825032230
         H           -0.363157803529     0.472721678739     0.911933417928     1.007825032230
         H            1.089480399602    -0.000004124634    -0.000000308039     1.007825032230

  Running in c1 symmetry.

  Rotational constants: A =      5.28451  B =      5.28447  C =      5.28445 [cm^-1]
  Rotational constants: A = 158425.63654  B = 158424.39682  C = 158423.70522 [MHz]
  Nuclear repulsion =   13.441767208682446

  Charge       = 0
  Multiplicity = 1
  Electrons    = 10
  Nalpha       = 5
  Nbeta        = 5

  ==> Algorithm <==

  SCF Algorithm Type is DF.
  DIIS enabled.
  MOM disabled.
  Fractional occupation disabled.
  Guess Type is SAD.
  Energy threshold   = 1.00e-08
  Density threshold  = 1.00e-08
  Integral threshold = 0.00e+00

  ==> Primary Basis <==

  Basis Set: 6-311G**
    Blend: 6-311G**
    Number of shells: 24
    Number of basis function: 42
    Number of Cartesian functions: 43
    Spherical Harmonics?: true
    Max angular momentum: 2

   => Loading Basis Set <=

    Name: (6-311G** AUX)
    Role: JKFIT
    Keyword: DF_BASIS_SCF
    atoms 1   entry C          line   125 file /home/bdw2292/miniconda3/envs/p4env/share/psi4/basis/cc-pvtz-jkfit.gbs 
    atoms 2-5 entry H          line    51 file /home/bdw2292/miniconda3/envs/p4env/share/psi4/basis/cc-pvtz-jkfit.gbs 

  ==> Pre-Iterations <==

   -------------------------------------------------------
    Irrep   Nso     Nmo     Nalpha   Nbeta   Ndocc  Nsocc
   -------------------------------------------------------
     A         42      42       0       0       0       0
   -------------------------------------------------------
    Total      42      42       5       5       5       0
   -------------------------------------------------------

  ==> Integral Setup <==

  DFHelper Memory: AOs need 0.003 GiB; user supplied 0.489 GiB. Using in-core AOs.

  ==> MemDFJK: Density-Fitted J/K Matrices <==

    J tasked:                   Yes
    K tasked:                   Yes
    wK tasked:                   No
    OpenMP threads:               1
    Memory [MiB]:               500
    Algorithm:                 Core
    Schwarz Cutoff:           1E-12
    Mask sparsity (%):       0.0000
    Fitting Condition:        1E-10

   => Auxiliary Basis Set <=

  Basis Set: (6-311G** AUX)
    Blend: CC-PVTZ-JKFIT
    Number of shells: 65
    Number of basis function: 199
    Number of Cartesian functions: 236
    Spherical Harmonics?: true
    Max angular momentum: 4

  Minimum eigenvalue in the overlap matrix is 1.2774846940E-02.
  Using Symmetric Orthogonalization.

  SCF Guess: Superposition of Atomic Densities via on-the-fly atomic UHF.

  ==> Iterations <==

                           Total Energy        Delta E     RMS |[F,P]|

   @DF-RHF iter SAD:   -39.66987611851996   -3.96699e+01   0.00000e+00 
   @DF-RHF iter   1:   -40.14852538337830   -4.78649e-01   7.59419e-03 DIIS
   @DF-RHF iter   2:   -40.19961569756947   -5.10903e-02   3.13607e-03 DIIS
   @DF-RHF iter   3:   -40.20827844583098   -8.66275e-03   5.32639e-04 DIIS
   @DF-RHF iter   4:   -40.20893200222049   -6.53556e-04   6.05322e-05 DIIS
   @DF-RHF iter   5:   -40.20893949117566   -7.48896e-06   4.89902e-06 DIIS
   @DF-RHF iter   6:   -40.20893954155792   -5.03823e-08   3.66121e-07 DIIS
   @DF-RHF iter   7:   -40.20893954178216   -2.24247e-10   2.28033e-08 DIIS
   @DF-RHF iter   8:   -40.20893954178283   -6.60805e-13   1.81947e-09 DIIS
  Energy and wave function converged.


  ==> Post-Iterations <==

    Orbital Energies [Eh]
    ---------------------

    Doubly Occupied:                                                      

       1A    -11.207595     2A     -0.942845     3A     -0.544745  
       4A     -0.544743     5A     -0.544741  

    Virtual:                                                              

       6A      0.161752     7A      0.237093     8A      0.237094  
       9A      0.237094    10A      0.427157    11A      0.427158  
      12A      0.427159    13A      0.753468    14A      0.812291  
      15A      0.812291    16A      0.812293    17A      0.936468  
      18A      1.202163    19A      1.202163    20A      1.720885  
      21A      1.720887    22A      1.720889    23A      1.723955  
      24A      1.723958    25A      1.723962    26A      2.180871  
      27A      2.180873    28A      2.180878    29A      2.521982  
      30A      2.622120    31A      2.622120    32A      2.702100  
      33A      2.702101    34A      2.702102    35A      2.902136  
      36A      2.902137    37A      2.902143    38A      3.188750  
      39A      4.193182    40A      4.193187    41A      4.193195  
      42A     25.159267  

    Final Occupation by Irrep:
              A 
    DOCC [     5 ]

  @DF-RHF Final Energy:   -40.20893954178283

   => Energetics <=

    Nuclear Repulsion Energy =             13.4417672086824460
    One-Electron Energy =                 -79.7320751533488874
    Two-Electron Energy =                  26.0813684028836121
    Total Energy =                        -40.2089395417828257

Computation Completed


Properties will be evaluated at   0.000000,   0.000000,   0.000000 [a0]

Properties computed using the SCF density matrix

  Nuclear Dipole Moment: [e a0]
     X:    -0.0000      Y:     0.0000      Z:    -0.0000

  Electronic Dipole Moment: [e a0]
     X:     0.0000      Y:    -0.0000      Z:     0.0000

  Dipole Moment: [e a0]
     X:     0.0000      Y:     0.0000      Z:    -0.0000     Total:     0.0000

  Dipole Moment: [D]
     X:     0.0000      Y:     0.0000      Z:    -0.0000     Total:     0.0000


*** tstop() called on bme-nova.bme.utexas.edu at Sun Dec 29 13:25:24 2019
Module time:
	user time   =       0.64 seconds =       0.01 minutes
	system time =       0.01 seconds =       0.00 minutes
	total time  =          0 seconds =       0.00 minutes
Total time:
	user time   =       0.64 seconds =       0.01 minutes
	system time =       0.01 seconds =       0.00 minutes
	total time  =          0 seconds =       0.00 minutes

*** tstart() called on bme-nova.bme.utexas.edu
*** at Sun Dec 29 13:25:24 2019


  //>>>>>>>>>>>>>>>>>>>>>>>>>>>>>>>>>>>//
  //               DFMP2               //
  //<<<<<<<<<<<<<<<<<<<<<<<<<<<<<<<<<<<//

   => Loading Basis Set <=

    Name: (6-311G** AUX)
    Role: RIFIT
    Keyword: DF_BASIS_MP2
    atoms 1   entry C          line   209 file /home/bdw2292/miniconda3/envs/p4env/share/psi4/basis/cc-pvtz-ri.gbs 
    atoms 2-5 entry H          line    19 file /home/bdw2292/miniconda3/envs/p4env/share/psi4/basis/cc-pvtz-ri.gbs 

	 --------------------------------------------------------
	                          DF-MP2                         
	      2nd-Order Density-Fitted Moller-Plesset Theory     
	              RMP2 Wavefunction,   1 Threads             
	                                                         
	        Rob Parrish, Justin Turney, Andy Simmonett,      
	           Ed Hohenstein, and C. David Sherrill          
	 --------------------------------------------------------

   => Auxiliary Basis Set <=

  Basis Set: (6-311G** AUX)
    Blend: CC-PVTZ-RI
    Number of shells: 63
    Number of basis function: 201
    Number of Cartesian functions: 241
    Spherical Harmonics?: true
    Max angular momentum: 4

	 --------------------------------------------------------
	                 NBF =    42, NAUX =   201
	 --------------------------------------------------------
	   CLASS    FOCC     OCC    AOCC    AVIR     VIR    FVIR
	   PAIRS       1       5       4      37      37       0
	 --------------------------------------------------------

	-----------------------------------------------------------
	 ==================> DF-MP2 Energies <==================== 
	-----------------------------------------------------------
	 Reference Energy          =     -40.2089395417828257 [Eh]
	 Singles Energy            =      -0.0000000000000000 [Eh]
	 Same-Spin Energy          =      -0.0320139053366387 [Eh]
	 Opposite-Spin Energy      =      -0.1382612103145457 [Eh]
	 Correlation Energy        =      -0.1702751156511844 [Eh]
	 Total Energy              =     -40.3792146574340123 [Eh]
	-----------------------------------------------------------
	 ================> DF-SCS-MP2 Energies <================== 
	-----------------------------------------------------------
	 SCS Same-Spin Scale       =       0.3333333333333333 [-]
	 SCS Opposite-Spin Scale   =       1.2000000000000000 [-]
	 SCS Same-Spin Energy      =      -0.0106713017788796 [Eh]
	 SCS Opposite-Spin Energy  =      -0.1659134523774549 [Eh]
	 SCS Correlation Energy    =      -0.1765847541563345 [Eh]
	 SCS Total Energy          =     -40.3855242959391632 [Eh]
	-----------------------------------------------------------


*** tstop() called on bme-nova.bme.utexas.edu at Sun Dec 29 13:25:25 2019
Module time:
	user time   =       0.15 seconds =       0.00 minutes
	system time =       0.00 seconds =       0.00 minutes
	total time  =          1 seconds =       0.02 minutes
Total time:
	user time   =       0.79 seconds =       0.01 minutes
	system time =       0.01 seconds =       0.00 minutes
	total time  =          1 seconds =       0.02 minutes
                                     G D M A

                                 by Anthony Stone

                           version 2.2.06, 22 June 2011

               Distributed Multipoles from Gaussian wavefunctions


Starting at 13:25:25 on 29 Dec 2019 


Using CC density matrix from file methane-dma.default.143324.fchk


                         Distributed Multipole Analysis

Standard DMA for products of primitives with exponent greater than 4.00000
Using 80-point Euler-MacLaurin radial quadrature
Using 590-point Lebedev quadrature
Becke smoothing parameter = 3

Positions and radii in angstrom
Multipole moments in atomic units, ea_0^k for rank k

C          x =  0.000001  y = -0.000002  z =  0.000000 angstrom
           Maximum rank =  2   Radius =  0.650 angstrom
                   Q00  =  -0.127257
|Q1| =   0.000007  Q11c =   0.000002  Q11s =   0.000007
|Q2| =   0.000020  Q20  =  -0.000017  Q21s =   0.000001  Q22c =   0.000007
                   Q22s =   0.000008

H          x = -0.363156  y =  0.553415  z = -0.865344 angstrom
           Maximum rank =  2   Radius =  0.325 angstrom
                   Q00  =   0.031813
|Q1| =   0.126837  Q10  =   0.100744  Q11c =   0.042278  Q11s =  -0.064427
|Q2| =   0.223522  Q20  =   0.099757  Q21c =   0.102500  Q21s =  -0.156200
                   Q22c =  -0.028439  Q22s =  -0.065552

H          x = -0.363180  y = -1.026114  z = -0.046589 angstrom
           Maximum rank =  2   Radius =  0.325 angstrom
                   Q00  =   0.031816
|Q1| =   0.126835  Q10  =   0.005424  Q11c =   0.042279  Q11s =   0.119458
|Q2| =   0.223523  Q20  =  -0.111149  Q21c =   0.005519  Q21s =   0.015593
                   Q22c =  -0.150201  Q22s =   0.121551

H          x = -0.363158  y =  0.472722  z =  0.911933 angstrom
           Maximum rank =  2   Radius =  0.325 angstrom
                   Q00  =   0.031814
|Q1| =   0.126837  Q10  =  -0.106167  Q11c =   0.042278  Q11s =  -0.055033
|Q2| =   0.223522  Q20  =   0.123146  Q21c =  -0.108019  Q21s =   0.140609
                   Q22c =  -0.014936  Q22s =  -0.055994

H          x =  1.089480  y = -0.000004  z = -0.000000 angstrom
           Maximum rank =  2   Radius =  0.325 angstrom
                   Q00  =   0.031814
|Q1| =   0.126836  Q11c =  -0.126836  Q11s =   0.000002
|Q2| =   0.223523  Q20  =  -0.111762  Q22c =   0.193577

Total multipoles referred to origin at
           x =   0.000000,  y =    0.000000,  z =    0.000000 angstrom
                   Q00  =  -0.000000
|Q1| =   0.000004  Q11s =   0.000004
|Q2| =   0.000044  Q20  =  -0.000037  Q21c =  -0.000001  Q21s =   0.000005
                   Q22s =   0.000023

Finished at 13:25:27 on 29 Dec 2019 

  DMA results are available in the Python driver through the
	  variable('DMA DISTRIBUTED MULTIPOLES')
  and
	  variable('DMA TOTAL MULTIPOLES')
  commands.


    Psi4 stopped on: Sunday, 29 December 2019 01:25PM
    Psi4 wall time for execution: 0:00:03.50

*** Psi4 exiting successfully. Buy a developer a beer!
