
    -----------------------------------------------------------------------
          Psi4: An Open-Source Ab Initio Electronic Structure Package
                               Psi4 1.3.2 release

                         Git: Rev {HEAD} ecbda83 


    R. M. Parrish, L. A. Burns, D. G. A. Smith, A. C. Simmonett,
    A. E. DePrince III, E. G. Hohenstein, U. Bozkaya, A. Yu. Sokolov,
    R. Di Remigio, R. M. Richard, J. F. Gonthier, A. M. James,
    H. R. McAlexander, A. Kumar, M. Saitow, X. Wang, B. P. Pritchard,
    P. Verma, H. F. Schaefer III, K. Patkowski, R. A. King, E. F. Valeev,
    F. A. Evangelista, J. M. Turney, T. D. Crawford, and C. D. Sherrill,
    J. Chem. Theory Comput. 13(7) pp 3185--3197 (2017).
    (doi: 10.1021/acs.jctc.7b00174)


                         Additional Contributions by
    P. Kraus, H. Kruse, M. H. Lechner, M. C. Schieber, R. A. Shaw,
    A. Alenaizan, R. Galvelis, Z. L. Glick, S. Lehtola, and J. P. Misiewicz

    -----------------------------------------------------------------------


    Psi4 started on: Tuesday, 01 June 2021 11:52PM

    Process ID: 76578
    Host:       daniele-Precision-5750
    PSIDATADIR: /home/daniele/anaconda3/envs/poltype/share/psi4
    Memory:     500.0 MiB
    Threads:    1
    
  ==> Input File <==

--------------------------------------------------------------------------
molecule { 
0 1
C -1.302096077875 -0.673333861299 0.636819004685
C -2.343461294995 -0.049480794049 -0.296270086997
C 0.095342047898 -0.229679734140 0.299640220140
C -3.764895229551 -0.491420750511 0.034837757444
C 0.613964900251 0.957472654540 0.828933947478
C 0.880357821093 -0.955921821987 -0.602779015560
C 1.886381120159 1.403820115093 0.474723809701
C 2.153723343444 -0.514777823393 -0.960955828331
C 2.659744432096 0.668801944489 -0.423961133845
H -1.368834228296 -1.766640623980 0.573400130633
H -1.537828196629 -0.403340001311 1.674171182649
H -2.263160568176 1.042353627848 -0.235228860334
H -2.096657242606 -0.320487752239 -1.330278859840
H -4.034229061611 -0.201318895315 1.055808169670
H -4.491995019544 -0.038128098046 -0.646406343211
H -3.863677767165 -1.578655369183 -0.042766758076
H 0.016631818081 1.532181379931 1.535390622921
H 0.491647702764 -1.883135477834 -1.021041487998
H 2.275805461132 2.324658601186 0.901943519557
H 2.752240868721 -1.095902766796 -1.658320853307
H 3.653226761049 1.013415648009 -0.699374156307
}
memory 700MB
set_num_threads(8)
psi4_io.set_default_path("/home/daniele/PSI4_sctatch/Psi4-propbenzene")
set maxiter 500
set freeze_core True
set PROPERTIES_ORIGIN ["COM"]
set cubeprop_tasks ['esp']
E, wfn = properties('mp2/aug-cc-pVTZ',properties=['dipole'],return_wfn=True)
cubeprop(wfn)
fchk(wfn, "propbenzene-esp.fchk")
oeprop(wfn,"GRID_ESP","WIBERG_LOWDIN_INDICES","MULLIKEN_CHARGES")
clean()
--------------------------------------------------------------------------

  Memory set to 667.572 MiB by Python driver.
  Threads set to 8 by Python driver.
    SCF Algorithm Type (re)set to DF.

*** tstart() called on daniele-Precision-5750
*** at Tue Jun  1 23:52:48 2021

   => Loading Basis Set <=

    Name: AUG-CC-PVTZ
    Role: ORBITAL
    Keyword: BASIS
    atoms 1-9   entry C          line   235 file /home/daniele/anaconda3/envs/poltype/share/psi4/basis/aug-cc-pvtz.gbs 
    atoms 10-21 entry H          line    36 file /home/daniele/anaconda3/envs/poltype/share/psi4/basis/aug-cc-pvtz.gbs 


         ---------------------------------------------------------
                                   SCF
               by Justin Turney, Rob Parrish, Andy Simmonett
                          and Daniel G. A. Smith
                              RHF Reference
                        8 Threads,    667 MiB Core
         ---------------------------------------------------------

  ==> Geometry <==

    Molecular point group: c1
    Full point group: C1

    Geometry (in Angstrom), charge = 0, multiplicity = 1:

       Center              X                  Y                   Z               Mass       
    ------------   -----------------  -----------------  -----------------  -----------------
         C           -1.302096077875    -0.673333861299     0.636819004685    12.000000000000
         C           -2.343461294995    -0.049480794049    -0.296270086997    12.000000000000
         C            0.095342047898    -0.229679734140     0.299640220140    12.000000000000
         C           -3.764895229551    -0.491420750511     0.034837757444    12.000000000000
         C            0.613964900251     0.957472654540     0.828933947478    12.000000000000
         C            0.880357821093    -0.955921821987    -0.602779015560    12.000000000000
         C            1.886381120159     1.403820115093     0.474723809701    12.000000000000
         C            2.153723343444    -0.514777823393    -0.960955828331    12.000000000000
         C            2.659744432096     0.668801944489    -0.423961133845    12.000000000000
         H           -1.368834228296    -1.766640623980     0.573400130633     1.007825032230
         H           -1.537828196629    -0.403340001311     1.674171182649     1.007825032230
         H           -2.263160568176     1.042353627848    -0.235228860334     1.007825032230
         H           -2.096657242606    -0.320487752239    -1.330278859840     1.007825032230
         H           -4.034229061611    -0.201318895315     1.055808169670     1.007825032230
         H           -4.491995019544    -0.038128098046    -0.646406343211     1.007825032230
         H           -3.863677767165    -1.578655369183    -0.042766758076     1.007825032230
         H            0.016631818081     1.532181379931     1.535390622921     1.007825032230
         H            0.491647702764    -1.883135477834    -1.021041487998     1.007825032230
         H            2.275805461132     2.324658601186     0.901943519557     1.007825032230
         H            2.752240868721    -1.095902766796    -1.658320853307     1.007825032230
         H            3.653226761049     1.013415648009    -0.699374156307     1.007825032230

  Running in c1 symmetry.

  Rotational constants: A =      0.14465  B =      0.02875  C =      0.02572 [cm^-1]
  Rotational constants: A =   4336.50992  B =    861.97566  C =    770.93301 [MHz]
  Nuclear repulsion =  411.684391060339919

  Charge       = 0
  Multiplicity = 1
  Electrons    = 66
  Nalpha       = 33
  Nbeta        = 33

  ==> Algorithm <==

  SCF Algorithm Type is DF.
  DIIS enabled.
  MOM disabled.
  Fractional occupation disabled.
  Guess Type is SAD.
  Energy threshold   = 1.00e-10
  Density threshold  = 1.00e-10
  Integral threshold = 0.00e+00

  ==> Primary Basis <==

  Basis Set: AUG-CC-PVTZ
    Blend: AUG-CC-PVTZ
    Number of shells: 234
    Number of basis function: 690
    Number of Cartesian functions: 795
    Spherical Harmonics?: true
    Max angular momentum: 3

   => Loading Basis Set <=

    Name: (AUG-CC-PVTZ AUX)
    Role: JKFIT
    Keyword: DF_BASIS_SCF
    atoms 1-9   entry C          line   162 file /home/daniele/anaconda3/envs/poltype/share/psi4/basis/aug-cc-pvtz-jkfit.gbs 
    atoms 10-21 entry H          line    70 file /home/daniele/anaconda3/envs/poltype/share/psi4/basis/aug-cc-pvtz-jkfit.gbs 

  ==> Pre-Iterations <==

   -------------------------------------------------------
    Irrep   Nso     Nmo     Nalpha   Nbeta   Ndocc  Nsocc
   -------------------------------------------------------
     A        690     690       0       0       0       0
   -------------------------------------------------------
    Total     690     690      33      33      33       0
   -------------------------------------------------------

  ==> Integral Setup <==

  ==> DiskDFJK: Density-Fitted J/K Matrices <==

    J tasked:                  Yes
    K tasked:                  Yes
    wK tasked:                  No
    OpenMP threads:              8
    Integrals threads:           8
    Memory [MiB]:              500
    Algorithm:                Disk
    Integral Cache:           NONE
    Schwarz Cutoff:          1E-12
    Fitting Condition:       1E-10

   => Auxiliary Basis Set <=

  Basis Set: (AUG-CC-PVTZ AUX)
    Blend: AUG-CC-PVTZ-JKFIT
    Number of shells: 438
    Number of basis function: 1488
    Number of Cartesian functions: 1839
    Spherical Harmonics?: true
    Max angular momentum: 4

  Minimum eigenvalue in the overlap matrix is 4.8869063373E-07.
  Using Symmetric Orthogonalization.

  SCF Guess: Superposition of Atomic Densities via on-the-fly atomic UHF.

  ==> Iterations <==

                           Total Energy        Delta E     RMS |[F,P]|

   @DF-RHF iter SAD:  -347.39058271582263   -3.47391e+02   0.00000e+00 
   @DF-RHF iter   1:  -347.60606837396375   -2.15486e-01   1.03110e-03 DIIS
   @DF-RHF iter   2:  -347.86621835906476   -2.60150e-01   4.74831e-04 DIIS
   @DF-RHF iter   3:  -347.92204336785653   -5.58250e-02   8.94275e-05 DIIS
   @DF-RHF iter   4:  -347.92533700830154   -3.29364e-03   2.81659e-05 DIIS
   @DF-RHF iter   5:  -347.92556572261356   -2.28714e-04   8.52602e-06 DIIS
   @DF-RHF iter   6:  -347.92558897567517   -2.32531e-05   2.13066e-06 DIIS
   @DF-RHF iter   7:  -347.92559082169805   -1.84602e-06   5.76940e-07 DIIS
   @DF-RHF iter   8:  -347.92559101216307   -1.90465e-07   2.16854e-07 DIIS
   @DF-RHF iter   9:  -347.92559106289724   -5.07342e-08   1.07878e-07 DIIS
   @DF-RHF iter  10:  -347.92559107980458   -1.69073e-08   5.12662e-08 DIIS
   @DF-RHF iter  11:  -347.92559108345887   -3.65429e-09   1.23344e-08 DIIS
   @DF-RHF iter  12:  -347.92559108363264   -1.73770e-10   3.10646e-09 DIIS
   @DF-RHF iter  13:  -347.92559108363940   -6.76437e-12   1.23092e-09 DIIS
   @DF-RHF iter  14:  -347.92559108364043   -1.02318e-12   4.15633e-10 DIIS
   @DF-RHF iter  15:  -347.92559108363969    7.38964e-13   1.26247e-10 DIIS
   @DF-RHF iter  16:  -347.92559108363980   -1.13687e-13   5.03067e-11 DIIS
  Energy and wave function converged.


  ==> Post-Iterations <==

    Orbital Energies [Eh]
    ---------------------

    Doubly Occupied:                                                      

       1A    -11.237471     2A    -11.233624     3A    -11.233456  
       4A    -11.229484     5A    -11.228972     6A    -11.228859  
       7A    -11.225188     8A    -11.221329     9A    -11.213904  
      10A     -1.152214    11A     -1.075088    12A     -1.011475  
      13A     -1.009714    14A     -0.921924    15A     -0.823559  
      16A     -0.820787    17A     -0.783622    18A     -0.690963  
      19A     -0.646858    20A     -0.633431    21A     -0.606112  
      22A     -0.588527    23A     -0.581050    24A     -0.566257  
      25A     -0.529293    26A     -0.525520    27A     -0.496892  
      28A     -0.488155    29A     -0.475529    30A     -0.468807  
      31A     -0.465837    32A     -0.333496    33A     -0.322551  

    Virtual:                                                              

      34A      0.029628    35A      0.032594    36A      0.033904  
      37A      0.039253    38A      0.045053    39A      0.045770  
      40A      0.055839    41A      0.059215    42A      0.062610  
      43A      0.065714    44A      0.066374    45A      0.090113  
      46A      0.095241    47A      0.099341    48A      0.107188  
      49A      0.109468    50A      0.115537    51A      0.116328  
      52A      0.119377    53A      0.123240    54A      0.124660  
      55A      0.127491    56A      0.130846    57A      0.131897  
      58A      0.134150    59A      0.138159    60A      0.143307  
      61A      0.153067    62A      0.154029    63A      0.157126  
      64A      0.157422    65A      0.160622    66A      0.166166  
      67A      0.168829    68A      0.170501    69A      0.174394  
      70A      0.181110    71A      0.191139    72A      0.201596  
      73A      0.207606    74A      0.214126    75A      0.225787  
      76A      0.229477    77A      0.234287    78A      0.250005  
      79A      0.251513    80A      0.257471    81A      0.259166  
      82A      0.262929    83A      0.263785    84A      0.276956  
      85A      0.282095    86A      0.283082    87A      0.290597  
      88A      0.293632    89A      0.302588    90A      0.309277  
      91A      0.310486    92A      0.313574    93A      0.316098  
      94A      0.324788    95A      0.326278    96A      0.330808  
      97A      0.333110    98A      0.338728    99A      0.339540  
     100A      0.344795   101A      0.355400   102A      0.356079  
     103A      0.356708   104A      0.365470   105A      0.369725  
     106A      0.374940   107A      0.378858   108A      0.384792  
     109A      0.385315   110A      0.386754   111A      0.400818  
     112A      0.401916   113A      0.414227   114A      0.416182  
     115A      0.424337   116A      0.427791   117A      0.433770  
     118A      0.436194   119A      0.437693   120A      0.446110  
     121A      0.447646   122A      0.449757   123A      0.455999  
     124A      0.458560   125A      0.467754   126A      0.471115  
     127A      0.471642   128A      0.473246   129A      0.476869  
     130A      0.481420   131A      0.484357   132A      0.487797  
     133A      0.489786   134A      0.496485   135A      0.506453  
     136A      0.507495   137A      0.512339   138A      0.516883  
     139A      0.519552   140A      0.525307   141A      0.528860  
     142A      0.529486   143A      0.534316   144A      0.536439  
     145A      0.539148   146A      0.543585   147A      0.546022  
     148A      0.551568   149A      0.555081   150A      0.559489  
     151A      0.561468   152A      0.569775   153A      0.570154  
     154A      0.582480   155A      0.586946   156A      0.594174  
     157A      0.605813   158A      0.614765   159A      0.618189  
     160A      0.628341   161A      0.633407   162A      0.638071  
     163A      0.638797   164A      0.650201   165A      0.652438  
     166A      0.670574   167A      0.674333   168A      0.676246  
     169A      0.680532   170A      0.683317   171A      0.686983  
     172A      0.702528   173A      0.706905   174A      0.711104  
     175A      0.712585   176A      0.718814   177A      0.731309  
     178A      0.734220   179A      0.749970   180A      0.751348  
     181A      0.767261   182A      0.771275   183A      0.774644  
     184A      0.786957   185A      0.803346   186A      0.813029  
     187A      0.823514   188A      0.827443   189A      0.830447  
     190A      0.832626   191A      0.846839   192A      0.848634  
     193A      0.851464   194A      0.853305   195A      0.856207  
     196A      0.863723   197A      0.872845   198A      0.882261  
     199A      0.886365   200A      0.888706   201A      0.892186  
     202A      0.895321   203A      0.895827   204A      0.898069  
     205A      0.902843   206A      0.912905   207A      0.915224  
     208A      0.917712   209A      0.927531   210A      0.932999  
     211A      0.935808   212A      0.946225   213A      0.951557  
     214A      0.955756   215A      0.973535   216A      0.976696  
     217A      0.982762   218A      0.984351   219A      0.985325  
     220A      0.993318   221A      0.996043   222A      1.007404  
     223A      1.010471   224A      1.021630   225A      1.025241  
     226A      1.035235   227A      1.036427   228A      1.051365  
     229A      1.054708   230A      1.055526   231A      1.058633  
     232A      1.061668   233A      1.066654   234A      1.072632  
     235A      1.082225   236A      1.083905   237A      1.092836  
     238A      1.096613   239A      1.097810   240A      1.103520  
     241A      1.113524   242A      1.120631   243A      1.124926  
     244A      1.130683   245A      1.134973   246A      1.137278  
     247A      1.144173   248A      1.151963   249A      1.156760  
     250A      1.157627   251A      1.160545   252A      1.163426  
     253A      1.170744   254A      1.183317   255A      1.187627  
     256A      1.190006   257A      1.197271   258A      1.199593  
     259A      1.207463   260A      1.211133   261A      1.213289  
     262A      1.216267   263A      1.230307   264A      1.234102  
     265A      1.248837   266A      1.255368   267A      1.264028  
     268A      1.267058   269A      1.269768   270A      1.273618  
     271A      1.275446   272A      1.288631   273A      1.292615  
     274A      1.302513   275A      1.315817   276A      1.319889  
     277A      1.323825   278A      1.327339   279A      1.344366  
     280A      1.344843   281A      1.358041   282A      1.359116  
     283A      1.364107   284A      1.375472   285A      1.378210  
     286A      1.384845   287A      1.393486   288A      1.394557  
     289A      1.407831   290A      1.424970   291A      1.432954  
     292A      1.438901   293A      1.447351   294A      1.458880  
     295A      1.466924   296A      1.477429   297A      1.486973  
     298A      1.490311   299A      1.507919   300A      1.509860  
     301A      1.513441   302A      1.530222   303A      1.543111  
     304A      1.545411   305A      1.549939   306A      1.563098  
     307A      1.574985   308A      1.589328   309A      1.593747  
     310A      1.608707   311A      1.610011   312A      1.618167  
     313A      1.622723   314A      1.632069   315A      1.635087  
     316A      1.640811   317A      1.647687   318A      1.670895  
     319A      1.675902   320A      1.685360   321A      1.692393  
     322A      1.699013   323A      1.705835   324A      1.713762  
     325A      1.714733   326A      1.717745   327A      1.729075  
     328A      1.742074   329A      1.745616   330A      1.755025  
     331A      1.758971   332A      1.762169   333A      1.767759  
     334A      1.779991   335A      1.783384   336A      1.804850  
     337A      1.805071   338A      1.811188   339A      1.823785  
     340A      1.827859   341A      1.838643   342A      1.843270  
     343A      1.851442   344A      1.859091   345A      1.860850  
     346A      1.871133   347A      1.872643   348A      1.880550  
     349A      1.894690   350A      1.905197   351A      1.918334  
     352A      1.921592   353A      1.928125   354A      1.954709  
     355A      1.961064   356A      1.964467   357A      1.976979  
     358A      1.985057   359A      1.990594   360A      1.998283  
     361A      2.007073   362A      2.011888   363A      2.018793  
     364A      2.029248   365A      2.031030   366A      2.041592  
     367A      2.053864   368A      2.066252   369A      2.070801  
     370A      2.090225   371A      2.091963   372A      2.098157  
     373A      2.115486   374A      2.123424   375A      2.127376  
     376A      2.136503   377A      2.141132   378A      2.151817  
     379A      2.160265   380A      2.167144   381A      2.173741  
     382A      2.176902   383A      2.189165   384A      2.196527  
     385A      2.220428   386A      2.233079   387A      2.237432  
     388A      2.244156   389A      2.253212   390A      2.263364  
     391A      2.278754   392A      2.294683   393A      2.298964  
     394A      2.306094   395A      2.319271   396A      2.326490  
     397A      2.344186   398A      2.356493   399A      2.363451  
     400A      2.377016   401A      2.388873   402A      2.397301  
     403A      2.402556   404A      2.419836   405A      2.425720  
     406A      2.432797   407A      2.443967   408A      2.449995  
     409A      2.456597   410A      2.460017   411A      2.504000  
     412A      2.507021   413A      2.528273   414A      2.549519  
     415A      2.582623   416A      2.587152   417A      2.601438  
     418A      2.619205   419A      2.620212   420A      2.629282  
     421A      2.649326   422A      2.661582   423A      2.666916  
     424A      2.692430   425A      2.777181   426A      2.783018  
     427A      2.827012   428A      2.837233   429A      2.845158  
     430A      2.886840   431A      2.893445   432A      2.925030  
     433A      2.990306   434A      3.003105   435A      3.067313  
     436A      3.116753   437A      3.122761   438A      3.200722  
     439A      3.226921   440A      3.228641   441A      3.274057  
     442A      3.291852   443A      3.299065   444A      3.316534  
     445A      3.338363   446A      3.346333   447A      3.369124  
     448A      3.386147   449A      3.388125   450A      3.406258  
     451A      3.430813   452A      3.438670   453A      3.443797  
     454A      3.450836   455A      3.459117   456A      3.463129  
     457A      3.471710   458A      3.480366   459A      3.489200  
     460A      3.519339   461A      3.531854   462A      3.540097  
     463A      3.549636   464A      3.554469   465A      3.557166  
     466A      3.578651   467A      3.580514   468A      3.597019  
     469A      3.598531   470A      3.608460   471A      3.623764  
     472A      3.633183   473A      3.634616   474A      3.657525  
     475A      3.662943   476A      3.673795   477A      3.682973  
     478A      3.690197   479A      3.699015   480A      3.701538  
     481A      3.715920   482A      3.732354   483A      3.733698  
     484A      3.765573   485A      3.771514   486A      3.777290  
     487A      3.789140   488A      3.793539   489A      3.816618  
     490A      3.822907   491A      3.842144   492A      3.848578  
     493A      3.852455   494A      3.865709   495A      3.870025  
     496A      3.878560   497A      3.892511   498A      3.899358  
     499A      3.906566   500A      3.914451   501A      3.929813  
     502A      3.935958   503A      3.944276   504A      3.950798  
     505A      3.959607   506A      3.975922   507A      3.984614  
     508A      3.993764   509A      4.000301   510A      4.006373  
     511A      4.021107   512A      4.026820   513A      4.031284  
     514A      4.037417   515A      4.043209   516A      4.050176  
     517A      4.071638   518A      4.084647   519A      4.087756  
     520A      4.094457   521A      4.098853   522A      4.108343  
     523A      4.122486   524A      4.139789   525A      4.143724  
     526A      4.165477   527A      4.169764   528A      4.172978  
     529A      4.206359   530A      4.218555   531A      4.224330  
     532A      4.240160   533A      4.247185   534A      4.252503  
     535A      4.264683   536A      4.276055   537A      4.287285  
     538A      4.295146   539A      4.298441   540A      4.309663  
     541A      4.322507   542A      4.333798   543A      4.343150  
     544A      4.350863   545A      4.370490   546A      4.373351  
     547A      4.386567   548A      4.397598   549A      4.408684  
     550A      4.422788   551A      4.442730   552A      4.443942  
     553A      4.456009   554A      4.461728   555A      4.475327  
     556A      4.478732   557A      4.493598   558A      4.508846  
     559A      4.513999   560A      4.520312   561A      4.557280  
     562A      4.583412   563A      4.585751   564A      4.601058  
     565A      4.637537   566A      4.644495   567A      4.650480  
     568A      4.672609   569A      4.686349   570A      4.693269  
     571A      4.702216   572A      4.706044   573A      4.723991  
     574A      4.738285   575A      4.745357   576A      4.756539  
     577A      4.771243   578A      4.772810   579A      4.791408  
     580A      4.807077   581A      4.812282   582A      4.819034  
     583A      4.853379   584A      4.866899   585A      4.877447  
     586A      4.887723   587A      4.911316   588A      4.928009  
     589A      4.941632   590A      4.955457   591A      4.969960  
     592A      4.978455   593A      4.988379   594A      5.005053  
     595A      5.007099   596A      5.029957   597A      5.051515  
     598A      5.063058   599A      5.094513   600A      5.103038  
     601A      5.107927   602A      5.122194   603A      5.122606  
     604A      5.132232   605A      5.148970   606A      5.157484  
     607A      5.163206   608A      5.176904   609A      5.180969  
     610A      5.183122   611A      5.214284   612A      5.221002  
     613A      5.236571   614A      5.247280   615A      5.261477  
     616A      5.265955   617A      5.277414   618A      5.293275  
     619A      5.314623   620A      5.341059   621A      5.347542  
     622A      5.364508   623A      5.392522   624A      5.397348  
     625A      5.399708   626A      5.409961   627A      5.433041  
     628A      5.452031   629A      5.477154   630A      5.480065  
     631A      5.490655   632A      5.521137   633A      5.529449  
     634A      5.581374   635A      5.582749   636A      5.615147  
     637A      5.629247   638A      5.643890   639A      5.668741  
     640A      5.673059   641A      5.705971   642A      5.709960  
     643A      5.742366   644A      5.773838   645A      5.781504  
     646A      5.814375   647A      5.832236   648A      5.833179  
     649A      5.841644   650A      5.885604   651A      5.937588  
     652A      5.945589   653A      5.995596   654A      6.090424  
     655A      6.111183   656A      6.127210   657A      6.138568  
     658A      6.184366   659A      6.184917   660A      6.191558  
     661A      6.234879   662A      6.273343   663A      6.279592  
     664A      6.305298   665A      6.355337   666A      6.403721  
     667A      6.432173   668A      6.438972   669A      6.516424  
     670A      6.564911   671A      6.628798   672A      6.675953  
     673A      6.769049   674A      6.790470   675A      6.839415  
     676A      6.870621   677A      6.906110   678A      7.024781  
     679A      7.053227   680A      7.160753   681A      7.337078  
     682A     16.195703   683A     16.292277   684A     17.804115  
     685A     18.203693   686A     18.643472   687A     18.951062  
     688A     19.674500   689A     19.996682   690A     20.849201  

    Final Occupation by Irrep:
              A 
    DOCC [    33 ]

  @DF-RHF Final Energy:  -347.92559108363980

   => Energetics <=

    Nuclear Repulsion Energy =            411.6843910603399195
    One-Electron Energy =               -1285.0800676171031682
    Two-Electron Energy =                 525.4700854731233903
    Total Energy =                       -347.9255910836398016

Computation Completed

*** tstop() called on daniele-Precision-5750 at Tue Jun  1 23:53:49 2021
Module time:
	user time   =     451.25 seconds =       7.52 minutes
	system time =      14.09 seconds =       0.23 minutes
	total time  =         61 seconds =       1.02 minutes
Total time:
	user time   =     451.25 seconds =       7.52 minutes
	system time =      14.09 seconds =       0.23 minutes
	total time  =         61 seconds =       1.02 minutes
   => Loading Basis Set <=

    Name: (AUG-CC-PVTZ AUX)
    Role: RIFIT
    Keyword: DF_BASIS_MP2
    atoms 1-9   entry C          line   148 file /home/daniele/anaconda3/envs/poltype/share/psi4/basis/aug-cc-pvtz-ri.gbs 
    atoms 10-21 entry H          line    30 file /home/daniele/anaconda3/envs/poltype/share/psi4/basis/aug-cc-pvtz-ri.gbs 


*** tstart() called on daniele-Precision-5750
*** at Tue Jun  1 23:53:49 2021


  //>>>>>>>>>>>>>>>>>>>>>>>>>>>>>>>>>>>//
  //               DFMP2               //
  //<<<<<<<<<<<<<<<<<<<<<<<<<<<<<<<<<<<//

	 --------------------------------------------------------
	                          DF-MP2                         
	      2nd-Order Density-Fitted Moller-Plesset Theory     
	              RMP2 Wavefunction,   8 Threads             
	                                                         
	        Rob Parrish, Justin Turney, Andy Simmonett,      
	           Ed Hohenstein, and C. David Sherrill          
	 --------------------------------------------------------

   => Auxiliary Basis Set <=

  Basis Set: (AUG-CC-PVTZ AUX)
    Blend: AUG-CC-PVTZ-RI
    Number of shells: 420
    Number of basis function: 1506
    Number of Cartesian functions: 1884
    Spherical Harmonics?: true
    Max angular momentum: 4

	 --------------------------------------------------------
	                 NBF =   690, NAUX =  1506
	 --------------------------------------------------------
	   CLASS    FOCC     OCC    AOCC    AVIR     VIR    FVIR
	   PAIRS       9      33      24     657     657       0
	 --------------------------------------------------------


         ------------------------------------------------------------
                                     CPHF                           
                                  Rob Parrish                       
         ------------------------------------------------------------

  ==> Geometry <==

    Molecular point group: c1
    Full point group: C1

    Geometry (in Angstrom), charge = 0, multiplicity = 1:

       Center              X                  Y                   Z               Mass       
    ------------   -----------------  -----------------  -----------------  -----------------
         C           -1.302096077875    -0.673333861299     0.636819004685    12.000000000000
         C           -2.343461294995    -0.049480794049    -0.296270086997    12.000000000000
         C            0.095342047898    -0.229679734140     0.299640220140    12.000000000000
         C           -3.764895229551    -0.491420750511     0.034837757444    12.000000000000
         C            0.613964900251     0.957472654540     0.828933947478    12.000000000000
         C            0.880357821093    -0.955921821987    -0.602779015560    12.000000000000
         C            1.886381120159     1.403820115093     0.474723809701    12.000000000000
         C            2.153723343444    -0.514777823393    -0.960955828331    12.000000000000
         C            2.659744432096     0.668801944489    -0.423961133845    12.000000000000
         H           -1.368834228296    -1.766640623980     0.573400130633     1.007825032230
         H           -1.537828196629    -0.403340001311     1.674171182649     1.007825032230
         H           -2.263160568176     1.042353627848    -0.235228860334     1.007825032230
         H           -2.096657242606    -0.320487752239    -1.330278859840     1.007825032230
         H           -4.034229061611    -0.201318895315     1.055808169670     1.007825032230
         H           -4.491995019544    -0.038128098046    -0.646406343211     1.007825032230
         H           -3.863677767165    -1.578655369183    -0.042766758076     1.007825032230
         H            0.016631818081     1.532181379931     1.535390622921     1.007825032230
         H            0.491647702764    -1.883135477834    -1.021041487998     1.007825032230
         H            2.275805461132     2.324658601186     0.901943519557     1.007825032230
         H            2.752240868721    -1.095902766796    -1.658320853307     1.007825032230
         H            3.653226761049     1.013415648009    -0.699374156307     1.007825032230

  Nuclear repulsion =  411.684391060339919
  Reference energy  = -347.925591083639802

  ==> Basis Set <==

  Basis Set: AUG-CC-PVTZ
    Blend: AUG-CC-PVTZ
    Number of shells: 234
    Number of basis function: 690
    Number of Cartesian functions: 795
    Spherical Harmonics?: true
    Max angular momentum: 3

  ==> CGRSolver (by Rob Parrish) <==

   Number of roots    =         1
   Preconditioning    =    JACOBI
   Convergence cutoff =     1E-06
   Maximum iterations =       100

  ==> CPHFRHamiltonian (by Rob Parrish) <== 

  ==> DiskDFJK: Density-Fitted J/K Matrices <==

    J tasked:                  Yes
    K tasked:                  Yes
    wK tasked:                  No
    OpenMP threads:              8
    Integrals threads:           8
    Memory [MiB]:              500
    Algorithm:                Disk
    Integral Cache:           NONE
    Schwarz Cutoff:          1E-12
    Fitting Condition:       1E-10

   => Auxiliary Basis Set <=

  Basis Set: (AUG-CC-PVTZ AUX)
    Blend: AUG-CC-PVTZ-JKFIT
    Number of shells: 438
    Number of basis function: 1488
    Number of Cartesian functions: 1839
    Spherical Harmonics?: true
    Max angular momentum: 4

  ==> CPHF Iterations <==

  => Iterations <=

             Iter  Converged  Remaining    Residual
  CGR           1          0          1   8.293E-02
  CGR           2          0          1   1.536E-02
  CGR           3          0          1   7.500E-03
  CGR           4          0          1   4.331E-03
  CGR           5          0          1   1.922E-03
  CGR           6          0          1   6.001E-04
  CGR           7          0          1   1.699E-04
  CGR           8          0          1   3.973E-05
  CGR           9          0          1   1.400E-05
  CGR          10          0          1   3.628E-06
  CGR          11          1          0   9.986E-07

    CGRSolver converged.

	-----------------------------------------------------------
	 ==================> DF-MP2 Energies <==================== 
	-----------------------------------------------------------
	 Reference Energy          =    -347.9255910836398016 [Eh]
	 Singles Energy            =      -0.0000000000000000 [Eh]
	 Same-Spin Energy          =      -0.3619809912403710 [Eh]
	 Opposite-Spin Energy      =      -1.1381715454125425 [Eh]
	 Correlation Energy        =      -1.5001525366529136 [Eh]
	 Total Energy              =    -349.4257436202927352 [Eh]
	-----------------------------------------------------------
	 ================> DF-SCS-MP2 Energies <================== 
	-----------------------------------------------------------
	 SCS Same-Spin Scale       =       0.3333333333333333 [-]
	 SCS Opposite-Spin Scale   =       1.2000000000000000 [-]
	 SCS Same-Spin Energy      =      -0.1206603304134570 [Eh]
	 SCS Opposite-Spin Energy  =      -1.3658058544950509 [Eh]
	 SCS Correlation Energy    =      -1.4864661849085079 [Eh]
	 SCS Total Energy          =    -349.4120572685483239 [Eh]
	-----------------------------------------------------------



Properties will be evaluated at   0.000000,   0.000000,   0.000000 [a0]

Properties computed using the MP2 density matrix

  Nuclear Dipole Moment: [e a0]
     X:    -9.8123      Y:    -1.2890      Z:     0.1006

  Electronic Dipole Moment: [e a0]
     X:     9.6481      Y:     1.2768      Z:    -0.1099

  Dipole Moment: [e a0]
     X:    -0.1643      Y:    -0.0122      Z:    -0.0094     Total:     0.1650

  Dipole Moment: [D]
     X:    -0.4175      Y:    -0.0310      Z:    -0.0238     Total:     0.4193


*** tstop() called on daniele-Precision-5750 at Tue Jun  1 23:55:57 2021
Module time:
	user time   =     981.99 seconds =      16.37 minutes
	system time =      16.66 seconds =       0.28 minutes
	total time  =        128 seconds =       2.13 minutes
Total time:
	user time   =    1434.15 seconds =      23.90 minutes
	system time =      30.75 seconds =       0.51 minutes
	total time  =        189 seconds =       3.15 minutes
  ==> One Electron Grid Properties (v2.0) <==

  ==> CubicScalarGrid <==

    Filepath     = .
    Total Points =           697734
    XYZ Blocking =               10
    X Points     =              118
    Y Points     =               81
    Z Points     =               73
    X Spacing    =        2.000E-01
    Y Spacing    =        2.000E-01
    Z Spacing    =        2.000E-01
    X Minimum    =       -1.249E+01
    Y Minimum    =       -7.583E+00
    Z Minimum    =       -7.185E+00
    X Maximum    =        1.091E+01
    Y Maximum    =        8.417E+00
    Z Maximum    =        7.215E+00

  Basis Set: AUG-CC-PVTZ
    Blend: AUG-CC-PVTZ
    Number of shells: 234
    Number of basis function: 690
    Number of Cartesian functions: 795
    Spherical Harmonics?: true
    Max angular momentum: 3



Properties will be evaluated at   0.000000,   0.000000,   0.000000 [a0]
OEProp: No title given, name of density matrix used for the following properties is 'DF-MP2 relaxed density'
  Mulliken Charges: (a.u.)
   Center  Symbol    Alpha    Beta     Spin     Total
       1     C     3.16988  3.16988  0.00000 -0.33975
       2     C     3.23109  3.23109  0.00000 -0.46217
       3     C     2.17182  2.17182  0.00000  1.65637
       4     C     3.52363  3.52363  0.00000 -1.04727
       5     C     3.46951  3.46951  0.00000 -0.93903
       6     C     3.46010  3.46010  0.00000 -0.92020
       7     C     3.34371  3.34371  0.00000 -0.68743
       8     C     3.33374  3.33374  0.00000 -0.66747
       9     C     3.06752  3.06752  0.00000 -0.13504
      10     H     0.38600  0.38600  0.00000  0.22800
      11     H     0.38412  0.38412  0.00000  0.23175
      12     H     0.35409  0.35409  0.00000  0.29182
      13     H     0.35515  0.35515  0.00000  0.28971
      14     H     0.35521  0.35521  0.00000  0.28958
      15     H     0.36429  0.36429  0.00000  0.27141
      16     H     0.35415  0.35415  0.00000  0.29171
      17     H     0.45516  0.45516  0.00000  0.08967
      18     H     0.47328  0.47328  0.00000  0.05343
      19     H     0.21759  0.21759  0.00000  0.56481
      20     H     0.21355  0.21355  0.00000  0.57291
      21     H     0.31640  0.31640  0.00000  0.36720

   Total alpha = 33.00000, Total beta = 33.00000, Total charge =  0.00000



  Wiberg Bond Indices using Orthogonal Lowdin Orbitals:

  Irrep: 1 Size: 21 x 21

                 1                   2                   3                   4                   5

    1     0.00000000000000     1.02341458283037     1.01841887013687     0.26052938452862     0.29630558449625
    2     1.02341458283037     0.00000000000000     0.25941059971907     1.09244644442024     0.06096524680412
    3     1.01841887013687     0.25941059971907     0.00000000000000     0.04030435075249     1.23297240833301
    4     0.26052938452862     1.09244644442024     0.04030435075249     0.00000000000000     0.00846329631521
    5     0.29630558449625     0.06096524680412     1.23297240833301     0.00846329631521     0.00000000000000
    6     0.29626399715198     0.05808850119425     1.23380343346305     0.00806542035060     0.38081424988560
    7     0.05426900936441     0.01017053568388     0.39830789428753     0.00156646197529     1.31937111914986
    8     0.05426280596828     0.00977355156514     0.39841298497060     0.00154129772840     0.19866827440626
    9     0.02311368530347     0.00526661558378     0.19326376754909     0.00097547932509     0.41080123060464
   10     0.75633562226887     0.22967776969998     0.24328883171100     0.05489537483070     0.03713180612710
   11     0.75645659374297     0.22962751481965     0.24259026256646     0.05487339111695     0.06746079627658
   12     0.23392800210958     0.76784711238223     0.05619561628665     0.23443702290987     0.02070815150323
   13     0.23391341626552     0.76766307939010     0.05600378912315     0.23468132499449     0.01059220466924
   14     0.05502624590888     0.25543271848948     0.00602663967098     0.83849261606144     0.00145386062675
   15     0.03639158809707     0.25855664452922     0.00454216794510     0.84829277732898     0.00110249213293
   16     0.05520907289019     0.25529969890462     0.00604796585782     0.83894164180690     0.00130308694945
   17     0.07205359467445     0.01572310784797     0.29667101834974     0.00211774916140     0.81454053685537
   18     0.07274673321161     0.01417331138098     0.29746291163568     0.00188888512190     0.04930518432332
   19     0.00501670937346     0.00109122812707     0.05266588767837     0.00015947855494     0.31515955082925
   20     0.00500861208598     0.00104511273241     0.05263847944658     0.00015884209695     0.02202432504596
   21     0.00339141427476     0.00086863503242     0.02117703014372     0.00021604284172     0.05382158731020

                 6                   7                   8                   9                  10

    1     0.29626399715198     0.05426900936441     0.05426280596828     0.02311368530347     0.75633562226887
    2     0.05808850119425     0.01017053568388     0.00977355156514     0.00526661558378     0.22967776969998
    3     1.23380343346305     0.39830789428753     0.39841298497060     0.19326376754909     0.24328883171100
    4     0.00806542035060     0.00156646197529     0.00154129772840     0.00097547932509     0.05489537483070
    5     0.38081424988560     1.31937111914986     0.19866827440626     0.41080123060464     0.03713180612710
    6     0.00000000000000     0.19867343827945     1.31902192759410     0.41092883063440     0.06958929014135
    7     0.19867343827945     0.00000000000000     0.41459658918679     1.32976094673502     0.00466494155116
    8     1.31902192759410     0.41459658918679     0.00000000000000     1.33053075715286     0.00884562590097
    9     0.41092883063440     1.32976094673502     1.33053075715286     0.00000000000000     0.00270397859675
   10     0.06958929014135     0.00466494155116     0.00884562590097     0.00270397859675     0.00000000000000
   11     0.03741720993378     0.00852824112631     0.00471365312683     0.00275631807757     0.23198839317394
   12     0.00991833052821     0.00364227108462     0.00181173913135     0.00137372074705     0.02815292386557
   13     0.01836989441990     0.00183390660159     0.00322312152625     0.00131854302759     0.03826934803715
   14     0.00124938521402     0.00020917840621     0.00026208939501     0.00013089765963     0.00908043508705
   15     0.00107473061168     0.00025308622112     0.00025511595786     0.00019942198097     0.00514200889776
   16     0.00140514280482     0.00026681705115     0.00020327768767     0.00012897361819     0.01753654251466
   17     0.04917730751518     0.30527555892359     0.02101813444313     0.05230751156862     0.00598952195737
   18     0.81539509092090     0.02106120834791     0.30537786096502     0.05234545501817     0.02616634004285
   19     0.02201232140871     0.84826648025680     0.05412210862477     0.31384793527490     0.00072790787855
   20     0.31493184999248     0.05415973814374     0.84825640006797     0.31405296849403     0.00083769781298
   21     0.05386604858752     0.31427939500143     0.31443537692800     0.84988341560158     0.00049087072314

                11                  12                  13                  14                  15

    1     0.75645659374297     0.23392800210958     0.23391341626552     0.05502624590888     0.03639158809707
    2     0.22962751481965     0.76784711238223     0.76766307939010     0.25543271848948     0.25855664452922
    3     0.24259026256646     0.05619561628665     0.05600378912315     0.00602663967098     0.00454216794510
    4     0.05487339111695     0.23443702290987     0.23468132499449     0.83849261606144     0.84829277732898
    5     0.06746079627658     0.02070815150323     0.01059220466924     0.00145386062675     0.00110249213293
    6     0.03741720993378     0.00991833052821     0.01836989441990     0.00124938521402     0.00107473061168
    7     0.00852824112631     0.00364227108462     0.00183390660159     0.00020917840621     0.00025308622112
    8     0.00471365312683     0.00181173913135     0.00322312152625     0.00026208939501     0.00025511595786
    9     0.00275631807757     0.00137372074705     0.00131854302759     0.00013089765963     0.00019942198097
   10     0.23198839317394     0.02815292386557     0.03826934803715     0.00908043508705     0.00514200889776
   11     0.00000000000000     0.03807002513910     0.02814239139324     0.01741955853061     0.00513164754312
   12     0.03807002513910     0.00000000000000     0.23753361487943     0.04022791104545     0.04231017088409
   13     0.02814239139324     0.23753361487943     0.00000000000000     0.02982193978467     0.04251463746494
   14     0.01741955853061     0.04022791104545     0.02982193978467     0.00000000000000     0.26421005152642
   15     0.00513164754312     0.04231017088409     0.04251463746494     0.26421005152642     0.00000000000000
   16     0.00915537058364     0.02975644017355     0.04011054449973     0.26138269651975     0.26436582488527
   17     0.02422086312819     0.00651688808093     0.00192247826213     0.00048072652980     0.00024246674144
   18     0.00624729438266     0.00164570063475     0.00512357215073     0.00029606991854     0.00022352619648
   19     0.00080537997188     0.00040127037060     0.00023716232819     0.00002985582673     0.00002715025645
   20     0.00071117705327     0.00024808095258     0.00034669946285     0.00005015759509     0.00002796294097
   21     0.00050912024699     0.00024442405094     0.00024139681266     0.00003175408988     0.00005145978096

                16                  17                  18                  19                  20

    1     0.05520907289019     0.07205359467445     0.07274673321161     0.00501670937346     0.00500861208598
    2     0.25529969890462     0.01572310784797     0.01417331138098     0.00109122812707     0.00104511273241
    3     0.00604796585782     0.29667101834974     0.29746291163568     0.05266588767837     0.05263847944658
    4     0.83894164180690     0.00211774916140     0.00188888512190     0.00015947855494     0.00015884209695
    5     0.00130308694945     0.81454053685537     0.04930518432332     0.31515955082925     0.02202432504596
    6     0.00140514280482     0.04917730751518     0.81539509092090     0.02201232140871     0.31493184999248
    7     0.00026681705115     0.30527555892359     0.02106120834791     0.84826648025680     0.05415973814374
    8     0.00020327768767     0.02101813444313     0.30537786096502     0.05412210862477     0.84825640006797
    9     0.00012897361819     0.05230751156862     0.05234545501817     0.31384793527490     0.31405296849403
   10     0.01753654251466     0.00598952195737     0.02616634004285     0.00072790787855     0.00083769781298
   11     0.00915537058364     0.02422086312819     0.00624729438266     0.00080537997188     0.00071117705327
   12     0.02975644017355     0.00651688808093     0.00164570063475     0.00040127037060     0.00024808095258
   13     0.04011054449973     0.00192247826213     0.00512357215073     0.00023716232819     0.00034669946285
   14     0.26138269651975     0.00048072652980     0.00029606991854     0.00002985582673     0.00005015759509
   15     0.26436582488527     0.00024246674144     0.00022352619648     0.00002715025645     0.00002796294097
   16     0.00000000000000     0.00032642243580     0.00045487179613     0.00005141753208     0.00002967708262
   17     0.00032642243580     0.00000000000000     0.00368825185106     0.06012572011983     0.00283696344557
   18     0.00045487179613     0.00368825185106     0.00000000000000     0.00284101972598     0.06007460416691
   19     0.00005141753208     0.06012572011983     0.00284101972598     0.00000000000000     0.00406190421761
   20     0.00002967708262     0.00283696344557     0.06007460416691     0.00406190421761     0.00000000000000
   21     0.00003106438021     0.00387882484247     0.00388312952265     0.06030452139835     0.06034566132342

                21

    1     0.00339141427476
    2     0.00086863503242
    3     0.02117703014372
    4     0.00021604284172
    5     0.05382158731020
    6     0.05386604858752
    7     0.31427939500143
    8     0.31443537692800
    9     0.84988341560158
   10     0.00049087072314
   11     0.00050912024699
   12     0.00024442405094
   13     0.00024139681266
   14     0.00003175408988
   15     0.00005145978096
   16     0.00003106438021
   17     0.00387882484247
   18     0.00388312952265
   19     0.06030452139835
   20     0.06034566132342
   21     0.00000000000000



  Atomic Valences: 

 #  #
 Irrep: 1
      1:  5.3120555
      2:  5.3165420
      3:  6.1102049
      4:  4.5230473
      5:  5.3029650
      6:  5.3000664
      7:  5.2891568
      8:  5.2893327
      9:  5.2956905
     10:  1.7715152
     11:  1.7668252
     12:  1.7549694
     13:  1.7518631
     14:  1.7813148
     15:  1.7749149
     16:  1.7820065
     17:  1.7391136
     18:  1.7404010
     19:  1.7419550
     20:  1.7418469
     21:  1.7419512


 Electrostatic potential computed on the grid and written to grid_esp.dat

    Psi4 stopped on: Wednesday, 02 June 2021 12:12AM
    Psi4 wall time for execution: 0:19:41.18

*** Psi4 exiting successfully. Buy a developer a beer!
