Generated by Psi4
        SP                        DF-MP2                      6-311G**
Number of atoms                            I               21
Charge                                     I                0
Multiplicity                               I                1
Number of electrons                        I               66
Number of alpha electrons                  I               33
Number of beta electrons                   I               33
Number of basis functions                  I              234
Number of independent functions            I              234
Atomic numbers                             I   N=          21
           6           6           6           6           6           6
           6           6           6           1           1           1
           1           1           1           1           1           1
           1           1           1
Nuclear charges                            R   N=          21
  6.00000000e+00  6.00000000e+00  6.00000000e+00  6.00000000e+00  6.00000000e+00
  6.00000000e+00  6.00000000e+00  6.00000000e+00  6.00000000e+00  1.00000000e+00
  1.00000000e+00  1.00000000e+00  1.00000000e+00  1.00000000e+00  1.00000000e+00
  1.00000000e+00  1.00000000e+00  1.00000000e+00  1.00000000e+00  1.00000000e+00
  1.00000000e+00
Current cartesian coordinates              R   N=          63
 -2.46060498e+00 -1.27241659e+00  1.20341351e+00 -4.42850003e+00 -9.35051492e-02
 -5.59869324e-01  1.80170359e-01 -4.34031794e-01  5.66237952e-01 -7.11462087e+00
 -9.28650631e-01  6.58338204e-02  1.16022551e+00  1.80936109e+00  1.56645814e+00
  1.66363517e+00 -1.80643044e+00 -1.13908725e+00  3.56474369e+00  2.65283555e+00
  8.97097986e-01  4.06994727e+00 -9.72789102e-01 -1.81594333e+00  5.02618854e+00
  1.26385251e+00 -8.01170431e-01 -2.58672180e+00 -3.33846694e+00  1.08356921e+00
 -2.90607412e+00 -7.62202138e-01  3.16372502e+00 -4.27675365e+00  1.96976288e+00
 -4.44518123e-01 -3.96210797e+00 -6.05634078e-01 -2.51386272e+00 -7.62358805e+00
 -3.80437576e-01  1.99518828e+00 -8.48864034e+00 -7.20516630e-02 -1.22153095e+00
 -7.30129282e+00 -2.98322629e+00 -8.08174600e-02  3.14295811e-02  2.89540318e+00
  2.90146777e+00  9.29079508e-01 -3.55861031e+00 -1.92948878e+00  4.30064904e+00
  4.39296809e+00  1.70442623e+00  5.20098147e+00 -2.07095609e+00 -3.13377224e+00
  6.90359805e+00  1.91507803e+00 -1.32162561e+00
Integer atomic weights                     I   N=          21
          12          12          12          12          12          12
          12          12          12           1           1           1
           1           1           1           1           1           1
           1           1           1
Real atomic weights                        R   N=          21
  1.20000000e+01  1.20000000e+01  1.20000000e+01  1.20000000e+01  1.20000000e+01
  1.20000000e+01  1.20000000e+01  1.20000000e+01  1.20000000e+01  1.00782503e+00
  1.00782503e+00  1.00782503e+00  1.00782503e+00  1.00782503e+00  1.00782503e+00
  1.00782503e+00  1.00782503e+00  1.00782503e+00  1.00782503e+00  1.00782503e+00
  1.00782503e+00
Number of primitive shells                 I              225
Number of contracted shells                I              120
Pure/Cartesian d shells                    I                0
Pure/Cartesian f shells                    I                0
Highest angular momentum                   I                2
Largest degree of contraction              I                6
Shell types                                I   N=         120
           0           0           1           0           1           0
           1          -2           0           0           1           0
           1           0           1          -2           0           0
           1           0           1           0           1          -2
           0           0           1           0           1           0
           1          -2           0           0           1           0
           1           0           1          -2           0           0
           1           0           1           0           1          -2
           0           0           1           0           1           0
           1          -2           0           0           1           0
           1           0           1          -2           0           0
           1           0           1           0           1          -2
           0           0           0           1           0           0
           0           1           0           0           0           1
           0           0           0           1           0           0
           0           1           0           0           0           1
           0           0           0           1           0           0
           0           1           0           0           0           1
           0           0           0           1           0           0
           0           1           0           0           0           1
Number of primitives per shell             I   N=         120
           6           3           3           1           1           1
           1           1           6           3           3           1
           1           1           1           1           6           3
           3           1           1           1           1           1
           6           3           3           1           1           1
           1           1           6           3           3           1
           1           1           1           1           6           3
           3           1           1           1           1           1
           6           3           3           1           1           1
           1           1           6           3           3           1
           1           1           1           1           6           3
           3           1           1           1           1           1
           3           1           1           1           3           1
           1           1           3           1           1           1
           3           1           1           1           3           1
           1           1           3           1           1           1
           3           1           1           1           3           1
           1           1           3           1           1           1
           3           1           1           1           3           1
           1           1           3           1           1           1
Shell to atom map                          I   N=         120
           1           1           1           1           1           1
           1           1           2           2           2           2
           2           2           2           2           3           3
           3           3           3           3           3           3
           4           4           4           4           4           4
           4           4           5           5           5           5
           5           5           5           5           6           6
           6           6           6           6           6           6
           7           7           7           7           7           7
           7           7           8           8           8           8
           8           8           8           8           9           9
           9           9           9           9           9           9
          10          10          10          10          11          11
          11          11          12          12          12          12
          13          13          13          13          14          14
          14          14          15          15          15          15
          16          16          16          16          17          17
          17          17          18          18          18          18
          19          19          19          19          20          20
          20          20          21          21          21          21
Primitive exponents                        R   N=         225
  4.56324000e+03  6.82024000e+02  1.54973000e+02  4.44553000e+01  1.30290000e+01
  1.82773000e+00  2.09642000e+01  4.80331000e+00  1.45933000e+00  2.09642000e+01
  4.80331000e+00  1.45933000e+00  4.83456000e-01  4.83456000e-01  1.45585000e-01
  1.45585000e-01  6.26000000e-01  4.56324000e+03  6.82024000e+02  1.54973000e+02
  4.44553000e+01  1.30290000e+01  1.82773000e+00  2.09642000e+01  4.80331000e+00
  1.45933000e+00  2.09642000e+01  4.80331000e+00  1.45933000e+00  4.83456000e-01
  4.83456000e-01  1.45585000e-01  1.45585000e-01  6.26000000e-01  4.56324000e+03
  6.82024000e+02  1.54973000e+02  4.44553000e+01  1.30290000e+01  1.82773000e+00
  2.09642000e+01  4.80331000e+00  1.45933000e+00  2.09642000e+01  4.80331000e+00
  1.45933000e+00  4.83456000e-01  4.83456000e-01  1.45585000e-01  1.45585000e-01
  6.26000000e-01  4.56324000e+03  6.82024000e+02  1.54973000e+02  4.44553000e+01
  1.30290000e+01  1.82773000e+00  2.09642000e+01  4.80331000e+00  1.45933000e+00
  2.09642000e+01  4.80331000e+00  1.45933000e+00  4.83456000e-01  4.83456000e-01
  1.45585000e-01  1.45585000e-01  6.26000000e-01  4.56324000e+03  6.82024000e+02
  1.54973000e+02  4.44553000e+01  1.30290000e+01  1.82773000e+00  2.09642000e+01
  4.80331000e+00  1.45933000e+00  2.09642000e+01  4.80331000e+00  1.45933000e+00
  4.83456000e-01  4.83456000e-01  1.45585000e-01  1.45585000e-01  6.26000000e-01
  4.56324000e+03  6.82024000e+02  1.54973000e+02  4.44553000e+01  1.30290000e+01
  1.82773000e+00  2.09642000e+01  4.80331000e+00  1.45933000e+00  2.09642000e+01
  4.80331000e+00  1.45933000e+00  4.83456000e-01  4.83456000e-01  1.45585000e-01
  1.45585000e-01  6.26000000e-01  4.56324000e+03  6.82024000e+02  1.54973000e+02
  4.44553000e+01  1.30290000e+01  1.82773000e+00  2.09642000e+01  4.80331000e+00
  1.45933000e+00  2.09642000e+01  4.80331000e+00  1.45933000e+00  4.83456000e-01
  4.83456000e-01  1.45585000e-01  1.45585000e-01  6.26000000e-01  4.56324000e+03
  6.82024000e+02  1.54973000e+02  4.44553000e+01  1.30290000e+01  1.82773000e+00
  2.09642000e+01  4.80331000e+00  1.45933000e+00  2.09642000e+01  4.80331000e+00
  1.45933000e+00  4.83456000e-01  4.83456000e-01  1.45585000e-01  1.45585000e-01
  6.26000000e-01  4.56324000e+03  6.82024000e+02  1.54973000e+02  4.44553000e+01
  1.30290000e+01  1.82773000e+00  2.09642000e+01  4.80331000e+00  1.45933000e+00
  2.09642000e+01  4.80331000e+00  1.45933000e+00  4.83456000e-01  4.83456000e-01
  1.45585000e-01  1.45585000e-01  6.26000000e-01  3.38650000e+01  5.09479000e+00
  1.15879000e+00  3.25840000e-01  1.02741000e-01  7.50000000e-01  3.38650000e+01
  5.09479000e+00  1.15879000e+00  3.25840000e-01  1.02741000e-01  7.50000000e-01
  3.38650000e+01  5.09479000e+00  1.15879000e+00  3.25840000e-01  1.02741000e-01
  7.50000000e-01  3.38650000e+01  5.09479000e+00  1.15879000e+00  3.25840000e-01
  1.02741000e-01  7.50000000e-01  3.38650000e+01  5.09479000e+00  1.15879000e+00
  3.25840000e-01  1.02741000e-01  7.50000000e-01  3.38650000e+01  5.09479000e+00
  1.15879000e+00  3.25840000e-01  1.02741000e-01  7.50000000e-01  3.38650000e+01
  5.09479000e+00  1.15879000e+00  3.25840000e-01  1.02741000e-01  7.50000000e-01
  3.38650000e+01  5.09479000e+00  1.15879000e+00  3.25840000e-01  1.02741000e-01
  7.50000000e-01  3.38650000e+01  5.09479000e+00  1.15879000e+00  3.25840000e-01
  1.02741000e-01  7.50000000e-01  3.38650000e+01  5.09479000e+00  1.15879000e+00
  3.25840000e-01  1.02741000e-01  7.50000000e-01  3.38650000e+01  5.09479000e+00
  1.15879000e+00  3.25840000e-01  1.02741000e-01  7.50000000e-01  3.38650000e+01
  5.09479000e+00  1.15879000e+00  3.25840000e-01  1.02741000e-01  7.50000000e-01
Contraction coefficients                   R   N=         225
  1.96665025e-03  1.52306019e-02  7.61269097e-02  2.60801033e-01  6.16462078e-01
  2.21006028e-01  1.14660081e-01  9.19999648e-01 -3.03068213e-03  4.02486927e-02
  2.37593957e-01  8.15853851e-01  1.00000000e+00  1.00000000e+00  1.00000000e+00
  1.00000000e+00  1.00000000e+00  1.96665025e-03  1.52306019e-02  7.61269097e-02
  2.60801033e-01  6.16462078e-01  2.21006028e-01  1.14660081e-01  9.19999648e-01
 -3.03068213e-03  4.02486927e-02  2.37593957e-01  8.15853851e-01  1.00000000e+00
  1.00000000e+00  1.00000000e+00  1.00000000e+00  1.00000000e+00  1.96665025e-03
  1.52306019e-02  7.61269097e-02  2.60801033e-01  6.16462078e-01  2.21006028e-01
  1.14660081e-01  9.19999648e-01 -3.03068213e-03  4.02486927e-02  2.37593957e-01
  8.15853851e-01  1.00000000e+00  1.00000000e+00  1.00000000e+00  1.00000000e+00
  1.00000000e+00  1.96665025e-03  1.52306019e-02  7.61269097e-02  2.60801033e-01
  6.16462078e-01  2.21006028e-01  1.14660081e-01  9.19999648e-01 -3.03068213e-03
  4.02486927e-02  2.37593957e-01  8.15853851e-01  1.00000000e+00  1.00000000e+00
  1.00000000e+00  1.00000000e+00  1.00000000e+00  1.96665025e-03  1.52306019e-02
  7.61269097e-02  2.60801033e-01  6.16462078e-01  2.21006028e-01  1.14660081e-01
  9.19999648e-01 -3.03068213e-03  4.02486927e-02  2.37593957e-01  8.15853851e-01
  1.00000000e+00  1.00000000e+00  1.00000000e+00  1.00000000e+00  1.00000000e+00
  1.96665025e-03  1.52306019e-02  7.61269097e-02  2.60801033e-01  6.16462078e-01
  2.21006028e-01  1.14660081e-01  9.19999648e-01 -3.03068213e-03  4.02486927e-02
  2.37593957e-01  8.15853851e-01  1.00000000e+00  1.00000000e+00  1.00000000e+00
  1.00000000e+00  1.00000000e+00  1.96665025e-03  1.52306019e-02  7.61269097e-02
  2.60801033e-01  6.16462078e-01  2.21006028e-01  1.14660081e-01  9.19999648e-01
 -3.03068213e-03  4.02486927e-02  2.37593957e-01  8.15853851e-01  1.00000000e+00
  1.00000000e+00  1.00000000e+00  1.00000000e+00  1.00000000e+00  1.96665025e-03
  1.52306019e-02  7.61269097e-02  2.60801033e-01  6.16462078e-01  2.21006028e-01
  1.14660081e-01  9.19999648e-01 -3.03068213e-03  4.02486927e-02  2.37593957e-01
  8.15853851e-01  1.00000000e+00  1.00000000e+00  1.00000000e+00  1.00000000e+00
  1.00000000e+00  1.96665025e-03  1.52306019e-02  7.61269097e-02  2.60801033e-01
  6.16462078e-01  2.21006028e-01  1.14660081e-01  9.19999648e-01 -3.03068213e-03
  4.02486927e-02  2.37593957e-01  8.15853851e-01  1.00000000e+00  1.00000000e+00
  1.00000000e+00  1.00000000e+00  1.00000000e+00  2.54938145e-02  1.90373109e-01
  8.52161486e-01  1.00000000e+00  1.00000000e+00  1.00000000e+00  2.54938145e-02
  1.90373109e-01  8.52161486e-01  1.00000000e+00  1.00000000e+00  1.00000000e+00
  2.54938145e-02  1.90373109e-01  8.52161486e-01  1.00000000e+00  1.00000000e+00
  1.00000000e+00  2.54938145e-02  1.90373109e-01  8.52161486e-01  1.00000000e+00
  1.00000000e+00  1.00000000e+00  2.54938145e-02  1.90373109e-01  8.52161486e-01
  1.00000000e+00  1.00000000e+00  1.00000000e+00  2.54938145e-02  1.90373109e-01
  8.52161486e-01  1.00000000e+00  1.00000000e+00  1.00000000e+00  2.54938145e-02
  1.90373109e-01  8.52161486e-01  1.00000000e+00  1.00000000e+00  1.00000000e+00
  2.54938145e-02  1.90373109e-01  8.52161486e-01  1.00000000e+00  1.00000000e+00
  1.00000000e+00  2.54938145e-02  1.90373109e-01  8.52161486e-01  1.00000000e+00
  1.00000000e+00  1.00000000e+00  2.54938145e-02  1.90373109e-01  8.52161486e-01
  1.00000000e+00  1.00000000e+00  1.00000000e+00  2.54938145e-02  1.90373109e-01
  8.52161486e-01  1.00000000e+00  1.00000000e+00  1.00000000e+00  2.54938145e-02
  1.90373109e-01  8.52161486e-01  1.00000000e+00  1.00000000e+00  1.00000000e+00
Coordinates of each shell                  R   N=         360
 -2.46060498e+00 -1.27241659e+00  1.20341351e+00 -2.46060498e+00 -1.27241659e+00
  1.20341351e+00 -2.46060498e+00 -1.27241659e+00  1.20341351e+00 -2.46060498e+00
 -1.27241659e+00  1.20341351e+00 -2.46060498e+00 -1.27241659e+00  1.20341351e+00
 -2.46060498e+00 -1.27241659e+00  1.20341351e+00 -2.46060498e+00 -1.27241659e+00
  1.20341351e+00 -2.46060498e+00 -1.27241659e+00  1.20341351e+00 -4.42850003e+00
 -9.35051492e-02 -5.59869324e-01 -4.42850003e+00 -9.35051492e-02 -5.59869324e-01
 -4.42850003e+00 -9.35051492e-02 -5.59869324e-01 -4.42850003e+00 -9.35051492e-02
 -5.59869324e-01 -4.42850003e+00 -9.35051492e-02 -5.59869324e-01 -4.42850003e+00
 -9.35051492e-02 -5.59869324e-01 -4.42850003e+00 -9.35051492e-02 -5.59869324e-01
 -4.42850003e+00 -9.35051492e-02 -5.59869324e-01  1.80170359e-01 -4.34031794e-01
  5.66237952e-01  1.80170359e-01 -4.34031794e-01  5.66237952e-01  1.80170359e-01
 -4.34031794e-01  5.66237952e-01  1.80170359e-01 -4.34031794e-01  5.66237952e-01
  1.80170359e-01 -4.34031794e-01  5.66237952e-01  1.80170359e-01 -4.34031794e-01
  5.66237952e-01  1.80170359e-01 -4.34031794e-01  5.66237952e-01  1.80170359e-01
 -4.34031794e-01  5.66237952e-01 -7.11462087e+00 -9.28650631e-01  6.58338204e-02
 -7.11462087e+00 -9.28650631e-01  6.58338204e-02 -7.11462087e+00 -9.28650631e-01
  6.58338204e-02 -7.11462087e+00 -9.28650631e-01  6.58338204e-02 -7.11462087e+00
 -9.28650631e-01  6.58338204e-02 -7.11462087e+00 -9.28650631e-01  6.58338204e-02
 -7.11462087e+00 -9.28650631e-01  6.58338204e-02 -7.11462087e+00 -9.28650631e-01
  6.58338204e-02  1.16022551e+00  1.80936109e+00  1.56645814e+00  1.16022551e+00
  1.80936109e+00  1.56645814e+00  1.16022551e+00  1.80936109e+00  1.56645814e+00
  1.16022551e+00  1.80936109e+00  1.56645814e+00  1.16022551e+00  1.80936109e+00
  1.56645814e+00  1.16022551e+00  1.80936109e+00  1.56645814e+00  1.16022551e+00
  1.80936109e+00  1.56645814e+00  1.16022551e+00  1.80936109e+00  1.56645814e+00
  1.66363517e+00 -1.80643044e+00 -1.13908725e+00  1.66363517e+00 -1.80643044e+00
 -1.13908725e+00  1.66363517e+00 -1.80643044e+00 -1.13908725e+00  1.66363517e+00
 -1.80643044e+00 -1.13908725e+00  1.66363517e+00 -1.80643044e+00 -1.13908725e+00
  1.66363517e+00 -1.80643044e+00 -1.13908725e+00  1.66363517e+00 -1.80643044e+00
 -1.13908725e+00  1.66363517e+00 -1.80643044e+00 -1.13908725e+00  3.56474369e+00
  2.65283555e+00  8.97097986e-01  3.56474369e+00  2.65283555e+00  8.97097986e-01
  3.56474369e+00  2.65283555e+00  8.97097986e-01  3.56474369e+00  2.65283555e+00
  8.97097986e-01  3.56474369e+00  2.65283555e+00  8.97097986e-01  3.56474369e+00
  2.65283555e+00  8.97097986e-01  3.56474369e+00  2.65283555e+00  8.97097986e-01
  3.56474369e+00  2.65283555e+00  8.97097986e-01  4.06994727e+00 -9.72789102e-01
 -1.81594333e+00  4.06994727e+00 -9.72789102e-01 -1.81594333e+00  4.06994727e+00
 -9.72789102e-01 -1.81594333e+00  4.06994727e+00 -9.72789102e-01 -1.81594333e+00
  4.06994727e+00 -9.72789102e-01 -1.81594333e+00  4.06994727e+00 -9.72789102e-01
 -1.81594333e+00  4.06994727e+00 -9.72789102e-01 -1.81594333e+00  4.06994727e+00
 -9.72789102e-01 -1.81594333e+00  5.02618854e+00  1.26385251e+00 -8.01170431e-01
  5.02618854e+00  1.26385251e+00 -8.01170431e-01  5.02618854e+00  1.26385251e+00
 -8.01170431e-01  5.02618854e+00  1.26385251e+00 -8.01170431e-01  5.02618854e+00
  1.26385251e+00 -8.01170431e-01  5.02618854e+00  1.26385251e+00 -8.01170431e-01
  5.02618854e+00  1.26385251e+00 -8.01170431e-01  5.02618854e+00  1.26385251e+00
 -8.01170431e-01 -2.58672180e+00 -3.33846694e+00  1.08356921e+00 -2.58672180e+00
 -3.33846694e+00  1.08356921e+00 -2.58672180e+00 -3.33846694e+00  1.08356921e+00
 -2.58672180e+00 -3.33846694e+00  1.08356921e+00 -2.90607412e+00 -7.62202138e-01
  3.16372502e+00 -2.90607412e+00 -7.62202138e-01  3.16372502e+00 -2.90607412e+00
 -7.62202138e-01  3.16372502e+00 -2.90607412e+00 -7.62202138e-01  3.16372502e+00
 -4.27675365e+00  1.96976288e+00 -4.44518123e-01 -4.27675365e+00  1.96976288e+00
 -4.44518123e-01 -4.27675365e+00  1.96976288e+00 -4.44518123e-01 -4.27675365e+00
  1.96976288e+00 -4.44518123e-01 -3.96210797e+00 -6.05634078e-01 -2.51386272e+00
 -3.96210797e+00 -6.05634078e-01 -2.51386272e+00 -3.96210797e+00 -6.05634078e-01
 -2.51386272e+00 -3.96210797e+00 -6.05634078e-01 -2.51386272e+00 -7.62358805e+00
 -3.80437576e-01  1.99518828e+00 -7.62358805e+00 -3.80437576e-01  1.99518828e+00
 -7.62358805e+00 -3.80437576e-01  1.99518828e+00 -7.62358805e+00 -3.80437576e-01
  1.99518828e+00 -8.48864034e+00 -7.20516630e-02 -1.22153095e+00 -8.48864034e+00
 -7.20516630e-02 -1.22153095e+00 -8.48864034e+00 -7.20516630e-02 -1.22153095e+00
 -8.48864034e+00 -7.20516630e-02 -1.22153095e+00 -7.30129282e+00 -2.98322629e+00
 -8.08174600e-02 -7.30129282e+00 -2.98322629e+00 -8.08174600e-02 -7.30129282e+00
 -2.98322629e+00 -8.08174600e-02 -7.30129282e+00 -2.98322629e+00 -8.08174600e-02
  3.14295811e-02  2.89540318e+00  2.90146777e+00  3.14295811e-02  2.89540318e+00
  2.90146777e+00  3.14295811e-02  2.89540318e+00  2.90146777e+00  3.14295811e-02
  2.89540318e+00  2.90146777e+00  9.29079508e-01 -3.55861031e+00 -1.92948878e+00
  9.29079508e-01 -3.55861031e+00 -1.92948878e+00  9.29079508e-01 -3.55861031e+00
 -1.92948878e+00  9.29079508e-01 -3.55861031e+00 -1.92948878e+00  4.30064904e+00
  4.39296809e+00  1.70442623e+00  4.30064904e+00  4.39296809e+00  1.70442623e+00
  4.30064904e+00  4.39296809e+00  1.70442623e+00  4.30064904e+00  4.39296809e+00
  1.70442623e+00  5.20098147e+00 -2.07095609e+00 -3.13377224e+00  5.20098147e+00
 -2.07095609e+00 -3.13377224e+00  5.20098147e+00 -2.07095609e+00 -3.13377224e+00
  5.20098147e+00 -2.07095609e+00 -3.13377224e+00  6.90359805e+00  1.91507803e+00
 -1.32162561e+00  6.90359805e+00  1.91507803e+00 -1.32162561e+00  6.90359805e+00
  1.91507803e+00 -1.32162561e+00  6.90359805e+00  1.91507803e+00 -1.32162561e+00
Total Energy                               R     -3.491692786962419e+02
Alpha Orbital Energies                     R   N=         234
 -1.12363772e+01 -1.12322518e+01 -1.12320775e+01 -1.12283217e+01 -1.12277979e+01
 -1.12276860e+01 -1.12250100e+01 -1.12210177e+01 -1.12139572e+01 -1.15145212e+00
 -1.07494438e+00 -1.01118862e+00 -1.00898195e+00 -9.21815223e-01 -8.22797433e-01
 -8.20422603e-01 -7.83157487e-01 -6.90468444e-01 -6.46498399e-01 -6.32840170e-01
 -6.05586677e-01 -5.88341142e-01 -5.80573450e-01 -5.65866009e-01 -5.29117999e-01
 -5.24910737e-01 -4.95797628e-01 -4.87374852e-01 -4.74707783e-01 -4.68110096e-01
 -4.65255749e-01 -3.31960020e-01 -3.21053162e-01  1.33433183e-01  1.36473976e-01
  1.53393067e-01  1.65441677e-01  1.74637914e-01  1.90699516e-01  1.97307407e-01
  2.02931211e-01  2.22660317e-01  2.41452743e-01  2.47709935e-01  2.58546200e-01
  2.61424291e-01  2.86757478e-01  3.35280146e-01  3.57186461e-01  3.95774472e-01
  4.09014396e-01  4.33031598e-01  4.41955854e-01  4.54713361e-01  4.56913453e-01
  4.60165439e-01  4.72229674e-01  4.97282035e-01  5.01878612e-01  5.39534369e-01
  5.50039942e-01  5.83037185e-01  5.89696871e-01  5.94563475e-01  6.11403697e-01
  6.31823728e-01  6.38230837e-01  6.39935380e-01  6.61108793e-01  6.81119774e-01
  6.95081571e-01  7.14185012e-01  7.51897660e-01  7.54246039e-01  7.72549437e-01
  7.97923417e-01  8.03677856e-01  8.08457666e-01  8.13123434e-01  8.16320650e-01
  8.19461806e-01  8.21642069e-01  8.31397436e-01  8.35475266e-01  8.43337327e-01
  8.46090299e-01  8.63953852e-01  8.70610869e-01  8.87245858e-01  8.94694315e-01
  9.16499252e-01  9.40488031e-01  9.66491564e-01  1.01614199e+00  1.03703474e+00
  1.06965580e+00  1.07676212e+00  1.08597311e+00  1.12326970e+00  1.13077489e+00
  1.15189524e+00  1.19673909e+00  1.21550813e+00  1.25621775e+00  1.25785829e+00
  1.26989434e+00  1.29693088e+00  1.32908614e+00  1.36703800e+00  1.36985310e+00
  1.40518716e+00  1.42262648e+00  1.46715900e+00  1.50832654e+00  1.59449499e+00
  1.60764599e+00  1.63681862e+00  1.67468308e+00  1.70489251e+00  1.72200356e+00
  1.72613458e+00  1.74856219e+00  1.74954760e+00  1.78043196e+00  1.79374636e+00
  1.79784556e+00  1.82289544e+00  1.82393536e+00  1.83175891e+00  1.84042418e+00
  1.85238291e+00  1.87262697e+00  1.87776982e+00  1.92938890e+00  1.93552123e+00
  1.95923284e+00  1.99042271e+00  1.99436297e+00  2.00152229e+00  2.02405260e+00
  2.02832092e+00  2.03493686e+00  2.05771676e+00  2.07603695e+00  2.10282623e+00
  2.14932095e+00  2.18818400e+00  2.19390202e+00  2.20821302e+00  2.21192916e+00
  2.21751094e+00  2.23502383e+00  2.24243421e+00  2.27258951e+00  2.29796688e+00
  2.34275681e+00  2.37288466e+00  2.38061435e+00  2.38465131e+00  2.39563977e+00
  2.46086385e+00  2.48706250e+00  2.51709855e+00  2.58453660e+00  2.60743138e+00
  2.61213387e+00  2.63925372e+00  2.65481178e+00  2.67137304e+00  2.68032572e+00
  2.72399042e+00  2.72709623e+00  2.76562299e+00  2.77957168e+00  2.82083477e+00
  2.83295046e+00  2.87087211e+00  2.89762856e+00  2.91363022e+00  2.91692234e+00
  2.91849995e+00  2.94445767e+00  2.94558429e+00  2.95373308e+00  2.96033734e+00
  2.96564743e+00  2.99130744e+00  2.99728079e+00  3.02659235e+00  3.04090184e+00
  3.04529748e+00  3.07779785e+00  3.11040258e+00  3.14313129e+00  3.14988499e+00
  3.17420169e+00  3.19618232e+00  3.22274694e+00  3.26831436e+00  3.28418239e+00
  3.30510445e+00  3.31057639e+00  3.42057515e+00  3.47507870e+00  3.59220877e+00
  3.63215785e+00  3.75391785e+00  3.77561507e+00  3.78974802e+00  3.89058608e+00
  3.90295906e+00  4.01187786e+00  4.07775646e+00  4.19056772e+00  4.20240113e+00
  4.22052353e+00  4.25909930e+00  4.37559501e+00  4.43695898e+00  4.53701414e+00
  4.54214019e+00  4.55024082e+00  4.71922742e+00  4.79482852e+00  5.27750987e+00
  2.46954992e+01  2.50229825e+01  2.50583800e+01  2.50921335e+01  2.51030233e+01
  2.51203637e+01  2.52507908e+01  2.52628545e+01  2.53567728e+01
Alpha MO coefficients                      R   N=       54756
  1.65700425e-02  1.36502270e-02  1.22291171e-04  3.55795474e-05 -2.64267918e-05
  5.35915360e-04  3.32448208e-04  1.35296359e-04 -1.11813286e-04 -9.19062897e-04
  1.39270189e-04 -2.33605070e-04  3.28361570e-04 -6.24878208e-05 -4.07373049e-05
 -4.43005844e-05  1.22248940e-04  6.82050157e-05  1.63305536e-04  1.38791163e-04
  1.21050690e-06 -3.14837845e-06  3.57331138e-06 -1.07791457e-04 -1.83208737e-05
  1.96855915e-05 -2.62485670e-05  9.01084341e-04  7.00536050e-04 -1.32472702e-05
  9.83287290e-05  9.37093118e-06  1.48284906e-05  9.37166283e-06 -1.32197316e-05
 -1.60869375e-05  5.60264909e-01  4.64004494e-01 -9.60194317e-05 -4.25060246e-05
  4.15938094e-05  4.28966841e-03  2.21455435e-04  1.27665216e-04 -1.27839524e-04
 -1.01346038e-03 -4.47692002e-05 -1.50865707e-04  1.44147354e-04 -9.97071425e-05
 -1.59020980e-04  3.34551575e-04 -5.88968939e-05  6.65624897e-05  3.00086398e-05
  2.48689393e-05  3.39237135e-06  9.91681297e-07 -7.35975653e-07 -1.53799661e-05
 -9.15703985e-06 -2.25043915e-06  2.01370427e-06  2.85108838e-04  1.00014906e-04
  7.94566294e-05 -6.59539147e-05 -1.79158084e-07  1.75965494e-06 -6.39939896e-06
  4.21008512e-06  7.13404248e-07  3.93656093e-02  3.25446984e-02 -8.21803331e-05
 -1.80937239e-04 -7.60676913e-05  5.43720767e-04 -3.65462680e-05 -9.16329324e-05
 -5.71511280e-05  2.96117972e-04 -1.59159745e-04 -1.95413035e-04 -1.12035849e-04
 -1.21664527e-06  7.15576536e-05  4.44495839e-06 -4.85471453e-05  4.36834338e-05
  3.95104139e-02  3.26650554e-02 -1.23036621e-04  1.06762703e-04  1.38403880e-04
  5.41806997e-04 -5.36934520e-05  6.70663014e-05  6.40732425e-05  2.69011142e-04
 -1.93373590e-04  1.34954326e-04  1.15923271e-04  3.01370150e-05 -3.16374370e-05
  1.48097976e-06  7.19964468e-06 -8.48520123e-05  4.66586527e-03  3.86048278e-03
 -1.20463483e-05  1.36836348e-06  6.44564870e-06  5.39366260e-05 -6.17065154e-06
 -1.27607772e-05 -2.54080127e-06  7.38343094e-06 -2.05995109e-05  5.25670373e-05
  6.18827112e-05 -7.77558582e-06  1.50343153e-05 -2.39363635e-06 -6.40606005e-06
  2.32373723e-05  4.64190233e-03  3.84064839e-03 -1.07589180e-05 -8.79212727e-06
 -7.91273878e-07  5.42218238e-05 -8.22922110e-06  5.46841656e-06  9.55551173e-06
  2.95233989e-06  6.72715518e-06 -7.51748889e-05 -3.22071204e-05  5.31269573e-06
 -1.86289429e-05 -2.65624735e-06  1.23910070e-05 -1.85071077e-05 -1.54046451e-05
 -1.28704227e-05 -7.00494890e-07  4.94421399e-07 -7.48183016e-07 -8.30707692e-07
  1.43243681e-06 -2.85622627e-06  3.86158508e-06  1.05690105e-04 -6.87360399e-05
 -1.11893853e-05  7.46304935e-06  1.07153400e-06 -6.06728588e-08  1.00956853e-05
 -6.98841978e-06 -2.94868418e-06  1.07446701e-05  1.41982371e-04 -5.92925880e-05
  6.16706944e-06  5.21146196e-05 -2.03433955e-05  8.86955066e-06  1.31355547e-04
 -5.07033717e-05  1.15604983e-05  1.16013793e-05 -5.13872790e-05  2.11122177e-05
 -2.41400996e-04 -1.32717181e-05 -3.29312521e-05  4.21385364e-05  1.28307554e-05
  2.26979512e-05 -2.55746786e-04 -8.76404753e-06 -2.32270190e-05 -2.52107260e-05
 -4.27256684e-05  4.64432783e-06 -2.41936906e-05  1.69636322e-05 -2.53151249e-06
 -5.93237397e-06  5.99811444e-06  2.18782651e-06 -4.23742649e-05  1.62963781e-05
  1.34417443e-06  4.13559894e-06 -6.52341091e-06  3.94270763e-06 -1.70692489e-05
  2.37925727e-05 -2.76149201e-06 -3.80654075e-06  6.20963944e-06  3.80775865e-05
 -4.03683756e-05  6.47410566e-05 -5.67289587e-06 -1.62768178e-05 -4.42792939e-06
  3.84965806e-05 -4.24612170e-05  6.99433665e-05 -9.10827616e-06  6.12484967e-06
  1.32677513e-05  4.03423032e-06 -1.74163404e-05 -3.79502915e-06 -6.25799803e-06
  3.57535769e-06  4.47077425e-06  4.02742034e-06 -1.82545710e-05 -5.13726744e-06
 -5.10785387e-06 -6.36004121e-06 -3.42869172e-06  2.09997572e-08  1.98019960e-05
  1.48292149e-05 -3.29627757e-06 -1.97584606e-06  1.90593367e-06  6.02468159e-04
  4.99838864e-04  6.15726568e-06  2.89788293e-06 -1.57441961e-06 -1.65920657e-05
 -1.31918153e-05 -8.37797644e-06  5.04790284e-06  2.34676703e-04  7.82769806e-05
  6.23935640e-05 -7.42058045e-05 -9.87485675e-07 -1.50182908e-06 -2.49041278e-06
  4.68058022e-06  3.24546019e-07  2.05312134e-05  1.70020296e-05  1.14979456e-06
 -1.19968982e-07  3.23694974e-07  1.05835023e-05 -1.61075205e-06 -1.84545659e-06
  2.81917419e-06 -1.16126569e-04 -7.82117918e-05  2.61360073e-06 -9.11461508e-06
 -9.07355708e-07 -1.45709993e-06 -7.13446604e-07  4.49538891e-07  1.53601953e-06
  1.34714176e-02  1.11704584e-02 -1.41928759e-05 -6.39821219e-06  7.43237936e-07
  1.46961802e-05 -6.24305912e-06 -9.76962310e-06  6.89810018e-06  7.39658581e-04
  3.49444612e-04  1.73026315e-04 -8.46452740e-05 -2.76495495e-07 -9.32242370e-06