MonoMethylPhosphate0H Gaussian SP Calculation on node37.bme.utexas.edu  
SP        RMP2-FC                                                     6-311G(d,p)         
Number of atoms                            I                9
Info1-9                                    I   N=           9
          22          20           0           0           0         110
           1           2           1
Charge                                     I               -2
Multiplicity                               I                1
Number of electrons                        I               58
Number of alpha electrons                  I               29
Number of beta electrons                   I               29
Number of basis functions                  I              134
Number of independent functions            I              134
Number of point charges in /Mol/           I                0
Number of translation vectors              I                0
Atomic numbers                             I   N=           9
          15           8           8           8           8           6
           1           1           1
Nuclear charges                            R   N=           9
  1.50000000E+01  8.00000000E+00  8.00000000E+00  8.00000000E+00  8.00000000E+00
  6.00000000E+00  1.00000000E+00  1.00000000E+00  1.00000000E+00
Current cartesian coordinates              R   N=          27
  9.83050652E-01 -1.05202944E-01  1.64784119E-03 -1.81255539E+00  1.53722418E+00
 -1.98383449E-02  2.88351421E+00  2.06709205E+00  1.80752305E-02  9.35421995E-01
 -1.66348056E+00 -2.43480819E+00  8.94513203E-01 -1.66680270E+00  2.43482519E+00
 -4.00914470E+00  6.47231201E-02 -2.67207275E-03 -4.09744404E+00 -1.21041872E+00
 -1.64397103E+00 -5.66262861E+00  1.31736588E+00 -6.03219479E-02 -4.13796544E+00
 -1.10950168E+00  1.70956909E+00
Force Field                                I                0
Int Atom Types                             I   N=           9
           0           0           0           0           0           0
           0           0           0
MM charges                                 R   N=           9
  0.00000000E+00  0.00000000E+00  0.00000000E+00  0.00000000E+00  0.00000000E+00
  0.00000000E+00  0.00000000E+00  0.00000000E+00  0.00000000E+00
Integer atomic weights                     I   N=           9
          31          16          16          16          16          12
           1           1           1
Real atomic weights                        R   N=           9
  3.09737634E+01  1.59949146E+01  1.59949146E+01  1.59949146E+01  1.59949146E+01
  1.20000000E+01  1.00782504E+00  1.00782504E+00  1.00782504E+00
Atom fragment info                         I   N=           9
           0           0           0           0           0           0
           0           0           0
Atom residue num                           I   N=           9
           0           0           0           0           0           0
           0           0           0
Nuclear spins                              I   N=           9
           1           0           0           0           0           0
           1           1           1
Nuclear ZEff                               R   N=           9
 -1.29400000E+01 -5.60000000E+00 -5.60000000E+00 -5.60000000E+00 -5.60000000E+00
 -3.60000000E+00 -1.00000000E+00 -1.00000000E+00 -1.00000000E+00
Nuclear QMom                               R   N=           9
  0.00000000E+00  0.00000000E+00  0.00000000E+00  0.00000000E+00  0.00000000E+00
  0.00000000E+00  0.00000000E+00  0.00000000E+00  0.00000000E+00
Nuclear GFac                               R   N=           9
  1.13160000E+00  0.00000000E+00  0.00000000E+00  0.00000000E+00  0.00000000E+00
  0.00000000E+00  2.79284600E+00  2.79284600E+00  2.79284600E+00
MicOpt                                     I   N=           9
          -1          -1          -1          -1          -1          -1
          -1          -1          -1
Number of contracted shells                I               49
Number of primitive shells                 I              101
Pure/Cartesian d shells                    I                0
Pure/Cartesian f shells                    I                0
Highest angular momentum                   I                2
Largest degree of contraction              I                6
Shell types                                I   N=          49
           0           0           0           0           0           0
           1           1           1           1           1          -2
           0          -1          -1          -1          -2           0
          -1          -1          -1          -2           0          -1
          -1          -1          -2           0          -1          -1
          -1          -2           0          -1          -1          -1
          -2           0           0           0           1           0
           0           0           1           0           0           0
           1
Number of primitives per shell             I   N=          49
           6           3           1           1           1           1
           4           2           1           1           1           1
           6           3           1           1           1           6
           3           1           1           1           6           3
           1           1           1           6           3           1
           1           1           6           3           1           1
           1           3           1           1           1           3
           1           1           1           3           1           1
           1
Shell to atom map                          I   N=          49
           1           1           1           1           1           1
           1           1           1           1           1           1
           2           2           2           2           2           3
           3           3           3           3           4           4
           4           4           4           5           5           5
           5           5           6           6           6           6
           6           7           7           7           7           8
           8           8           8           9           9           9
           9
Primitive exponents                        R   N=         101
  7.74924000E+04  1.16058000E+04  2.64596000E+03  7.54976000E+02  2.48755000E+02
  9.11565000E+01  9.11565000E+01  3.62257000E+01  1.52113000E+01  4.79417000E+00
  1.80793000E+00  3.56816000E-01  1.14783000E-01  3.84843000E+02  9.05521000E+01
  2.91339000E+01  1.08862000E+01  4.35259000E+00  1.77706000E+00  6.97005000E-01
  2.53532000E-01  6.84930000E-02  5.50000000E-01  8.58850000E+03  1.29723000E+03
  2.99296000E+02  8.73771000E+01  2.56789000E+01  3.74004000E+00  4.21175000E+01
  9.62837000E+00  2.85332000E+00  9.05661000E-01  2.55611000E-01  1.29200000E+00
  8.58850000E+03  1.29723000E+03  2.99296000E+02  8.73771000E+01  2.56789000E+01
  3.74004000E+00  4.21175000E+01  9.62837000E+00  2.85332000E+00  9.05661000E-01
  2.55611000E-01  1.29200000E+00  8.58850000E+03  1.29723000E+03  2.99296000E+02
  8.73771000E+01  2.56789000E+01  3.74004000E+00  4.21175000E+01  9.62837000E+00
  2.85332000E+00  9.05661000E-01  2.55611000E-01  1.29200000E+00  8.58850000E+03
  1.29723000E+03  2.99296000E+02  8.73771000E+01  2.56789000E+01  3.74004000E+00
  4.21175000E+01  9.62837000E+00  2.85332000E+00  9.05661000E-01  2.55611000E-01
  1.29200000E+00  4.56324000E+03  6.82024000E+02  1.54973000E+02  4.44553000E+01
  1.30290000E+01  1.82773000E+00  2.09642000E+01  4.80331000E+00  1.45933000E+00
  4.83456000E-01  1.45585000E-01  6.26000000E-01  3.38650000E+01  5.09479000E+00
  1.15879000E+00  3.25840000E-01  1.02741000E-01  7.50000000E-01  3.38650000E+01
  5.09479000E+00  1.15879000E+00  3.25840000E-01  1.02741000E-01  7.50000000E-01
  3.38650000E+01  5.09479000E+00  1.15879000E+00  3.25840000E-01  1.02741000E-01
  7.50000000E-01
Contraction coefficients                   R   N=         101
  7.81000147E-04  6.06800114E-03  3.11600059E-02  1.23431023E-01  3.78209071E-01
  5.63262106E-01  1.60255011E-01  6.27647045E-01  2.63849019E-01  1.00000000E+00
  1.00000000E+00  1.00000000E+00  1.00000000E+00  9.20599888E-03  6.98739915E-02
  2.92469964E-01  7.28102911E-01  6.28348873E-01  4.28043913E-01  1.00000000E+00
  1.00000000E+00  1.00000000E+00  1.00000000E+00  1.89515008E-03  1.43859006E-02
  7.07320031E-02  2.40001011E-01  5.94797026E-01  2.80802012E-01  1.13889012E-01
  9.20811101E-01 -3.27447036E-03  1.00000000E+00  1.00000000E+00  1.00000000E+00
  1.89515008E-03  1.43859006E-02  7.07320031E-02  2.40001011E-01  5.94797026E-01
  2.80802012E-01  1.13889012E-01  9.20811101E-01 -3.27447036E-03  1.00000000E+00
  1.00000000E+00  1.00000000E+00  1.89515008E-03  1.43859006E-02  7.07320031E-02
  2.40001011E-01  5.94797026E-01  2.80802012E-01  1.13889012E-01  9.20811101E-01
 -3.27447036E-03  1.00000000E+00  1.00000000E+00  1.00000000E+00  1.89515008E-03
  1.43859006E-02  7.07320031E-02  2.40001011E-01  5.94797026E-01  2.80802012E-01
  1.13889012E-01  9.20811101E-01 -3.27447036E-03  1.00000000E+00  1.00000000E+00
  1.00000000E+00  1.96665025E-03  1.52306019E-02  7.61269097E-02  2.60801033E-01
  6.16462078E-01  2.21006028E-01  1.14660081E-01  9.19999648E-01 -3.03068213E-03
  1.00000000E+00  1.00000000E+00  1.00000000E+00  2.54938145E-02  1.90373109E-01
  8.52161486E-01  1.00000000E+00  1.00000000E+00  1.00000000E+00  2.54938145E-02
  1.90373109E-01  8.52161486E-01  1.00000000E+00  1.00000000E+00  1.00000000E+00
  2.54938145E-02  1.90373109E-01  8.52161486E-01  1.00000000E+00  1.00000000E+00
  1.00000000E+00
P(S=P) Contraction coefficients            R   N=         101
  0.00000000E+00  0.00000000E+00  0.00000000E+00  0.00000000E+00  0.00000000E+00
  0.00000000E+00  0.00000000E+00  0.00000000E+00  0.00000000E+00  0.00000000E+00
  0.00000000E+00  0.00000000E+00  0.00000000E+00  0.00000000E+00  0.00000000E+00
  0.00000000E+00  0.00000000E+00  0.00000000E+00  0.00000000E+00  0.00000000E+00
  0.00000000E+00  0.00000000E+00  0.00000000E+00  0.00000000E+00  0.00000000E+00
  0.00000000E+00  0.00000000E+00  0.00000000E+00  0.00000000E+00  3.65113974E-02
  2.37152983E-01  8.19701941E-01  1.00000000E+00  1.00000000E+00  0.00000000E+00
  0.00000000E+00  0.00000000E+00  0.00000000E+00  0.00000000E+00  0.00000000E+00
  0.00000000E+00  3.65113974E-02  2.37152983E-01  8.19701941E-01  1.00000000E+00
  1.00000000E+00  0.00000000E+00  0.00000000E+00  0.00000000E+00  0.00000000E+00
  0.00000000E+00  0.00000000E+00  0.00000000E+00  3.65113974E-02  2.37152983E-01
  8.19701941E-01  1.00000000E+00  1.00000000E+00  0.00000000E+00  0.00000000E+00
  0.00000000E+00  0.00000000E+00  0.00000000E+00  0.00000000E+00  0.00000000E+00
  3.65113974E-02  2.37152983E-01  8.19701941E-01  1.00000000E+00  1.00000000E+00
  0.00000000E+00  0.00000000E+00  0.00000000E+00  0.00000000E+00  0.00000000E+00
  0.00000000E+00  0.00000000E+00  4.02486927E-02  2.37593957E-01  8.15853851E-01
  1.00000000E+00  1.00000000E+00  0.00000000E+00  0.00000000E+00  0.00000000E+00
  0.00000000E+00  0.00000000E+00  0.00000000E+00  0.00000000E+00  0.00000000E+00
  0.00000000E+00  0.00000000E+00  0.00000000E+00  0.00000000E+00  0.00000000E+00
  0.00000000E+00  0.00000000E+00  0.00000000E+00  0.00000000E+00  0.00000000E+00
  0.00000000E+00
Coordinates of each shell                  R   N=         147
  9.83050573E-01 -1.05202801E-01  1.64797617E-03  9.83050573E-01 -1.05202801E-01
  1.64797617E-03  9.83050573E-01 -1.05202801E-01  1.64797617E-03  9.83050573E-01
 -1.05202801E-01  1.64797617E-03  9.83050573E-01 -1.05202801E-01  1.64797617E-03
  9.83050573E-01 -1.05202801E-01  1.64797617E-03  9.83050573E-01 -1.05202801E-01
  1.64797617E-03  9.83050573E-01 -1.05202801E-01  1.64797617E-03  9.83050573E-01
 -1.05202801E-01  1.64797617E-03  9.83050573E-01 -1.05202801E-01  1.64797617E-03
  9.83050573E-01 -1.05202801E-01  1.64797617E-03  9.83050573E-01 -1.05202801E-01
  1.64797617E-03 -1.81255582E+00  1.53722372E+00 -1.98382100E-02 -1.81255582E+00
  1.53722372E+00 -1.98382100E-02 -1.81255582E+00  1.53722372E+00 -1.98382100E-02
 -1.81255582E+00  1.53722372E+00 -1.98382100E-02 -1.81255582E+00  1.53722372E+00
 -1.98382100E-02  2.88351367E+00  2.06709260E+00  1.80753654E-02  2.88351367E+00
  2.06709260E+00  1.80753654E-02  2.88351367E+00  2.06709260E+00  1.80753654E-02
  2.88351367E+00  2.06709260E+00  1.80753654E-02  2.88351367E+00  2.06709260E+00
  1.80753654E-02  9.35422248E-01 -1.66348043E+00 -2.43480805E+00  9.35422248E-01
 -1.66348043E+00 -2.43480805E+00  9.35422248E-01 -1.66348043E+00 -2.43480805E+00
  9.35422248E-01 -1.66348043E+00 -2.43480805E+00  9.35422248E-01 -1.66348043E+00
 -2.43480805E+00  8.94513458E-01 -1.66680258E+00  2.43482533E+00  8.94513458E-01
 -1.66680258E+00  2.43482533E+00  8.94513458E-01 -1.66680258E+00  2.43482533E+00
  8.94513458E-01 -1.66680258E+00  2.43482533E+00  8.94513458E-01 -1.66680258E+00
  2.43482533E+00 -4.00914481E+00  6.47221971E-02 -2.67193777E-03 -4.00914481E+00
  6.47221971E-02 -2.67193777E-03 -4.00914481E+00  6.47221971E-02 -2.67193777E-03
 -4.00914481E+00  6.47221971E-02 -2.67193777E-03 -4.00914481E+00  6.47221971E-02
 -2.67193777E-03 -4.09744388E+00 -1.21041966E+00 -1.64397089E+00 -4.09744388E+00
 -1.21041966E+00 -1.64397089E+00 -4.09744388E+00 -1.21041966E+00 -1.64397089E+00
 -4.09744388E+00 -1.21041966E+00 -1.64397089E+00 -5.66262899E+00  1.31736461E+00
 -6.03218129E-02 -5.66262899E+00  1.31736461E+00 -6.03218129E-02 -5.66262899E+00
  1.31736461E+00 -6.03218129E-02 -5.66262899E+00  1.31736461E+00 -6.03218129E-02
 -4.13796530E+00 -1.10950263E+00  1.70956923E+00 -4.13796530E+00 -1.10950263E+00
  1.70956923E+00 -4.13796530E+00 -1.10950263E+00  1.70956923E+00 -4.13796530E+00
 -1.10950263E+00  1.70956923E+00
Constraint Structure                       R   N=          27
  9.83050573E-01 -1.05202801E-01  1.64797617E-03 -1.81255582E+00  1.53722372E+00
 -1.98382100E-02  2.88351367E+00  2.06709260E+00  1.80753654E-02  9.35422248E-01
 -1.66348043E+00 -2.43480805E+00  8.94513458E-01 -1.66680258E+00  2.43482533E+00
 -4.00914481E+00  6.47221971E-02 -2.67193777E-03 -4.09744388E+00 -1.21041966E+00
 -1.64397089E+00 -5.66262899E+00  1.31736461E+00 -6.03218129E-02 -4.13796530E+00
 -1.10950263E+00  1.70956923E+00
Num ILSW                                   I              100
ILSW                                       I   N=         100
           0           0           0           0           2           0
           0           0           0           0           0 20132659200
           0           0           0           0           0           0
           0           0           0           0           0           0
           1           0           0           0           0           0
           0           0      100000           0          -1           0
           0           0           0           0           0           0
           0           0           0           1           0           0
           0           0           1           0           0           0
           0           0           4          40           0           0
           0           0           0           0           0           0
           0           0           0           0           0           0
           0           0           0           0           0           0
           0           0           0           0           0           0
           0           0           0           0           0           0
           0           0           0           0           0           0
           0           0           0           0
Num RLSW                                   I               40
RLSW                                       R   N=          40
  1.00000000E+00  1.00000000E+00  1.00000000E+00  1.00000000E+00  1.00000000E+00
  0.00000000E+00  0.00000000E+00  1.00000000E+00  0.00000000E+00  0.00000000E+00
  0.00000000E+00  0.00000000E+00  1.00000000E+00  0.00000000E+00  0.00000000E+00
  0.00000000E+00  0.00000000E+00  1.00000000E+00  0.00000000E+00  0.00000000E+00
  0.00000000E+00  0.00000000E+00  1.00000000E+00  0.00000000E+00  0.00000000E+00
  0.00000000E+00  0.00000000E+00  1.00000000E+00  0.00000000E+00  0.00000000E+00
  0.00000000E+00  0.00000000E+00  0.00000000E+00  0.00000000E+00  0.00000000E+00
  0.00000000E+00  0.00000000E+00  0.00000000E+00  1.00000000E+00  1.00000000E+00
MxBond                                     I                4
NBond                                      I   N=           9
           4           2           1           1           1           4
           1           1           1
IBond                                      I   N=          36
           2           3           4           5           1           6
           0           0           1           0           0           0
           1           0           0           0           1           0
           0           0           2           7           8           9
           6           0           0           0           6           0
           0           0           6           0           0           0
RBond                                      R   N=          36
  1.00000000E+00  2.00000000E+00  1.00000000E+00  1.00000000E+00  1.00000000E+00
  1.00000000E+00  0.00000000E+00  0.00000000E+00  2.00000000E+00  0.00000000E+00
  0.00000000E+00  0.00000000E+00  1.00000000E+00  0.00000000E+00  0.00000000E+00
  0.00000000E+00  1.00000000E+00  0.00000000E+00  0.00000000E+00  0.00000000E+00
  1.00000000E+00  1.00000000E+00  1.00000000E+00  1.00000000E+00  1.00000000E+00
  0.00000000E+00  0.00000000E+00  0.00000000E+00  1.00000000E+00  0.00000000E+00
  0.00000000E+00  0.00000000E+00  1.00000000E+00  0.00000000E+00  0.00000000E+00
  0.00000000E+00
Virial Ratio                               R      2.000004855295412E+00
SCF Energy                                 R     -6.798534879903223E+02
MP2 Energy                                 R     -6.809190803766039E+02
Total Energy                               R     -6.809190803766039E+02
Post-SCF wavefunction norm                 R      1.137334822019425E+00
RMS Density                                R      4.248837144909410E-09
External E-field                           R   N=          35
  0.00000000E+00  0.00000000E+00  0.00000000E+00  0.00000000E+00  0.00000000E+00
  0.00000000E+00  0.00000000E+00  0.00000000E+00  0.00000000E+00  0.00000000E+00
  0.00000000E+00  0.00000000E+00  0.00000000E+00  0.00000000E+00  0.00000000E+00
  0.00000000E+00  0.00000000E+00  0.00000000E+00  0.00000000E+00  0.00000000E+00
  0.00000000E+00  0.00000000E+00  0.00000000E+00  0.00000000E+00  0.00000000E+00
  0.00000000E+00  0.00000000E+00  0.00000000E+00  0.00000000E+00  0.00000000E+00
  0.00000000E+00  0.00000000E+00  0.00000000E+00  0.00000000E+00  0.00000000E+00
IOpCl                                      I                0
IROHF                                      I                0
Alpha Orbital Energies                     R   N=         134
 -7.96300309E+01 -2.01856668E+01 -2.00650112E+01 -2.00648561E+01 -2.00594899E+01
 -1.09651891E+01 -7.15239145E+00 -5.05143902E+00 -5.05005860E+00 -5.04984416E+00
 -1.00603637E+00 -8.94820676E-01 -8.22161028E-01 -8.19258433E-01 -6.03154734E-01
 -3.59250561E-01 -3.00806031E-01 -2.87747045E-01 -2.37995188E-01 -1.66817544E-01
 -1.63240377E-01 -1.40030490E-01 -9.76452502E-02 -5.76654621E-02 -5.49584283E-02
 -5.36498914E-02 -1.31924532E-02 -1.22404250E-02  2.01869283E-02  4.30738378E-01
  4.96148996E-01  5.24636952E-01  6.05943074E-01  6.13284323E-01  6.38565196E-01
  6.39692140E-01  7.62571742E-01  7.64519242E-01  8.14053874E-01  8.20898826E-01
  9.08460262E-01  9.41076431E-01  1.00202905E+00  1.02935879E+00  1.07518903E+00
  1.07879106E+00  1.09703682E+00  1.20661451E+00  1.32203937E+00  1.33072290E+00
  1.36675031E+00  1.36783825E+00  1.39919910E+00  1.44682586E+00  1.45106809E+00
  1.50662852E+00  1.59382238E+00  1.60549347E+00  1.61176536E+00  1.63958183E+00
  1.65329627E+00  1.68812972E+00  1.70365619E+00  1.72132304E+00  1.84079052E+00
  1.87292576E+00  1.87849307E+00  1.97103239E+00  1.99602830E+00  2.01921036E+00
  2.04119042E+00  2.06475443E+00  2.12481602E+00  2.19023501E+00  2.21036757E+00
  2.23527018E+00  2.32712799E+00  2.39000084E+00  2.39825156E+00  2.49099312E+00
  2.61422887E+00  2.70247359E+00  2.72480544E+00  2.94295064E+00  3.01801549E+00
  3.10105516E+00  3.11775240E+00  3.12288649E+00  3.40215566E+00  3.58477483E+00
  3.61414235E+00  3.64736290E+00  3.66398507E+00  3.66720789E+00  3.66915689E+00
  3.67235999E+00  3.67444133E+00  3.70914483E+00  3.72883700E+00  3.81488040E+00
  3.82782935E+00  3.89651947E+00  3.92337078E+00  3.97539502E+00  3.97832022E+00
  4.00317329E+00  4.22147934E+00  4.35312642E+00  4.35575533E+00  4.47261004E+00
  4.49632284E+00  4.78884959E+00  5.79112582E+00  5.79172431E+00  5.83450893E+00
  5.84802831E+00  5.87540485E+00  5.87702550E+00  5.88334337E+00  5.88965133E+00
  6.00564018E+00  6.16183039E+00  6.18118287E+00  6.41035683E+00  8.05856067E+00
  1.52421321E+01  1.53816019E+01  1.54262915E+01  2.53151385E+01  5.19204024E+01
  5.19474950E+01  5.19646603E+01  5.20707273E+01  1.66567896E+02
Alpha MO coefficients                      R   N=       17956
  4.19272377E-01  6.46643493E-01  1.07451950E-02 -1.05388306E-03  4.21439509E-04
 -5.48611265E-05 -5.06806218E-05  2.35157458E-05 -3.30523434E-07  1.69408173E-05
 -6.81050447E-06  1.09306116E-07 -1.29739455E-05  7.23641623E-07 -1.08611151E-07
  1.49027668E-05  7.01424356E-06  3.90752660E-07  2.28610434E-05  8.15461511E-06
 -1.11954426E-07  5.32627954E-06 -1.87804247E-07  3.86897472E-08 -6.35402306E-06
  9.86546715E-06  6.74552606E-07 -1.70058680E-06  2.05538382E-06 -4.66527828E-07
  1.17972769E-08  2.04303499E-05 -3.49338198E-06 -8.15857506E-07 -4.23919724E-10
 -6.49147177E-05 -1.78603629E-05  4.00713491E-05 -5.76951026E-07  9.35851627E-06
 -1.09118037E-07  1.53932579E-07 -5.02779976E-06  7.98981428E-06  3.48028463E-07
  5.14722151E-07 -4.33334668E-06 -3.57890249E-06 -2.14550621E-08  1.46150088E-05
  1.69437000E-05  1.52777351E-05  9.54277955E-08 -7.18271064E-05  2.78656069E-05
  3.94654433E-05  3.31225505E-07  1.08748002E-05 -1.45108915E-07 -1.60069926E-07
  2.11150396E-06 -1.87975717E-05  1.83346903E-07  1.43174048E-06 -2.02231497E-07
  2.68158897E-06  4.08855886E-06  8.24954512E-06  5.09156621E-07 -1.08585926E-05
 -1.70259889E-05 -4.68054642E-05 -3.88326618E-06 -2.53817007E-05 -3.62241954E-05
 -1.14309395E-05 -3.14460534E-07 -1.70015314E-05  5.19384310E-06 -4.53377477E-07
  1.88393888E-07  1.40293752E-06 -5.73188040E-08  2.69131529E-06 -4.05799787E-06
  8.42667601E-06 -2.37297012E-08 -1.08852209E-05  1.69113811E-05 -4.71472917E-05
 -4.01552925E-06 -2.55819778E-05  3.65069339E-05 -1.13886250E-05  7.13375792E-07
  1.70580634E-05  5.19848908E-06 -7.22563281E-07 -6.86505721E-08  5.45963601E-08
 -2.76923634E-06  2.26920373E-07  9.57025955E-10 -5.69505444E-06  1.04739693E-05
 -7.28438593E-07 -6.53973734E-09  4.15032133E-05  4.22558126E-05 -1.65468656E-05
  5.58811281E-07 -2.30751143E-08 -1.21470422E-07  2.09897456E-07  6.53529612E-06
  4.01623623E-06  1.52991858E-06 -1.55468447E-05  6.94634837E-06 -2.40886234E-06
  1.53260225E-06 -1.50953520E-06 -4.86281171E-07  1.38767352E-05  4.78718969E-06
  1.19303928E-06 -2.68895365E-06  1.76239230E-07  1.48835409E-06 -1.51203821E-05
  6.65474875E-06 -2.54779052E-06  1.68957770E-06  1.32537491E-06  1.84277247E-06
  3.97325347E-06  1.34861071E-07 -5.16159031E-05  3.34238500E-05  4.27566825E-04
  6.84536719E-06 -3.62504062E-06  4.04778685E-08  2.49981639E-05 -1.37109379E-05
  2.31033160E-07 -3.08910750E-05  2.47161144E-05 -5.18389020E-07 -1.56909331E-04
  5.26469354E-05 -2.17795651E-08 -9.83200917E-05  9.72384757E-05 -1.32806582E-06
 -2.81852741E-05  5.15439600E-07 -4.37300797E-07  4.70321718E-05 -5.75595425E-05
  5.51462062E-01  4.71664455E-01 -5.14536168E-04 -1.38185932E-03  1.63878990E-05
  5.60080458E-03  2.80565277E-04  4.93118518E-04 -5.81272063E-06 -7.44617166E-04
 -9.65930054E-05 -1.62450723E-05  2.29071818E-07  1.24135336E-04  1.00700177E-06
  1.69767197E-06 -7.04362053E-05 -9.24076140E-05 -2.83385991E-05 -2.74338906E-05
  3.90535138E-06  9.99769086E-07  5.33291608E-08  2.88463650E-05  7.99122285E-07
 -3.22748700E-06 -1.13758380E-07 -1.15816368E-04  4.04783242E-05  1.08049130E-06
  3.90738548E-07 -3.32376511E-06  6.08264050E-08  3.97393195E-08 -3.22063198E-06
  1.85568426E-06 -3.43432451E-05 -3.22638080E-05  3.88478214E-06 -3.84288996E-06
 -2.08943151E-06  2.91562422E-05 -2.14400990E-06  2.92084272E-06  5.08540784E-07
 -1.20096688E-04  4.44313613E-05 -5.41444232E-05 -3.55646154E-05  2.54302547E-06
  6.11252849E-06 -2.89150594E-06  1.39146518E-06  4.02447528E-06 -3.45352512E-05
 -3.24652530E-05  3.93804724E-06 -3.88810429E-06  2.21117173E-06  2.94768104E-05
 -2.36875809E-06  3.08865632E-06 -7.02915569E-07 -1.21117787E-04  4.43663700E-05
 -5.50683460E-05  3.71726836E-05  2.37257171E-06 -6.21366843E-06  3.07627245E-06
  1.56185309E-06  4.04792606E-06 -3.35796934E-06 -3.36361723E-05  1.58444849E-05
  2.53967673E-05 -2.76304381E-07  9.69113671E-05  2.35740159E-04  1.00962014E-04
 -1.38626463E-06  2.50955148E-04  5.00466680E-05  1.22830292E-04 -2.44604830E-06
 -5.81060189E-05 -1.41800740E-06  1.00945829E-07  7.54665723E-05  1.06598802E-04
  1.00350571E-05 -2.69777610E-05 -7.04383588E-06 -1.62997362E-05 -8.37551621E-06
  1.81230027E-05  2.18444979E-05 -5.27437357E-05 -3.45788344E-05  1.05785944E-05
 -1.88801070E-05  7.17785114E-07  9.53974038E-06 -2.59164795E-05 -6.40483489E-06
 -1.51083531E-05 -9.00836745E-06 -1.83577919E-05  3.82262606E-06  8.95952185E-06
 -7.00383648E-06 -8.42361201E-05  6.98989849E-05  4.71983519E-04  1.48404547E-06
  5.45420125E-06 -1.01984303E-05 -5.94118995E-07  2.91876281E-05 -5.04232104E-05
  1.11709250E-05 -4.35727058E-05  7.04023133E-05 -3.15674312E-05 -9.69573257E-05
  1.80860010E-04 -6.45504178E-05 -8.85640579E-05  1.53523687E-04  6.03376019E-05
 -7.18388555E-06 -9.63382355E-05 -2.72742178E-05  2.01672478E-06  3.39648010E-05
  2.79392136E-05 -4.69771210E-06  1.80109520E-06 -5.32092881E-06  1.63510678E-05
  4.76465517E-06  5.37543085E-06  9.62632423E-06 -8.05531938E-05 -4.99249770E-05
  2.57450781E-05 -5.67518652E-05  8.09221042E-07 -4.59400463E-06  4.62177224E-06
  7.87203642E-07  2.01123441E-06 -8.71785427E-04 -7.47441580E-04  4.93251660E-06
  8.40281422E-06 -8.16091378E-06  1.04413747E-05 -8.86039650E-06 -1.13030121E-05
  1.50512134E-05 -7.23500239E-05  3.30022190E-05  5.37495206E-05 -6.96340977E-05
 -1.25009372E-06  2.96826715E-06  4.93090147E-06  1.10354151E-06 -2.74626372E-07
 -3.40418321E-02 -2.91193806E-02  3.90415635E-06 -3.97186511E-05 -7.77851508E-05
 -3.05318568E-04 -4.63766300E-06  6.16986312E-06  3.77571980E-05 -8.23726588E-05
  1.47781488E-05  2.43423156E-05 -9.39018996E-05 -4.53518383E-06  1.11430038E-06
  4.84581165E-06 -5.78804602E-07  2.75130175E-07  5.50424591E-01  4.70781711E-01
 -3.01334645E-05  6.94777386E-04 -1.08419123E-03  5.43407565E-03  1.52422426E-05
 -2.00643658E-04  3.14577753E-04 -4.65646031E-04 -4.35478234E-06 -7.31010989E-06
  3.12886775E-06 -9.94514780E-06 -1.16690733E-07  2.15679272E-05 -4.65487604E-06
  6.95737188E-06  3.68352306E-07 -6.85764368E-07 -7.83379396E-07 -8.46831404E-07
 -1.74369679E-06  1.68154548E-05  9.39626303E-06  7.08757133E-06  1.49246611E-06
 -9.75261502E-05 -5.54549073E-05  3.32859189E-05  7.83658278E-07 -2.00916352E-06
  2.99818845E-06  5.29609763E-06  2.97837556E-06  5.14853688E-06 -3.15236640E-06
  3.34348332E-05 -4.68353322E-06  1.36408588E-06  2.01764003E-06  3.43965353E-06
  2.40682772E-06 -5.03746866E-06 -1.55932255E-05  8.47855522E-07 -1.74756877E-06
 -1.29178690E-06 -1.55887919E-06  2.04971512E-05  5.27972516E-06  8.10019868E-07
  2.13723183E-06 -1.01907362E-05  4.32692409E-06  1.01549602E-05 -8.02313867E-06
 -9.51357718E-05  7.80288926E-05  5.37386911E-04  1.54986179E-06  6.17085926E-06
  9.03490242E-06 -1.67814027E-06  3.29226009E-05  4.46019146E-05  1.44686132E-05
 -4.89720070E-05 -6.20799635E-05 -3.39036832E-05 -1.10275548E-04 -1.61217085E-04
 -7.10182475E-05 -1.00094347E-04 -1.36791282E-04  6.87851426E-05  4.17848737E-06
  8.51264311E-05 -3.08637833E-05  6.63941764E-07  3.82371979E-05  3.15333608E-05
 -5.38226669E-06  2.00643553E-06  4.74614042E-06  1.76188428E-05  5.68176671E-06
  6.24319597E-06 -8.88984609E-06 -8.75603123E-05 -5.93793030E-05  2.73943203E-05
  5.12125846E-05  9.66649710E-07  4.04570776E-06 -4.13752800E-06  8.61165712E-07
  2.56169956E-06 -1.01723030E-03 -8.72081044E-04  5.50047595E-06  9.56503075E-06
  7.27909039E-06  1.15349786E-05 -9.80818650E-06 -1.28269998E-05 -1.33853126E-05
 -8.19330221E-05  3.61384829E-05  6.06529620E-05  6.21036319E-05 -1.54201692E-06
 -2.58327100E-06 -4.38052396E-06  1.28692488E-06 -1.90911422E-07  5.50424610E-01
  4.70781256E-01 -4.84273614E-05  6.92787437E-04  1.08404982E-03  5.43822881E-03
  2.01493990E-05 -2.00562696E-04 -3.12670566E-04 -4.81355618E-04 -2.06566925E-06
 -5.02076527E-06 -1.54577583E-05 -1.06392519E-05  6.66814545E-07 -2.11327888E-05
 -4.92263250E-06  7.46037565E-06  3.40421019E-02  2.91132412E-02 -1.21547436E-06
  4.60886834E-05 -5.63405682E-05  3.66939524E-04 -1.84929921E-06 -1.86586670E-05
  1.14163854E-06 -1.41066388E-04  1.22498592E-05  2.36887791E-05  9.50716756E-05
 -5.87526704E-06 -1.01088906E-06 -2.25392407E-06 -1.11976317E-06  1.21773913E-06
  3.85629054E-07 -7.35766460E-07 -8.74420445E-07 -6.57673746E-07  1.67142623E-06
  1.95117851E-05  1.03941340E-05  7.56378774E-06 -2.86517231E-06 -1.19957298E-04
 -6.67283026E-05  4.12658101E-05 -5.55858161E-06 -2.51661381E-06 -2.57625502E-06
 -4.13521173E-06  3.80235074E-06  5.17077133E-06 -1.89006246E-06  2.64527412E-05
  3.97859984E-06  5.06881360E-07  2.73363959E-06  1.07681778E-05  2.44933990E-06
 -5.63070401E-06 -1.99711164E-05  7.55646068E-07 -1.80657518E-06  1.37109493E-06
 -4.32564568E-06  4.23025953E-05  4.58896725E-07  2.77785877E-06  2.57182873E-06