 Entering Gaussian System, Link 0=g09
 Input=MonoMethylPhosphate0H-esp.com
 Output=MonoMethylPhosphate0H-esp.log
 Initial command:
 /opt/g09gh/gaussian/g09/l1.exe /scratch/bdw2292/Gau-MonoMethylPhosphate0H/Gau-3716.inp -scrdir=/scratch/bdw2292/Gau-MonoMethylPhosphate0H/
 Entering Link 1 = /opt/g09gh/gaussian/g09/l1.exe PID=      3717.
  
 Copyright (c) 1988,1990,1992,1993,1995,1998,2003,2009, Gaussian, Inc.
                  All Rights Reserved.
  
 This is part of the Gaussian(R) 09 program.  It is based on
 the Gaussian(R) 03 system (copyright 2003, Gaussian, Inc.),
 the Gaussian(R) 98 system (copyright 1998, Gaussian, Inc.),
 the Gaussian(R) 94 system (copyright 1995, Gaussian, Inc.),
 the Gaussian 92(TM) system (copyright 1992, Gaussian, Inc.),
 the Gaussian 90(TM) system (copyright 1990, Gaussian, Inc.),
 the Gaussian 88(TM) system (copyright 1988, Gaussian, Inc.),
 the Gaussian 86(TM) system (copyright 1986, Carnegie Mellon
 University), and the Gaussian 82(TM) system (copyright 1983,
 Carnegie Mellon University). Gaussian is a federally registered
 trademark of Gaussian, Inc.
  
 This software contains proprietary and confidential information,
 including trade secrets, belonging to Gaussian, Inc.
  
 This software is provided under written license and may be
 used, copied, transmitted, or stored only in accord with that
 written license.
  
 The following legend is applicable only to US Government
 contracts under FAR:
  
                    RESTRICTED RIGHTS LEGEND
  
 Use, reproduction and disclosure by the US Government is
 subject to restrictions as set forth in subparagraphs (a)
 and (c) of the Commercial Computer Software - Restricted
 Rights clause in FAR 52.227-19.
  
 Gaussian, Inc.
 340 Quinnipiac St., Bldg. 40, Wallingford CT 06492
  
  
 ---------------------------------------------------------------
 Warning -- This program may not be used in any manner that
 competes with the business of Gaussian, Inc. or will provide
 assistance to any competitor of Gaussian, Inc.  The licensee
 of this program is prohibited from giving any competitor of
 Gaussian, Inc. access to this program.  By using this program,
 the user acknowledges that Gaussian, Inc. is engaged in the
 business of creating and licensing software in the field of
 computational chemistry and represents and warrants to the
 licensee that it is not a competitor of Gaussian, Inc. and that
 it will not use this program in any manner prohibited above.
 ---------------------------------------------------------------
  

 Cite this work as:
 Gaussian 09, Revision A.02,
 M. J. Frisch, G. W. Trucks, H. B. Schlegel, G. E. Scuseria, 
 M. A. Robb, J. R. Cheeseman, G. Scalmani, V. Barone, B. Mennucci, 
 G. A. Petersson, H. Nakatsuji, M. Caricato, X. Li, H. P. Hratchian, 
 A. F. Izmaylov, J. Bloino, G. Zheng, J. L. Sonnenberg, M. Hada, 
 M. Ehara, K. Toyota, R. Fukuda, J. Hasegawa, M. Ishida, T. Nakajima, 
 Y. Honda, O. Kitao, H. Nakai, T. Vreven, J. A. Montgomery, Jr., 
 J. E. Peralta, F. Ogliaro, M. Bearpark, J. J. Heyd, E. Brothers, 
 K. N. Kudin, V. N. Staroverov, R. Kobayashi, J. Normand, 
 K. Raghavachari, A. Rendell, J. C. Burant, S. S. Iyengar, J. Tomasi, 
 M. Cossi, N. Rega, J. M. Millam, M. Klene, J. E. Knox, J. B. Cross, 
 V. Bakken, C. Adamo, J. Jaramillo, R. Gomperts, R. E. Stratmann, 
 O. Yazyev, A. J. Austin, R. Cammi, C. Pomelli, J. W. Ochterski, 
 R. L. Martin, K. Morokuma, V. G. Zakrzewski, G. A. Voth, 
 P. Salvador, J. J. Dannenberg, S. Dapprich, A. D. Daniels, 
 O. Farkas, J. B. Foresman, J. V. Ortiz, J. Cioslowski, 
 and D. J. Fox, Gaussian, Inc., Wallingford CT, 2009.
 
 ******************************************
 Gaussian 09:  EM64L-G09RevA.02 11-Jun-2009
                 7-Apr-2020 
 ******************************************
 %RWF=/scratch/bdw2292/Gau-MonoMethylPhosphate0H/,150GB
 %Nosave
 %Chk=MonoMethylPhosphate0H-esp.chk
 %Mem=100GB
 %Nproc=8
 Will use up to    8 processors via shared memory.
 ----------------------------------------------------------------------
 #P MP2/6-311++G(2d,2p) Sp Density=MP2 SCF=Save Guess=Huckel MaxDisk=15
 0GB Pop=NBORead
 ----------------------------------------------------------------------
 1/30=1,38=1/1;
 2/12=2,17=6,18=5,40=1/2;
 3/5=4,6=6,7=1212,11=9,16=1,25=1,30=1,71=1/1,2,3;
 4/11=4/1;
 5/5=2,36=1,38=5/2;
 8/6=4,10=2/1;
 9/15=1,16=-3/6;
 10/5=1,13=10/2;
 6/7=2,8=2,9=2,10=2,22=2,40=1/1,7;
 99/5=1,9=1/99;
 Leave Link    1 at Tue Apr  7 09:43:34 2020, MaxMem=13421772800 cpu:       0.3
 (Enter /opt/g09gh/gaussian/g09/l101.exe)
 ----------------------------------------------------------------------
 MonoMethylPhosphate0H Gaussian SP Calculation on node37.bme.utexas.edu
 ----------------------------------------------------------------------
 Symbolic Z-matrix:
 Charge = -2 Multiplicity = 1
 P                     0.52021  -0.05567   0.00087 
 O                    -0.95916   0.81346  -0.0105 
 O                     1.52589   1.09386   0.00957 
 O                     0.495    -0.88028  -1.28845 
 O                     0.47336  -0.88203   1.28845 
 C                    -2.12155   0.03425  -0.00141 
 H                    -2.16827  -0.64053  -0.86995 
 H                    -2.99653   0.69712  -0.03192 
 H                    -2.18972  -0.58712   0.90467 
 
 NAtoms=      9 NQM=      9 NQMF=      0 NMic=      0 NMicF=      0 NTot=      9.
                    Isotopes and Nuclear Properties:
 (Nuclear quadrupole moments (NQMom) in fm**2, nuclear magnetic moments (NMagM)
  in nuclear magnetons)

  Atom         1           2           3           4           5           6           7           8           9
 IAtWgt=          31          16          16          16          16          12           1           1           1
 AtmWgt=  30.9737634  15.9949146  15.9949146  15.9949146  15.9949146  12.0000000   1.0078250   1.0078250   1.0078250
 NucSpn=           1           0           0           0           0           0           1           1           1
 AtZEff=   0.0000000   0.0000000   0.0000000   0.0000000   0.0000000   0.0000000   0.0000000   0.0000000   0.0000000
 NQMom=    0.0000000   0.0000000   0.0000000   0.0000000   0.0000000   0.0000000   0.0000000   0.0000000   0.0000000
 NMagM=    1.1316000   0.0000000   0.0000000   0.0000000   0.0000000   0.0000000   2.7928460   2.7928460   2.7928460
 Leave Link  101 at Tue Apr  7 09:43:34 2020, MaxMem=13421772800 cpu:       0.8
 (Enter /opt/g09gh/gaussian/g09/l202.exe)
                          Input orientation:                          
 ---------------------------------------------------------------------
 Center     Atomic      Atomic             Coordinates (Angstroms)
 Number     Number       Type             X           Y           Z
 ---------------------------------------------------------------------
      1         15           0        0.520208   -0.055671    0.000872
      2          8           0       -0.959163    0.813464   -0.010498
      3          8           0        1.525890    1.093858    0.009565
      4          8           0        0.495004   -0.880276   -1.288445
      5          8           0        0.473356   -0.882034    1.288454
      6          6           0       -2.121548    0.034250   -0.001414
      7          1           0       -2.168274   -0.640526   -0.869952
      8          1           0       -2.996534    0.697120   -0.031921
      9          1           0       -2.189717   -0.587123    0.904665
 ---------------------------------------------------------------------
                    Distance matrix (angstroms):
                    1          2          3          4          5
     1  P    0.000000
     2  O    1.715827   0.000000
     3  O    1.527380   2.500902   0.000000
     4  O    1.530669   2.572257   2.577743   0.000000
     5  O    1.530666   2.571789   2.578281   2.576991   0.000000
     6  C    2.643287   1.399427   3.798249   3.056002   3.039221
     7  H    2.885884   2.077185   4.174744   2.706597   3.419832
     8  H    3.596560   2.040803   4.539982   4.032105   4.034508
     9  H    2.905680   2.076880   4.175241   3.478994   2.706700
                    6          7          8          9
     6  C    0.000000
     7  H    1.100847   0.000000
     8  H    1.098147   1.782584   0.000000
     9  H    1.100786   1.775550   1.782534   0.000000
 Stoichiometry    CH3O4P(2-)
 Framework group  C1[X(CH3O4P)]
 Deg. of freedom    21
 Full point group                 C1      NOp   1
 Largest Abelian subgroup         C1      NOp   1
 Largest concise Abelian subgroup C1      NOp   1
                         Standard orientation:                         
 ---------------------------------------------------------------------
 Center     Atomic      Atomic             Coordinates (Angstroms)
 Number     Number       Type             X           Y           Z
 ---------------------------------------------------------------------
      1         15           0        0.520208   -0.055671    0.000872
      2          8           0       -0.959163    0.813464   -0.010498
      3          8           0        1.525890    1.093858    0.009565
      4          8           0        0.495004   -0.880276   -1.288445
      5          8           0        0.473356   -0.882034    1.288454
      6          6           0       -2.121548    0.034250   -0.001414
      7          1           0       -2.168274   -0.640526   -0.869952
      8          1           0       -2.996534    0.697119   -0.031921
      9          1           0       -2.189717   -0.587124    0.904665
 ---------------------------------------------------------------------
 Rotational constants (GHZ):      4.5689096      2.5966920      2.5805669
 Leave Link  202 at Tue Apr  7 09:43:34 2020, MaxMem=13421772800 cpu:       0.0
 (Enter /opt/g09gh/gaussian/g09/l301.exe)
 Standard basis: 6-311++G(2d,2p) (5D, 7F)
 Ernie: Thresh=  0.10000D-02 Tol=  0.10000D-05 Strict=F.
 There are   200 symmetry adapted basis functions of A   symmetry.
 Integral buffers will be    131072 words long.
 Raffenetti 1 integral format.
 Two-electron integral symmetry is turned on.
   200 basis functions,   302 primitive gaussians,   212 cartesian basis functions
    29 alpha electrons       29 beta electrons
       nuclear repulsion energy       334.4091851922 Hartrees.
 IExCor=    0 DFT=F Ex=HF Corr=None ExCW=0 ScaHFX=  1.000000
 ScaDFX=  1.000000  1.000000  1.000000  1.000000 ScalE2=  1.000000  1.000000
 IRadAn=      0 IRanWt=     -1 IRanGd=            0 ICorTp=0
 NAtoms=    9 NActive=    9 NUniq=    9 SFac= 7.50D-01 NAtFMM=   80 NAOKFM=F Big=F
 Leave Link  301 at Tue Apr  7 09:43:34 2020, MaxMem=13421772800 cpu:       0.5
 (Enter /opt/g09gh/gaussian/g09/l302.exe)
 NPDir=0 NMtPBC=     1 NCelOv=     1 NCel=       1 NClECP=     1 NCelD=      1
         NCelK=      1 NCelE2=     1 NClLst=     1 CellRange=     0.0.
 One-electron integrals computed using PRISM.
 NBasis=   200 RedAO= T  NBF=   200
 NBsUse=   200 1.00D-06 NBFU=   200
 Leave Link  302 at Tue Apr  7 09:43:34 2020, MaxMem=13421772800 cpu:       1.3
 (Enter /opt/g09gh/gaussian/g09/l303.exe)
 DipDrv:  MaxL=1.
 Leave Link  303 at Tue Apr  7 09:43:34 2020, MaxMem=13421772800 cpu:       0.4
 (Enter /opt/g09gh/gaussian/g09/l401.exe)
 Projected New-EHT guess.
 Enter ItEHT:  IZDO=4 IZDPar=0 Conv= 1.00D-06 N=   27
 It=   1                  EEH= -13.1194224378     EQH= 0.000000000000E+00 EH= -13.1194224378    
 Initial guess orbital symmetries:
       Occupied  (A) (A) (A) (A) (A) (A) (A) (A) (A) (A) (A) (A)
                 (A) (A) (A) (A) (A) (A) (A) (A) (A) (A) (A) (A)
                 (A) (A) (A) (A) (A)
       Virtual   (A) (A) (A) (A) (A) (A) (A) (A) (A) (A) (A) (A)
                 (A) (A) (A) (A) (A) (A) (A) (A) (A) (A) (A) (A)
                 (A) (A) (A) (A) (A) (A) (A) (A) (A) (A) (A) (A)
                 (A) (A) (A) (A) (A) (A) (A) (A) (A) (A) (A) (A)
                 (A) (A) (A) (A) (A) (A) (A) (A) (A) (A) (A) (A)
                 (A) (A) (A) (A) (A) (A) (A) (A) (A) (A) (A) (A)
                 (A) (A) (A) (A) (A) (A) (A) (A) (A) (A) (A) (A)
                 (A) (A) (A) (A) (A) (A) (A) (A) (A) (A) (A) (A)
                 (A) (A) (A) (A) (A) (A) (A) (A) (A) (A) (A) (A)
                 (A) (A) (A) (A) (A) (A) (A) (A) (A) (A) (A) (A)
                 (A) (A) (A) (A) (A) (A) (A) (A) (A) (A) (A) (A)
                 (A) (A) (A) (A) (A) (A) (A) (A) (A) (A) (A) (A)
                 (A) (A) (A) (A) (A) (A) (A) (A) (A) (A) (A) (A)
                 (A) (A) (A) (A) (A) (A) (A) (A) (A) (A) (A) (A)
                 (A) (A) (A)
 The electronic state of the initial guess is 1-A.
 Leave Link  401 at Tue Apr  7 09:43:34 2020, MaxMem=13421772800 cpu:       0.9
 (Enter /opt/g09gh/gaussian/g09/l502.exe)
 Closed shell SCF:
 Requested convergence on RMS density matrix=1.00D-08 within 128 cycles.
 Requested convergence on MAX density matrix=1.00D-06.
 Requested convergence on             energy=1.00D-06.
 No special actions if energy rises.
 Using DIIS extrapolation, IDIIS=  1040.
 Integral symmetry usage will be decided dynamically.
 Keep R1 ints in memory in canonical form, NReq=259882268.
 IEnd=      156231 IEndB=      156231 NGot= 13421772800 MDV= 13166784007
 LenX= 13166784007 LenY= 13166738622
 Symmetry not used in FoFDir.
 MinBra= 0 MaxBra= 2 Meth= 1.
 IRaf=       0 NMat=   1 IRICut=       1 DoRegI=T DoRafI=F ISym2E= 0 JSym2E=0.

 Cycle   1  Pass 1  IDiag  1:
 E= -675.177623351368    
 DIIS: error= 3.35D-01 at cycle   1 NSaved=   1.
 NSaved= 1 IEnMin= 1 EnMin= -675.177623351368     IErMin= 1 ErrMin= 3.35D-01
 ErrMax= 3.35D-01 EMaxC= 1.00D-01 BMatC= 2.13D+01 BMatP= 2.13D+01
 IDIUse=3 WtCom= 0.00D+00 WtEn= 1.00D+00
 Coeff-Com:  0.100D+01
 Coeff-En:   0.100D+01
 Coeff:      0.100D+01
 Gap=     0.876 Goal=   None    Shift=    0.000
 GapD=    0.876 DampG=2.000 DampE=0.250 DampFc=0.5000 IDamp=-1.
 Damping current iteration by 5.00D-01
 RMSDP=5.53D-01 MaxDP=6.96D+01              OVMax= 8.80D-01

 Cycle   2  Pass 1  IDiag  1:
 E= -676.906634339300     Delta-E=       -1.729010987932 Rises=F Damp=T
 DIIS: error= 1.70D-01 at cycle   2 NSaved=   2.
 NSaved= 2 IEnMin= 2 EnMin= -676.906634339300     IErMin= 2 ErrMin= 1.70D-01
 ErrMax= 1.70D-01 EMaxC= 1.00D-01 BMatC= 5.82D+00 BMatP= 2.13D+01
 IDIUse=3 WtCom= 0.00D+00 WtEn= 1.00D+00
 Coeff-Com: -0.874D+00 0.187D+01
 Coeff-En:   0.000D+00 0.100D+01
 Coeff:      0.000D+00 0.100D+01
 Gap=    -0.106 Goal=   None    Shift=    0.000
 RMSDP=2.76D-01 MaxDP=3.48D+01 DE=-1.73D+00 OVMax= 7.60D-01

 Cycle   3  Pass 1  IDiag  1:
 E= -679.640325622680     Delta-E=       -2.733691283379 Rises=F Damp=F
 DIIS: error= 5.27D-02 at cycle   3 NSaved=   3.
 NSaved= 3 IEnMin= 3 EnMin= -679.640325622680     IErMin= 3 ErrMin= 5.27D-02
 ErrMax= 5.27D-02 EMaxC= 1.00D-01 BMatC= 2.95D-01 BMatP= 5.82D+00
 IDIUse=3 WtCom= 4.73D-01 WtEn= 5.27D-01
 Coeff-Com: -0.279D+00 0.522D+00 0.757D+00
 Coeff-En:   0.000D+00 0.000D+00 0.100D+01
 Coeff:     -0.132D+00 0.247D+00 0.885D+00
 Gap=     0.424 Goal=   None    Shift=    0.000
 RMSDP=3.08D-03 MaxDP=8.01D-02 DE=-2.73D+00 OVMax= 1.63D-01

 Cycle   4  Pass 1  IDiag  1:
 E= -679.891431882400     Delta-E=       -0.251106259721 Rises=F Damp=F
 DIIS: error= 1.16D-02 at cycle   4 NSaved=   4.
 NSaved= 4 IEnMin= 4 EnMin= -679.891431882400     IErMin= 4 ErrMin= 1.16D-02
 ErrMax= 1.16D-02 EMaxC= 1.00D-01 BMatC= 3.30D-02 BMatP= 2.95D-01
 IDIUse=3 WtCom= 8.84D-01 WtEn= 1.16D-01
 Coeff-Com: -0.459D-01 0.754D-01 0.255D+00 0.716D+00
 Coeff-En:   0.000D+00 0.000D+00 0.000D+00 0.100D+01
 Coeff:     -0.406D-01 0.666D-01 0.225D+00 0.749D+00
 Gap=     0.244 Goal=   None    Shift=    0.000
 RMSDP=1.73D-03 MaxDP=4.77D-02 DE=-2.51D-01 OVMax= 4.37D-02

 Cycle   5  Pass 1  IDiag  1:
 E= -679.912611230232     Delta-E=       -0.021179347831 Rises=F Damp=F
 DIIS: error= 4.81D-03 at cycle   5 NSaved=   5.
 NSaved= 5 IEnMin= 5 EnMin= -679.912611230232     IErMin= 5 ErrMin= 4.81D-03
 ErrMax= 4.81D-03 EMaxC= 1.00D-01 BMatC= 4.05D-03 BMatP= 3.30D-02
 IDIUse=3 WtCom= 9.52D-01 WtEn= 4.81D-02
 Coeff-Com:  0.190D-02-0.461D-02-0.201D-01 0.203D+00 0.820D+00
 Coeff-En:   0.000D+00 0.000D+00 0.000D+00 0.000D+00 0.100D+01
 Coeff:      0.181D-02-0.439D-02-0.191D-01 0.193D+00 0.829D+00
 Gap=     0.227 Goal=   None    Shift=    0.000
 RMSDP=6.94D-04 MaxDP=1.52D-02 DE=-2.12D-02 OVMax= 1.91D-02

 Cycle   6  Pass 1  IDiag  1:
 E= -679.916426524412     Delta-E=       -0.003815294180 Rises=F Damp=F
 DIIS: error= 1.19D-03 at cycle   6 NSaved=   6.
 NSaved= 6 IEnMin= 6 EnMin= -679.916426524412     IErMin= 6 ErrMin= 1.19D-03
 ErrMax= 1.19D-03 EMaxC= 1.00D-01 BMatC= 2.93D-04 BMatP= 4.05D-03
 IDIUse=3 WtCom= 9.88D-01 WtEn= 1.19D-02
 Coeff-Com:  0.536D-02-0.919D-02-0.176D-01-0.521D-01 0.113D+00 0.961D+00
 Coeff-En:   0.000D+00 0.000D+00 0.000D+00 0.000D+00 0.000D+00 0.100D+01
 Coeff:      0.530D-02-0.908D-02-0.174D-01-0.515D-01 0.111D+00 0.961D+00
 Gap=     0.231 Goal=   None    Shift=    0.000
 RMSDP=3.16D-04 MaxDP=8.69D-03 DE=-3.82D-03 OVMax= 6.33D-03

 Cycle   7  Pass 1  IDiag  1:
 E= -679.916816317776     Delta-E=       -0.000389793364 Rises=F Damp=F
 DIIS: error= 5.21D-04 at cycle   7 NSaved=   7.
 NSaved= 7 IEnMin= 7 EnMin= -679.916816317776     IErMin= 7 ErrMin= 5.21D-04
 ErrMax= 5.21D-04 EMaxC= 1.00D-01 BMatC= 2.95D-05 BMatP= 2.93D-04
 IDIUse=3 WtCom= 9.95D-01 WtEn= 5.21D-03
 Coeff-Com: -0.295D-03 0.420D-03 0.717D-02-0.148D-01-0.646D-01 0.156D-01
 Coeff-Com:  0.106D+01
 Coeff-En:   0.000D+00 0.000D+00 0.000D+00 0.000D+00 0.000D+00 0.000D+00
 Coeff-En:   0.100D+01
 Coeff:     -0.293D-03 0.418D-03 0.713D-02-0.147D-01-0.643D-01 0.155D-01
 Coeff:      0.106D+01
 Gap=     0.235 Goal=   None    Shift=    0.000
 RMSDP=8.67D-05 MaxDP=2.09D-03 DE=-3.90D-04 OVMax= 2.14D-03

 Cycle   8  Pass 1  IDiag  1:
 E= -679.916867879021     Delta-E=       -0.000051561245 Rises=F Damp=F
 DIIS: error= 1.28D-04 at cycle   8 NSaved=   8.
 NSaved= 8 IEnMin= 8 EnMin= -679.916867879021     IErMin= 8 ErrMin= 1.28D-04
 ErrMax= 1.28D-04 EMaxC= 1.00D-01 BMatC= 4.47D-06 BMatP= 2.95D-05
 IDIUse=3 WtCom= 9.99D-01 WtEn= 1.28D-03
 Coeff-Com: -0.101D-02 0.184D-02 0.142D-02 0.398D-02-0.172D-01-0.980D-01
 Coeff-Com:  0.124D+00 0.985D+00
 Coeff-En:   0.000D+00 0.000D+00 0.000D+00 0.000D+00 0.000D+00 0.000D+00
 Coeff-En:   0.000D+00 0.100D+01
 Coeff:     -0.101D-02 0.183D-02 0.142D-02 0.398D-02-0.172D-01-0.979D-01
 Coeff:      0.124D+00 0.985D+00
 Gap=     0.235 Goal=   None    Shift=    0.000
 RMSDP=2.55D-05 MaxDP=4.51D-04 DE=-5.16D-05 OVMax= 8.34D-04

 Cycle   9  Pass 1  IDiag  1:
 E= -679.916874117420     Delta-E=       -0.000006238399 Rises=F Damp=F
 DIIS: error= 7.33D-05 at cycle   9 NSaved=   9.
 NSaved= 9 IEnMin= 9 EnMin= -679.916874117420     IErMin= 9 ErrMin= 7.33D-05
 ErrMax= 7.33D-05 EMaxC= 1.00D-01 BMatC= 1.40D-06 BMatP= 4.47D-06
 IDIUse=1 WtCom= 1.00D+00 WtEn= 0.00D+00
 Coeff-Com: -0.464D-03 0.922D-03-0.133D-02 0.208D-02 0.815D-03-0.256D-01
 Coeff-Com: -0.754D-01 0.272D+00 0.827D+00
 Coeff:     -0.464D-03 0.922D-03-0.133D-02 0.208D-02 0.815D-03-0.256D-01
 Coeff:     -0.754D-01 0.272D+00 0.827D+00
 Gap=     0.235 Goal=   None    Shift=    0.000
 RMSDP=7.70D-06 MaxDP=1.67D-04 DE=-6.24D-06 OVMax= 3.14D-04

 Cycle  10  Pass 1  IDiag  1:
 E= -679.916875624299     Delta-E=       -0.000001506878 Rises=F Damp=F
 DIIS: error= 3.16D-05 at cycle  10 NSaved=  10.
 NSaved=10 IEnMin=10 EnMin= -679.916875624299     IErMin=10 ErrMin= 3.16D-05
 ErrMax= 3.16D-05 EMaxC= 1.00D-01 BMatC= 1.94D-07 BMatP= 1.40D-06
 IDIUse=1 WtCom= 1.00D+00 WtEn= 0.00D+00
 Coeff-Com: -0.595D-04 0.130D-03-0.242D-03-0.114D-02-0.106D-02 0.116D-01
 Coeff-Com:  0.118D-01-0.151D+00-0.122D+00 0.125D+01
 Coeff:     -0.595D-04 0.130D-03-0.242D-03-0.114D-02-0.106D-02 0.116D-01
 Coeff:      0.118D-01-0.151D+00-0.122D+00 0.125D+01
 Gap=     0.235 Goal=   None    Shift=    0.000
 RMSDP=3.82D-06 MaxDP=8.00D-05 DE=-1.51D-06 OVMax= 1.62D-04

 Cycle  11  Pass 1  IDiag  1:
 E= -679.916875879225     Delta-E=       -0.000000254926 Rises=F Damp=F
 DIIS: error= 4.27D-06 at cycle  11 NSaved=  11.
 NSaved=11 IEnMin=11 EnMin= -679.916875879225     IErMin=11 ErrMin= 4.27D-06
 ErrMax= 4.27D-06 EMaxC= 1.00D-01 BMatC= 4.43D-09 BMatP= 1.94D-07
 IDIUse=1 WtCom= 1.00D+00 WtEn= 0.00D+00
 Coeff-Com: -0.118D-04 0.188D-04 0.117D-03-0.129D-05-0.458D-03-0.931D-03
 Coeff-Com:  0.530D-02 0.162D-02-0.436D-01-0.936D-01 0.113D+01
 Coeff:     -0.118D-04 0.188D-04 0.117D-03-0.129D-05-0.458D-03-0.931D-03
 Coeff:      0.530D-02 0.162D-02-0.436D-01-0.936D-01 0.113D+01
 Gap=     0.235 Goal=   None    Shift=    0.000
 RMSDP=9.33D-07 MaxDP=1.84D-05 DE=-2.55D-07 OVMax= 2.99D-05

 Cycle  12  Pass 1  IDiag  1:
 E= -679.916875887624     Delta-E=       -0.000000008399 Rises=F Damp=F
 DIIS: error= 1.23D-06 at cycle  12 NSaved=  12.
 NSaved=12 IEnMin=12 EnMin= -679.916875887624     IErMin=12 ErrMin= 1.23D-06
 ErrMax= 1.23D-06 EMaxC= 1.00D-01 BMatC= 2.79D-10 BMatP= 4.43D-09
 IDIUse=1 WtCom= 1.00D+00 WtEn= 0.00D+00
 Coeff-Com:  0.300D-05-0.704D-05 0.242D-04 0.850D-04 0.511D-04-0.947D-03
 Coeff-Com: -0.243D-03 0.125D-01 0.293D-02-0.109D+00 0.118D+00 0.977D+00
 Coeff:      0.300D-05-0.704D-05 0.242D-04 0.850D-04 0.511D-04-0.947D-03
 Coeff:     -0.243D-03 0.125D-01 0.293D-02-0.109D+00 0.118D+00 0.977D+00
 Gap=     0.235 Goal=   None    Shift=    0.000
 RMSDP=3.27D-07 MaxDP=6.68D-06 DE=-8.40D-09 OVMax= 6.99D-06

 Cycle  13  Pass 1  IDiag  1:
 E= -679.916875888179     Delta-E=       -0.000000000554 Rises=F Damp=F
 DIIS: error= 4.60D-07 at cycle  13 NSaved=  13.
 NSaved=13 IEnMin=13 EnMin= -679.916875888179     IErMin=13 ErrMin= 4.60D-07
 ErrMax= 4.60D-07 EMaxC= 1.00D-01 BMatC= 2.54D-11 BMatP= 2.79D-10
 IDIUse=1 WtCom= 1.00D+00 WtEn= 0.00D+00
 Coeff-Com:  0.195D-05-0.339D-05-0.104D-04-0.120D-05 0.523D-04 0.101D-03
 Coeff-Com: -0.608D-03-0.245D-03 0.455D-02 0.122D-01-0.108D+00-0.240D-01
 Coeff-Com:  0.112D+01
 Coeff:      0.195D-05-0.339D-05-0.104D-04-0.120D-05 0.523D-04 0.101D-03
 Coeff:     -0.608D-03-0.245D-03 0.455D-02 0.122D-01-0.108D+00-0.240D-01
 Coeff:      0.112D+01
 Gap=     0.235 Goal=   None    Shift=    0.000
 RMSDP=1.10D-07 MaxDP=2.80D-06 DE=-5.54D-10 OVMax= 2.65D-06

 Cycle  14  Pass 1  IDiag  1:
 E= -679.916875888225     Delta-E=       -0.000000000047 Rises=F Damp=F
 DIIS: error= 1.47D-07 at cycle  14 NSaved=  14.
 NSaved=14 IEnMin=14 EnMin= -679.916875888225     IErMin=14 ErrMin= 1.47D-07
 ErrMax= 1.47D-07 EMaxC= 1.00D-01 BMatC= 2.74D-12 BMatP= 2.54D-11
 IDIUse=1 WtCom= 1.00D+00 WtEn= 0.00D+00
 Coeff-Com: -0.203D-06 0.381D-06 0.107D-05-0.412D-05-0.387D-05 0.532D-04
 Coeff-Com:  0.383D-04-0.891D-03-0.604D-03 0.649D-02 0.617D-02-0.555D-01
 Coeff-Com: -0.154D+00 0.120D+01
 Coeff:     -0.203D-06 0.381D-06 0.107D-05-0.412D-05-0.387D-05 0.532D-04
 Coeff:      0.383D-04-0.891D-03-0.604D-03 0.649D-02 0.617D-02-0.555D-01
 Coeff:     -0.154D+00 0.120D+01
 Gap=     0.235 Goal=   None    Shift=    0.000
 RMSDP=3.08D-08 MaxDP=4.83D-07 DE=-4.66D-11 OVMax= 8.99D-07

 Cycle  15  Pass 1  IDiag  1:
 E= -679.916875888226     Delta-E=        0.000000000000 Rises=F Damp=F
 DIIS: error= 2.41D-08 at cycle  15 NSaved=  15.
 NSaved=15 IEnMin=15 EnMin= -679.916875888226     IErMin=15 ErrMin= 2.41D-08
 ErrMax= 2.41D-08 EMaxC= 1.00D-01 BMatC= 9.69D-14 BMatP= 2.74D-12
 IDIUse=1 WtCom= 1.00D+00 WtEn= 0.00D+00
 Coeff-Com: -0.458D-07 0.823D-07 0.851D-07 0.541D-06-0.148D-05-0.119D-04
 Coeff-Com:  0.303D-04 0.126D-03-0.225D-03-0.148D-02 0.427D-02 0.728D-02
 Coeff-Com: -0.307D-01-0.147D+00 0.117D+01
 Coeff:     -0.458D-07 0.823D-07 0.851D-07 0.541D-06-0.148D-05-0.119D-04
 Coeff:      0.303D-04 0.126D-03-0.225D-03-0.148D-02 0.427D-02 0.728D-02
 Coeff:     -0.307D-01-0.147D+00 0.117D+01
 Gap=     0.235 Goal=   None    Shift=    0.000
 RMSDP=6.58D-09 MaxDP=1.24D-07 DE=-2.27D-13 OVMax= 1.80D-07

 SCF Done:  E(RHF) =  -679.916875888     A.U. after   15 cycles
             Convg  =    0.6581D-08             -V/T =  2.0007
 KE= 6.794657681354D+02 PE=-2.308397405797D+03 EE= 6.146055765808D+02
 Leave Link  502 at Tue Apr  7 09:43:42 2020, MaxMem=13421772800 cpu:      63.6
 (Enter /opt/g09gh/gaussian/g09/l801.exe)
 ExpMin= 3.48D-02 ExpMax= 7.75D+04 ExpMxC= 2.65D+03 IAcc=3 IRadAn=         5 AccDes= 0.00D+00
 HarFok:  IExCor=  205 AccDes= 0.00D+00 IRadAn=         5 IDoV=-2
 ScaDFX=  1.000000  1.000000  1.000000  1.000000
 Largest valence mixing into a core orbital is  4.40D-04
 Largest core mixing into a valence orbital is  5.96D-05
 Range of M.O.s used for correlation:    11   200
 NBasis=   200 NAE=    29 NBE=    29 NFC=    10 NFV=     0
 NROrb=    190 NOA=    19 NOB=    19 NVA=   171 NVB=   171

 **** Warning!!: The largest alpha MO coefficient is  0.12582361D+02

 Leave Link  801 at Tue Apr  7 09:43:42 2020, MaxMem=13421772800 cpu:       0.8
 (Enter /opt/g09gh/gaussian/g09/l906.exe)
 Frozen-core derivative calculation, NFC=  10 NFV=   0.
 FulOut=F Deriv=T AODrv=F NAtomX=     9
   MMem=        2842  MDisk=          19 MDiskD=          19
  W3Min=     1229600 MinDsk=     1741654 NBas6D=         212
 NBas2D=       22917    NTT=       22578    LW2=     2040000
    MDV= 13421339700 MDiskM=      879149 NBas2p=       22265
 Fully in-core method, ICMem=   533233849.
 IMap=   1   2   3   4   5   6   7   8   9  10  11  12  13  14  15  16  17  18  19  20
 IMap=  21  22  23  24  25  26  27  28  29
 JobTyp=1 Pass  1 fully in-core, NPsUse=  8.
 Compute canonical integrals, IntTyp=   4.
 Symmetry not used in FoFDir.
 MinBra= 0 MaxBra= 2 Meth= 1.
 IRaf=       0 NMat=   1 IRICut=       1 DoRegI=T DoRafI=F ISym2E= 0 JSym2E=0.
 Spin components of T(2) and E(2):
     alpha-alpha T2 =       0.4807215591D-01 E2=     -0.1614662979D+00
     alpha-beta  T2 =       0.2449159760D+00 E2=     -0.8679013897D+00
     beta-beta   T2 =       0.4807215591D-01 E2=     -0.1614662979D+00
 The integrals were generated   1 times.
 ANorm=    0.1158041574D+01
 E2 =    -0.1190833986D+01 EUMP2 =    -0.68110770987385D+03
 Leave Link  906 at Tue Apr  7 09:44:29 2020, MaxMem=13421772800 cpu:     370.9
 (Enter /opt/g09gh/gaussian/g09/l1002.exe)
 Minotr:  Closed shell wavefunction.
          Computing MP2/KS-MP2 derivatives.
          Using Z-Vector for PSCF gradient.
          Skipping F1 and S1 gradient terms here.
          Frozen-core window.
          Direct CPHF calculation.
          Differentiating once with respect to electric field.
                with respect to dipole field.
          Electric field/nuclear overlap derivatives assumed to be zero.
          Requested convergence is 1.0D-10 RMS, and 1.0D-09 maximum.
          NewPWx=F KeepS1=T KeepF1=T KeepIn=T MapXYZ=F SortEE=F KeepMc=T.
          MDV=   13421772724 using IRadAn=       0.
          Keep R1 ints in memory in canonical form, NReq=255715557.
 Symmetry not used in FoFDir.
 MinBra= 0 MaxBra= 2 Meth= 1.
 IRaf=       0 NMat=   1 IRICut=       1 DoRegI=T DoRafI=F ISym2E= 0 JSym2E=0.
          Solving linear equations separately, MaxMat=       0.
          There are     1 degrees of freedom in the 1st order CPHF.  IDoFFX=0.
 LinEq1:  Iter=  0 NonCon=     1 RMS=5.10D-03 Max=7.34D-02
 AX will form     1 AO Fock derivatives at one time.
 LinEq1:  Iter=  1 NonCon=     1 RMS=8.03D-04 Max=9.02D-03
 LinEq1:  Iter=  2 NonCon=     1 RMS=2.95D-04 Max=3.21D-03
 LinEq1:  Iter=  3 NonCon=     1 RMS=8.83D-05 Max=9.61D-04
 LinEq1:  Iter=  4 NonCon=     1 RMS=3.30D-05 Max=2.96D-04
 LinEq1:  Iter=  5 NonCon=     1 RMS=9.29D-06 Max=1.43D-04
 LinEq1:  Iter=  6 NonCon=     1 RMS=4.24D-06 Max=4.31D-05
 LinEq1:  Iter=  7 NonCon=     1 RMS=8.20D-07 Max=1.09D-05
 LinEq1:  Iter=  8 NonCon=     1 RMS=2.55D-07 Max=3.73D-06
 LinEq1:  Iter=  9 NonCon=     1 RMS=9.96D-08 Max=1.07D-06
 LinEq1:  Iter= 10 NonCon=     1 RMS=3.33D-08 Max=4.09D-07
 LinEq1:  Iter= 11 NonCon=     1 RMS=1.13D-08 Max=1.40D-07
 LinEq1:  Iter= 12 NonCon=     1 RMS=2.87D-09 Max=4.13D-08
 LinEq1:  Iter= 13 NonCon=     1 RMS=6.39D-10 Max=7.75D-09
 LinEq1:  Iter= 14 NonCon=     1 RMS=1.29D-10 Max=1.57D-09
 LinEq1:  Iter= 15 NonCon=     0 RMS=2.53D-11 Max=3.07D-10
 Linear equations converged to 1.000D-10 1.000D-09 after    15 iterations.
 End of Minotr Frequency-dependent properties file   721 does not exist.
 End of Minotr Frequency-dependent properties file   722 does not exist.
 Leave Link 1002 at Tue Apr  7 09:44:38 2020, MaxMem=13421772800 cpu:      68.3
 (Enter /opt/g09gh/gaussian/g09/l601.exe)
 Copying SCF densities to generalized density rwf, IOpCl= 0 IROHF=0.

 **********************************************************************

            Population analysis using the MP2 density.

 **********************************************************************

 Orbital symmetries:
       Occupied  (A) (A) (A) (A) (A) (A) (A) (A) (A) (A) (A) (A)
                 (A) (A) (A) (A) (A) (A) (A) (A) (A) (A) (A) (A)
                 (A) (A) (A) (A) (A)
       Virtual   (A) (A) (A) (A) (A) (A) (A) (A) (A) (A) (A) (A)
                 (A) (A) (A) (A) (A) (A) (A) (A) (A) (A) (A) (A)
                 (A) (A) (A) (A) (A) (A) (A) (A) (A) (A) (A) (A)
                 (A) (A) (A) (A) (A) (A) (A) (A) (A) (A) (A) (A)
                 (A) (A) (A) (A) (A) (A) (A) (A) (A) (A) (A) (A)
                 (A) (A) (A) (A) (A) (A) (A) (A) (A) (A) (A) (A)
                 (A) (A) (A) (A) (A) (A) (A) (A) (A) (A) (A) (A)
                 (A) (A) (A) (A) (A) (A) (A) (A) (A) (A) (A) (A)
                 (A) (A) (A) (A) (A) (A) (A) (A) (A) (A) (A) (A)
                 (A) (A) (A) (A) (A) (A) (A) (A) (A) (A) (A) (A)
                 (A) (A) (A) (A) (A) (A) (A) (A) (A) (A) (A) (A)
                 (A) (A) (A) (A) (A) (A) (A) (A) (A) (A) (A) (A)
                 (A) (A) (A) (A) (A) (A) (A) (A) (A) (A) (A) (A)
                 (A) (A) (A) (A) (A) (A) (A) (A) (A) (A) (A) (A)
                 (A) (A) (A)
 The electronic state is 1-A.
 Alpha  occ. eigenvalues --  -79.64596 -20.20444 -20.09845 -20.09833 -20.09302
 Alpha  occ. eigenvalues --  -10.97029  -7.16516  -5.06515  -5.06320  -5.06304
 Alpha  occ. eigenvalues --   -1.01859  -0.91428  -0.84415  -0.84144  -0.60932
 Alpha  occ. eigenvalues --   -0.37164  -0.30778  -0.29703  -0.25641  -0.18549
 Alpha  occ. eigenvalues --   -0.17859  -0.15853  -0.11153  -0.07834  -0.07595
 Alpha  occ. eigenvalues --   -0.07546  -0.03460  -0.03241  -0.00166
 Alpha virt. eigenvalues --    0.23304   0.27511   0.29142   0.34569   0.35528
 Alpha virt. eigenvalues --    0.35973   0.36377   0.38505   0.39993   0.40881
 Alpha virt. eigenvalues --    0.45725   0.54212   0.55946   0.57167   0.57840
 Alpha virt. eigenvalues --    0.59001   0.63292   0.63701   0.64538   0.64767
 Alpha virt. eigenvalues --    0.65129   0.66849   0.69091   0.69453   0.69610
 Alpha virt. eigenvalues --    0.70539   0.70816   0.73425   0.73523   0.75345
 Alpha virt. eigenvalues --    0.77633   0.81198   0.83296   0.84239   0.87696
 Alpha virt. eigenvalues --    0.89044   0.89267   0.92246   0.92369   0.95489
 Alpha virt. eigenvalues --    1.02720   1.03302   1.04939   1.09573   1.11639
 Alpha virt. eigenvalues --    1.13193   1.20368   1.23450   1.33561   1.35957
 Alpha virt. eigenvalues --    1.37061   1.41672   1.42882   1.45058   1.53243
 Alpha virt. eigenvalues --    1.53817   1.54532   1.55838   1.60741   1.67596
 Alpha virt. eigenvalues --    1.70350   1.71749   1.73475   1.75479   1.77529
 Alpha virt. eigenvalues --    1.78026   1.79637   1.80703   1.84268   1.84563
 Alpha virt. eigenvalues --    1.86154   1.87250   1.87874   1.94069   1.95732
 Alpha virt. eigenvalues --    1.97680   2.06463   2.10097   2.13449   2.14122
 Alpha virt. eigenvalues --    2.16203   2.17521   2.20361   2.25752   2.26120
 Alpha virt. eigenvalues --    2.26506   2.26836   2.28884   2.36975   2.42641
 Alpha virt. eigenvalues --    2.45829   2.49919   2.56749   2.57630   2.60701
 Alpha virt. eigenvalues --    2.66751   2.70523   2.73683   2.75986   2.87998
 Alpha virt. eigenvalues --    2.92663   2.93272   3.02216   3.13771   3.20543
 Alpha virt. eigenvalues --    3.23518   3.26740   3.38344   3.45550   3.52520
 Alpha virt. eigenvalues --    3.55753   3.70888   3.81890   3.89364   4.01284
 Alpha virt. eigenvalues --    4.04255   4.07827   4.26312   4.30585   4.37532
 Alpha virt. eigenvalues --    4.45980   4.61682   4.63844   4.76569   4.76898
 Alpha virt. eigenvalues --    4.84079   5.07098   5.70589   5.71783   5.95627
 Alpha virt. eigenvalues --    5.96220   5.99151   5.99266   6.02511   6.03618
 Alpha virt. eigenvalues --    6.03942   6.05853   6.12708   6.21825   6.24784
 Alpha virt. eigenvalues --    6.52807   7.72556   7.72728   7.74169   7.77058
 Alpha virt. eigenvalues --    7.78836   7.79971   7.80677   7.81802   7.87735
 Alpha virt. eigenvalues --    7.93074   7.94119   8.00732   8.01903   8.05480
 Alpha virt. eigenvalues --    8.10149   8.22642   8.29659   8.32581   8.35511
 Alpha virt. eigenvalues --    8.43593   8.59036  15.47456  15.52613  15.57965
 Alpha virt. eigenvalues --   25.42537  52.03753  52.09562  52.09976  52.13602
 Alpha virt. eigenvalues --  167.08886
          Condensed to atoms (all electrons):
              1          2          3          4          5          6
     1  P   12.495808   0.015110   0.363528   0.327639   0.320158  -0.029255
     2  O    0.015110   8.882863  -0.021083  -0.019757  -0.017954  -0.062392
     3  O    0.363528  -0.021083   8.743084  -0.062016  -0.061661  -0.013767
     4  O    0.327639  -0.019757  -0.062016   8.811590  -0.054910  -0.017515
     5  O    0.320158  -0.017954  -0.061661  -0.054910   8.814570  -0.008489
     6  C   -0.029255  -0.062392  -0.013767  -0.017515  -0.008489   5.136208
     7  H   -0.016212  -0.047219  -0.000723   0.018962   0.000091   0.374290
     8  H   -0.003493  -0.083860  -0.000529   0.004037   0.006826   0.276193
     9  H   -0.010552  -0.053350  -0.000229   0.001576   0.012274   0.381459
              7          8          9
     1  P   -0.016212  -0.003493  -0.010552
     2  O   -0.047219  -0.083860  -0.053350
     3  O   -0.000723  -0.000529  -0.000229
     4  O    0.018962   0.004037   0.001576
     5  O    0.000091   0.006826   0.012274
     6  C    0.374290   0.276193   0.381459
     7  H    0.834448  -0.056600  -0.149626
     8  H   -0.056600   0.940950  -0.056512
     9  H   -0.149626  -0.056512   0.831596
 Mulliken atomic charges:
              1
     1  P    1.537268
     2  O   -0.592359
     3  O   -0.946604
     4  O   -1.009606
     5  O   -1.010905
     6  C   -0.036732
     7  H    0.042587
     8  H   -0.027012
     9  H    0.043364
 Sum of Mulliken atomic charges =  -2.00000
 Mulliken charges with hydrogens summed into heavy atoms:
              1
     1  P    1.537268
     2  O   -0.592359
     3  O   -0.946604
     4  O   -1.009606
     5  O   -1.010905
     6  C    0.022206
 Sum of Mulliken charges with hydrogens summed into heavy atoms =  -2.00000
 Electronic spatial extent (au):  <R**2>=            625.4435
 Charge=             -2.0000 electrons
 Dipole moment (field-independent basis, Debye):
    X=             -5.8418    Y=              0.5453    Z=             -0.0110  Tot=              5.8672
 Quadrupole moment (field-independent basis, Debye-Ang):
   XX=            -62.2740   YY=            -62.5617   ZZ=            -63.1574
   XY=             -1.9996   XZ=              0.0421   YZ=             -0.0102
 Traceless Quadrupole moment (field-independent basis, Debye-Ang):
   XX=              0.3903   YY=              0.1027   ZZ=             -0.4930
   XY=             -1.9996   XZ=              0.0421   YZ=             -0.0102
 Octapole moment (field-independent basis, Debye-Ang**2):
  XXX=             -4.7042  YYY=              1.8772  ZZZ=             -0.0243  XYY=             -9.0022
  XXY=            -10.3594  XXZ=              0.0263  XZZ=             -6.9310  YZZ=             13.8343
  YYZ=             -0.0777  XYZ=             -0.2050
 Hexadecapole moment (field-independent basis, Debye-Ang**3):
 XXXX=           -559.3724 YYYY=           -239.4008 ZZZZ=           -252.4063 XXXY=            -20.6831
 XXXZ=              0.0564 YYYX=             -7.7163 YYYZ=             -0.0530 ZZZX=              0.2176
 ZZZY=             -0.0268 XXYY=           -136.4456 XXZZ=           -127.3466 YYZZ=            -86.5734
 XXYZ=             -0.2231 YYXZ=              0.0414 ZZXY=              4.6519
 N-N= 3.344091851922D+02 E-N=-2.308533667872D+03  KE= 6.809943860477D+02
 No NMR shielding tensors so no spin-rotation constants.
 Leave Link  601 at Tue Apr  7 09:44:38 2020, MaxMem=13421772800 cpu:       1.1
 (Enter /opt/g09gh/gaussian/g09/l607.exe)
 ******************************Gaussian NBO Version 3.1******************************
             N A T U R A L   A T O M I C   O R B I T A L   A N D
          N A T U R A L   B O N D   O R B I T A L   A N A L Y S I S
 ******************************Gaussian NBO Version 3.1******************************

       /RESON  / : Allow strongly delocalized NBO set
       /BNDIDX / : Print bond indices based on the NAO density matrix

 Analyzing the MP2 density

 Job title: MonoMethylPhosphate0H Gaussian SP Calculation on node37.bme.utex

 Storage needed:    121010 in NPA,    160716 in NBO (********** available)


 NATURAL POPULATIONS:  Natural atomic orbital occupancies 
                                                          
   NAO  Atom  No  lang   Type(AO)    Occupancy
 --------------------------------------------
     1    P    1  S      Cor( 1S)     2.00000
     2    P    1  S      Cor( 2S)     1.99897
     3    P    1  S      Val( 3S)     0.67864
     4    P    1  S      Ryd( 4S)     0.00879
     5    P    1  S      Ryd( 5S)     0.00042
     6    P    1  S      Ryd( 6S)     0.00030
     7    P    1  S      Ryd( 7S)     0.00000
     8    P    1  px     Cor( 2p)     1.99982
     9    P    1  px     Val( 3p)     0.55511
    10    P    1  px     Ryd( 4p)     0.01010
    11    P    1  px     Ryd( 5p)     0.00144
    12    P    1  px     Ryd( 6p)     0.00032
    13    P    1  px     Ryd( 7p)     0.00003
    14    P    1  py     Cor( 2p)     1.99984
    15    P    1  py     Val( 3p)     0.54541
    16    P    1  py     Ryd( 4p)     0.01831
    17    P    1  py     Ryd( 5p)     0.00148
    18    P    1  py     Ryd( 6p)     0.00022
    19    P    1  py     Ryd( 7p)     0.00003
    20    P    1  pz     Cor( 2p)     1.99986
    21    P    1  pz     Val( 3p)     0.55054
    22    P    1  pz     Ryd( 4p)     0.02027
    23    P    1  pz     Ryd( 5p)     0.00184
    24    P    1  pz     Ryd( 6p)     0.00016
    25    P    1  pz     Ryd( 7p)     0.00003
    26    P    1  dxy    Ryd( 3d)     0.02496
    27    P    1  dxy    Ryd( 4d)     0.00069
    28    P    1  dxz    Ryd( 3d)     0.03234
    29    P    1  dxz    Ryd( 4d)     0.00037
    30    P    1  dyz    Ryd( 3d)     0.03022
    31    P    1  dyz    Ryd( 4d)     0.00077
    32    P    1  dx2y2  Ryd( 3d)     0.03042
    33    P    1  dx2y2  Ryd( 4d)     0.00047
    34    P    1  dz2    Ryd( 3d)     0.03104
    35    P    1  dz2    Ryd( 4d)     0.00058

    36    O    2  S      Cor( 1S)     1.99966
    37    O    2  S      Val( 2S)     1.70180
    38    O    2  S      Ryd( 3S)     0.01230
    39    O    2  S      Ryd( 4S)     0.00074
    40    O    2  S      Ryd( 5S)     0.00001
    41    O    2  px     Val( 2p)     1.46222
    42    O    2  px     Ryd( 3p)     0.00725
    43    O    2  px     Ryd( 4p)     0.00270
    44    O    2  px     Ryd( 5p)     0.00042
    45    O    2  py     Val( 2p)     1.72468
    46    O    2  py     Ryd( 3p)     0.01428
    47    O    2  py     Ryd( 4p)     0.00183
    48    O    2  py     Ryd( 5p)     0.00044
    49    O    2  pz     Val( 2p)     1.88978
    50    O    2  pz     Ryd( 3p)     0.01959
    51    O    2  pz     Ryd( 4p)     0.00154
    52    O    2  pz     Ryd( 5p)     0.00051
    53    O    2  dxy    Ryd( 3d)     0.01066
    54    O    2  dxy    Ryd( 4d)     0.00039
    55    O    2  dxz    Ryd( 3d)     0.00550
    56    O    2  dxz    Ryd( 4d)     0.00036
    57    O    2  dyz    Ryd( 3d)     0.00748
    58    O    2  dyz    Ryd( 4d)     0.00043
    59    O    2  dx2y2  Ryd( 3d)     0.00659
    60    O    2  dx2y2  Ryd( 4d)     0.00039
    61    O    2  dz2    Ryd( 3d)     0.00794
    62    O    2  dz2    Ryd( 4d)     0.00042

    63    O    3  S      Cor( 1S)     1.99963
    64    O    3  S      Val( 2S)     1.81655
    65    O    3  S      Ryd( 3S)     0.00894
    66    O    3  S      Ryd( 4S)     0.00078
    67    O    3  S      Ryd( 5S)     0.00001
    68    O    3  px     Val( 2p)     1.74422
    69    O    3  px     Ryd( 3p)     0.01605
    70    O    3  px     Ryd( 4p)     0.00056
    71    O    3  px     Ryd( 5p)     0.00014
    72    O    3  py     Val( 2p)     1.73587
    73    O    3  py     Ryd( 3p)     0.01544
    74    O    3  py     Ryd( 4p)     0.00060
    75    O    3  py     Ryd( 5p)     0.00019
    76    O    3  pz     Val( 2p)     1.84776
    77    O    3  pz     Ryd( 3p)     0.01953
    78    O    3  pz     Ryd( 4p)     0.00049
    79    O    3  pz     Ryd( 5p)     0.00002
    80    O    3  dxy    Ryd( 3d)     0.01302
    81    O    3  dxy    Ryd( 4d)     0.00045
    82    O    3  dxz    Ryd( 3d)     0.00740
    83    O    3  dxz    Ryd( 4d)     0.00041
    84    O    3  dyz    Ryd( 3d)     0.00762
    85    O    3  dyz    Ryd( 4d)     0.00041
    86    O    3  dx2y2  Ryd( 3d)     0.00960
    87    O    3  dx2y2  Ryd( 4d)     0.00043
    88    O    3  dz2    Ryd( 3d)     0.00841
    89    O    3  dz2    Ryd( 4d)     0.00043

    90    O    4  S      Cor( 1S)     1.99963
    91    O    4  S      Val( 2S)     1.81904
    92    O    4  S      Ryd( 3S)     0.00869
    93    O    4  S      Ryd( 4S)     0.00083
    94    O    4  S      Ryd( 5S)     0.00001
    95    O    4  px     Val( 2p)     1.82500
    96    O    4  px     Ryd( 3p)     0.01933
    97    O    4  px     Ryd( 4p)     0.00047
    98    O    4  px     Ryd( 5p)     0.00002
    99    O    4  py     Val( 2p)     1.79379
   100    O    4  py     Ryd( 3p)     0.01757
   101    O    4  py     Ryd( 4p)     0.00054
   102    O    4  py     Ryd( 5p)     0.00014
   103    O    4  pz     Val( 2p)     1.71589
   104    O    4  pz     Ryd( 3p)     0.01449
   105    O    4  pz     Ryd( 4p)     0.00064
   106    O    4  pz     Ryd( 5p)     0.00028
   107    O    4  dxy    Ryd( 3d)     0.00677
   108    O    4  dxy    Ryd( 4d)     0.00042
   109    O    4  dxz    Ryd( 3d)     0.00842
   110    O    4  dxz    Ryd( 4d)     0.00042
   111    O    4  dyz    Ryd( 3d)     0.01267
   112    O    4  dyz    Ryd( 4d)     0.00046
   113    O    4  dx2y2  Ryd( 3d)     0.00703
   114    O    4  dx2y2  Ryd( 4d)     0.00040
   115    O    4  dz2    Ryd( 3d)     0.01101
   116    O    4  dz2    Ryd( 4d)     0.00044

   117    O    5  S      Cor( 1S)     1.99963
   118    O    5  S      Val( 2S)     1.81903
   119    O    5  S      Ryd( 3S)     0.00868
   120    O    5  S      Ryd( 4S)     0.00084
   121    O    5  S      Ryd( 5S)     0.00001
   122    O    5  px     Val( 2p)     1.82514
   123    O    5  px     Ryd( 3p)     0.01930
   124    O    5  px     Ryd( 4p)     0.00047
   125    O    5  px     Ryd( 5p)     0.00002
   126    O    5  py     Val( 2p)     1.79353
   127    O    5  py     Ryd( 3p)     0.01757
   128    O    5  py     Ryd( 4p)     0.00054
   129    O    5  py     Ryd( 5p)     0.00014
   130    O    5  pz     Val( 2p)     1.71620
   131    O    5  pz     Ryd( 3p)     0.01450
   132    O    5  pz     Ryd( 4p)     0.00065
   133    O    5  pz     Ryd( 5p)     0.00028
   134    O    5  dxy    Ryd( 3d)     0.00677
   135    O    5  dxy    Ryd( 4d)     0.00042
   136    O    5  dxz    Ryd( 3d)     0.00843
   137    O    5  dxz    Ryd( 4d)     0.00042
   138    O    5  dyz    Ryd( 3d)     0.01269
   139    O    5  dyz    Ryd( 4d)     0.00046
   140    O    5  dx2y2  Ryd( 3d)     0.00703
   141    O    5  dx2y2  Ryd( 4d)     0.00040
   142    O    5  dz2    Ryd( 3d)     0.01099
   143    O    5  dz2    Ryd( 4d)     0.00044

   144    C    6  S      Cor( 1S)     1.99916
   145    C    6  S      Val( 2S)     1.04608
   146    C    6  S      Ryd( 3S)     0.00761
   147    C    6  S      Ryd( 4S)     0.00029
   148    C    6  S      Ryd( 5S)     0.00005
   149    C    6  px     Val( 2p)     0.87236
   150    C    6  px     Ryd( 3p)     0.00629
   151    C    6  px     Ryd( 4p)     0.00118
   152    C    6  px     Ryd( 5p)     0.00028
   153    C    6  py     Val( 2p)     1.02686
   154    C    6  py     Ryd( 3p)     0.00765
   155    C    6  py     Ryd( 4p)     0.00091
   156    C    6  py     Ryd( 5p)     0.00021
   157    C    6  pz     Val( 2p)     1.15648
   158    C    6  pz     Ryd( 3p)     0.00622
   159    C    6  pz     Ryd( 4p)     0.00154
   160    C    6  pz     Ryd( 5p)     0.00024
   161    C    6  dxy    Ryd( 3d)     0.00528
   162    C    6  dxy    Ryd( 4d)     0.00039
   163    C    6  dxz    Ryd( 3d)     0.00752
   164    C    6  dxz    Ryd( 4d)     0.00042
   165    C    6  dyz    Ryd( 3d)     0.00578
   166    C    6  dyz    Ryd( 4d)     0.00033
   167    C    6  dx2y2  Ryd( 3d)     0.00648
   168    C    6  dx2y2  Ryd( 4d)     0.00036
   169    C    6  dz2    Ryd( 3d)     0.00533
   170    C    6  dz2    Ryd( 4d)     0.00035

   171    H    7  S      Val( 1S)     0.85010
   172    H    7  S      Ryd( 2S)     0.00529
   173    H    7  S      Ryd( 3S)     0.00072
   174    H    7  S      Ryd( 4S)     0.00052
   175    H    7  px     Ryd( 2p)     0.00211
   176    H    7  px     Ryd( 3p)     0.00024
   177    H    7  py     Ryd( 2p)     0.00124
   178    H    7  py     Ryd( 3p)     0.00031
   179    H    7  pz     Ryd( 2p)     0.00093
   180    H    7  pz     Ryd( 3p)     0.00037

   181    H    8  S      Val( 1S)     0.89385
   182    H    8  S      Ryd( 2S)     0.00434
   183    H    8  S      Ryd( 3S)     0.00064
   184    H    8  S      Ryd( 4S)     0.00024
   185    H    8  px     Ryd( 2p)     0.00054
   186    H    8  px     Ryd( 3p)     0.00033
   187    H    8  py     Ryd( 2p)     0.00061
   188    H    8  py     Ryd( 3p)     0.00015
   189    H    8  pz     Ryd( 2p)     0.00086
   190    H    8  pz     Ryd( 3p)     0.00015

   191    H    9  S      Val( 1S)     0.85148
   192    H    9  S      Ryd( 2S)     0.00529
   193    H    9  S      Ryd( 3S)     0.00072
   194    H    9  S      Ryd( 4S)     0.00053
   195    H    9  px     Ryd( 2p)     0.00211
   196    H    9  px     Ryd( 3p)     0.00025
   197    H    9  py     Ryd( 2p)     0.00128
   198    H    9  py     Ryd( 3p)     0.00029
   199    H    9  pz     Ryd( 2p)     0.00090
   200    H    9  pz     Ryd( 3p)     0.00039

 WARNING:  1 low occupancy (<1.9990e) core orbital  found on  P    1


 Summary of Natural Population Analysis:                  
                                                          
                                       Natural Population 
                Natural  -----------------------------------------------
    Atom  No    Charge         Core      Valence    Rydberg      Total
 -----------------------------------------------------------------------
      P    1    2.45620      9.99849     2.32971    0.21560    12.54380
      O    2   -0.87989      1.99966     6.77848    0.10175     8.87989
      O    3   -1.25495      1.99963     7.14440    0.11092     9.25495
      O    4   -1.26439      1.99963     7.15371    0.11105     9.26439
      O    5   -1.26456      1.99963     7.15391    0.11103     9.26456
      C    6   -0.16563      1.99916     4.10179    0.06468     6.16563
      H    7    0.13816      0.00000     0.85010    0.01175     0.86184
      H    8    0.09829      0.00000     0.89385    0.00786     0.90171
      H    9    0.13678      0.00000     0.85148    0.01175     0.86322
 =======================================================================
   * Total *   -2.00000     19.99619    37.25742    0.74639    58.00000

                                 Natural Population      
 --------------------------------------------------------
   Core                      19.99619 ( 99.9809% of  20)
   Valence                   37.25742 ( 98.0458% of  38)
   Natural Minimal Basis     57.25361 ( 98.7131% of  58)
   Natural Rydberg Basis      0.74639 (  1.2869% of  58)
 --------------------------------------------------------

    Atom  No          Natural Electron Configuration
 ----------------------------------------------------------------------------
      P    1      [core]3S( 0.68)3p( 1.65)4S( 0.01)3d( 0.15)4p( 0.05)
      O    2      [core]2S( 1.70)2p( 5.08)3S( 0.01)3p( 0.04)3d( 0.04)4p( 0.01)
      O    3      [core]2S( 1.82)2p( 5.33)3S( 0.01)3p( 0.05)3d( 0.05)
      O    4      [core]2S( 1.82)2p( 5.33)3S( 0.01)3p( 0.05)3d( 0.05)
      O    5      [core]2S( 1.82)2p( 5.33)3S( 0.01)3p( 0.05)3d( 0.05)
      C    6      [core]2S( 1.05)2p( 3.06)3S( 0.01)3p( 0.02)3d( 0.03)
      H    7            1S( 0.85)2S( 0.01)
      H    8            1S( 0.89)
      H    9            1S( 0.85)2S( 0.01)


 Wiberg bond index matrix in the NAO basis:                                    

     Atom    1       2       3       4       5       6       7       8       9
     ---- ------  ------  ------  ------  ------  ------  ------  ------  ------
   1.  P  0.0000  0.4552  0.9632  0.9526  0.9521  0.0056  0.0010  0.0070  0.0010
   2.  O  0.4552  0.0000  0.0335  0.0359  0.0361  0.9097  0.0344  0.0171  0.0348
   3.  O  0.9632  0.0335  0.0000  0.0563  0.0563  0.0120  0.0012  0.0021  0.0011
   4.  O  0.9526  0.0359  0.0563  0.0000  0.0573  0.0054  0.0046  0.0013  0.0004
   5.  O  0.9521  0.0361  0.0563  0.0573  0.0000  0.0057  0.0004  0.0015  0.0043
   6.  C  0.0056  0.9097  0.0120  0.0054  0.0057  0.0000  0.9005  0.9195  0.9008
   7.  H  0.0010  0.0344  0.0012  0.0046  0.0004  0.9005  0.0000  0.0011  0.0015
   8.  H  0.0070  0.0171  0.0021  0.0013  0.0015  0.9195  0.0011  0.0000  0.0011
   9.  H  0.0010  0.0348  0.0011  0.0004  0.0043  0.9008  0.0015  0.0011  0.0000


 Wiberg bond index, Totals by atom:                                            

     Atom    1
     ---- ------
   1.  P  3.3378
   2.  O  1.5567
   3.  O  1.1257
   4.  O  1.1140
   5.  O  1.1137
   6.  C  3.6593
   7.  H  0.9447
   8.  H  0.9507
   9.  H  0.9451


 Atom-atom overlap-weighted NAO bond order:                                    

     Atom    1       2       3       4       5       6       7       8       9
     ---- ------  ------  ------  ------  ------  ------  ------  ------  ------
   1.  P  0.0000  0.5695  1.0640  1.0579  1.0576  0.0074 -0.0026 -0.0003 -0.0025
   2.  O  0.5695  0.0000 -0.0333 -0.0361 -0.0363  0.7698 -0.0159 -0.0121 -0.0159
   3.  O  1.0640 -0.0333  0.0000 -0.0384 -0.0384  0.0014 -0.0002  0.0000 -0.0002
   4.  O  1.0579 -0.0361 -0.0384  0.0000 -0.0394  0.0028 -0.0015  0.0010  0.0005
   5.  O  1.0576 -0.0363 -0.0384 -0.0394  0.0000  0.0038  0.0004  0.0010 -0.0017
   6.  C  0.0074  0.7698  0.0014  0.0028  0.0038  0.0000  0.7907  0.8048  0.7907
   7.  H -0.0026 -0.0159 -0.0002 -0.0015  0.0004  0.7907  0.0000  0.0114  0.0144
   8.  H -0.0003 -0.0121  0.0000  0.0010  0.0010  0.8048  0.0114  0.0000  0.0114
   9.  H -0.0025 -0.0159 -0.0002  0.0005 -0.0017  0.7907  0.0144  0.0114  0.0000


 Atom-atom overlap-weighted NAO bond order, Totals by atom:                    

     Atom    1
     ---- ------
   1.  P  3.7511
   2.  O  1.1897
   3.  O  0.9549
   4.  O  0.9466
   5.  O  0.9470
   6.  C  3.1714
   7.  H  0.7967
   8.  H  0.8172
   9.  H  0.7968


 MO bond order:                                                                

     Atom    1       2       3       4       5       6       7       8       9
     ---- ------  ------  ------  ------  ------  ------  ------  ------  ------
   1.  P  0.0000  0.4110  0.4601  0.1744  1.7455 -0.0274  0.0024  0.0048 -0.0192
   2.  O  0.4110  0.0000  0.1080  0.2566  0.0102 -0.5861  0.1956 -0.1275 -0.0761
   3.  O  0.4601  0.1080  0.0000  0.6319  0.0884 -0.1285 -0.0427  0.0069 -0.0046
   4.  O  0.1744  0.2566  0.6319  0.0000  0.3306  0.0007 -0.0436 -0.0696  0.0052
   5.  O  1.7455  0.0102  0.0884  0.3306  0.0000  0.0303  0.0171 -0.0549 -0.0275
   6.  C -0.0274 -0.5861 -0.1285  0.0007  0.0303  0.0000 -0.5878  0.3004  0.6699
   7.  H  0.0024  0.1956 -0.0427 -0.0436  0.0171 -0.5878  0.0000  0.0350  0.0447
   8.  H  0.0048 -0.1275  0.0069 -0.0696 -0.0549  0.3004  0.0350  0.0000  0.0485
   9.  H -0.0192 -0.0761 -0.0046  0.0052 -0.0275  0.6699  0.0447  0.0485  0.0000


 MO atomic valencies:                                                          

     Atom    1
     ---- ------
   1.  P  2.7517
   2.  O  0.1917
   3.  O  1.1195
   4.  O  1.2863
   5.  O  2.1398
   6.  C -0.3286
   7.  H -0.3793
   8.  H  0.1436
   9.  H  0.6410


 NATURAL BOND ORBITAL ANALYSIS:

 A bond orbital with an occupancy of -0.00007 electrons was found!
 Please check you input data.
 Leave Link  607 at Tue Apr  7 09:44:50 2020, MaxMem=13421772800 cpu:      97.4
 (Enter /opt/g09gh/gaussian/g09/l9999.exe)
 1\1\GINC-NODE37\SP\RMP2-FC\6-311++G(2d,2p)\C1H3O4P1(2-)\BDW2292\07-Apr
 -2020\0\\#P MP2/6-311++G(2d,2p) Sp Density=MP2 SCF=Save Guess=Huckel M
 axDisk=150GB Pop=NBORead\\MonoMethylPhosphate0H Gaussian SP Calculatio
 n on node37.bme.utexas.edu\\-2,1\P,0,0.520208,-0.055671,0.000872\O,0,-
 0.959163,0.813464,-0.010498\O,0,1.52589,1.093858,0.009565\O,0,0.495004
 ,-0.880276,-1.288445\O,0,0.473356,-0.882034,1.288454\C,0,-2.121548,0.0
 3425,-0.001414\H,0,-2.168274,-0.640526,-0.869952\H,0,-2.996534,0.69712
 ,-0.031921\H,0,-2.189717,-0.587123,0.904665\\Version=EM64L-G09RevA.02\
 State=1-A\HF=-679.9168759\MP2=-681.1077099\RMSD=6.581e-09\Dipole=-2.29
 83312,0.2145314,-0.0043109\Quadrupole=0.2902023,0.0763443,-0.3665466,-
 1.4866842,0.031331,-0.0075872\PG=C01 [X(C1H3O4P1)]\\@


 THE RED LIGHT IS ALWAYS LONGER THAN THE GREEN LIGHT.

                     -- PETER'S THEORY OF RELATIVITY
 Job cpu time:  0 days  0 hours 10 minutes 14.2 seconds.
 File lengths (MBytes):  RWF=     20 Int=      0 D2E=      0 Chk=      3 Scr=      1
 Normal termination of Gaussian 09 at Tue Apr  7 09:44:57 2020.
