9
MonoMethylPhosphate0H-opt.log	Energy: -428190.8872444
P          0.52021       -0.05567        0.00087
O         -0.95916        0.81346       -0.01050
O          1.52589        1.09386        0.00957
O          0.49500       -0.88028       -1.28845
O          0.47336       -0.88203        1.28845
C         -2.12155        0.03425       -0.00141
H         -2.16827       -0.64053       -0.86995
H         -2.99653        0.69712       -0.03192
H         -2.18972       -0.58712        0.90467
