MonoMethylPhosphate0H Gaussian OPT Calculation on node37.bme.utexas.edu 
FOpt      RwB97XD                                                     6-31G(d)            
Number of atoms                            I                9
Info1-9                                    I   N=           9
          20          20           0           0           0         110
           2          18        -802
Charge                                     I               -2
Multiplicity                               I                1
Number of electrons                        I               58
Number of alpha electrons                  I               29
Number of beta electrons                   I               29
Number of basis functions                  I              100
Number of independent functions            I              100
Number of point charges in /Mol/           I                0
Number of translation vectors              I                0
Atomic numbers                             I   N=           9
          15           8           8           8           8           6
           1           1           1
Nuclear charges                            R   N=           9
  1.50000000E+01  8.00000000E+00  8.00000000E+00  8.00000000E+00  8.00000000E+00
  6.00000000E+00  1.00000000E+00  1.00000000E+00  1.00000000E+00
Current cartesian coordinates              R   N=          27
  9.83050812E-01 -1.05203185E-01  1.64805897E-03 -1.81255622E+00  1.53722324E+00
 -1.98382442E-02  2.88351421E+00  2.06709259E+00  1.80752576E-02  9.35422071E-01
 -1.66347985E+00 -2.43480728E+00  8.94512538E-01 -1.66680273E+00  2.43482485E+00
 -4.00914395E+00  6.47230249E-02 -2.67252100E-03 -4.09744450E+00 -1.21041933E+00
 -1.64397060E+00 -5.66262842E+00  1.31736495E+00 -6.03212069E-02 -4.13796631E+00
 -1.10950203E+00  1.70956939E+00
Force Field                                I                0
Int Atom Types                             I   N=           9
           0           0           0           0           0           0
           0           0           0
MM charges                                 R   N=           9
  0.00000000E+00  0.00000000E+00  0.00000000E+00  0.00000000E+00  0.00000000E+00
  0.00000000E+00  0.00000000E+00  0.00000000E+00  0.00000000E+00
Integer atomic weights                     I   N=           9
          31          16          16          16          16          12
           1           1           1
Real atomic weights                        R   N=           9
  3.09737634E+01  1.59949146E+01  1.59949146E+01  1.59949146E+01  1.59949146E+01
  1.20000000E+01  1.00782504E+00  1.00782504E+00  1.00782504E+00
Atom fragment info                         I   N=           9
           0           0           0           0           0           0
           0           0           0
Atom residue num                           I   N=           9
           0           0           0           0           0           0
           0           0           0
Nuclear spins                              I   N=           9
           1           0           0           0           0           0
           1           1           1
Nuclear ZEff                               R   N=           9
 -1.29400000E+01 -5.60000000E+00 -5.60000000E+00 -5.60000000E+00 -5.60000000E+00
 -3.60000000E+00 -1.00000000E+00 -1.00000000E+00 -1.00000000E+00
Nuclear QMom                               R   N=           9
  0.00000000E+00  0.00000000E+00  0.00000000E+00  0.00000000E+00  0.00000000E+00
  0.00000000E+00  0.00000000E+00  0.00000000E+00  0.00000000E+00
Nuclear GFac                               R   N=           9
  1.13160000E+00  0.00000000E+00  0.00000000E+00  0.00000000E+00  0.00000000E+00
  0.00000000E+00  2.79284600E+00  2.79284600E+00  2.79284600E+00
MicOpt                                     I   N=           9
          -1          -1          -1          -1          -1          -1
          -1          -1          -1
Number of contracted shells                I               31
Number of primitive shells                 I               84
Pure/Cartesian d shells                    I                1
Pure/Cartesian f shells                    I                0
Highest angular momentum                   I                2
Largest degree of contraction              I                6
Shell types                                I   N=          31
           0          -1          -1          -1           2           0
          -1          -1           2           0          -1          -1
           2           0          -1          -1           2           0
          -1          -1           2           0          -1          -1
           2           0           0           0           0           0
           0
Number of primitives per shell             I   N=          31
           6           6           3           1           1           6
           3           1           1           6           3           1
           1           6           3           1           1           6
           3           1           1           6           3           1
           1           3           1           3           1           3
           1
Shell to atom map                          I   N=          31
           1           1           1           1           1           2
           2           2           2           3           3           3
           3           4           4           4           4           5
           5           5           5           6           6           6
           6           7           7           8           8           9
           9
Primitive exponents                        R   N=          84
  1.94133000E+04  2.90942000E+03  6.61364000E+02  1.85759000E+02  5.91943000E+01
  2.00310000E+01  3.39478000E+02  8.10101000E+01  2.58780000E+01  9.45221000E+00
  3.66566000E+00  1.46746000E+00  2.15623000E+00  7.48997000E-01  2.83145000E-01
  9.98317000E-02  5.50000000E-01  5.48467166E+03  8.25234946E+02  1.88046958E+02
  5.29645000E+01  1.68975704E+01  5.79963534E+00  1.55396162E+01  3.59993359E+00
  1.01376175E+00  2.70005823E-01  8.00000000E-01  5.48467166E+03  8.25234946E+02
  1.88046958E+02  5.29645000E+01  1.68975704E+01  5.79963534E+00  1.55396162E+01
  3.59993359E+00  1.01376175E+00  2.70005823E-01  8.00000000E-01  5.48467166E+03
  8.25234946E+02  1.88046958E+02  5.29645000E+01  1.68975704E+01  5.79963534E+00
  1.55396162E+01  3.59993359E+00  1.01376175E+00  2.70005823E-01  8.00000000E-01
  5.48467166E+03  8.25234946E+02  1.88046958E+02  5.29645000E+01  1.68975704E+01
  5.79963534E+00  1.55396162E+01  3.59993359E+00  1.01376175E+00  2.70005823E-01
  8.00000000E-01  3.04752488E+03  4.57369518E+02  1.03948685E+02  2.92101553E+01
  9.28666296E+00  3.16392696E+00  7.86827235E+00  1.88128854E+00  5.44249258E-01
  1.68714478E-01  8.00000000E-01  1.87311370E+01  2.82539436E+00  6.40121692E-01
  1.61277759E-01  1.87311370E+01  2.82539436E+00  6.40121692E-01  1.61277759E-01
  1.87311370E+01  2.82539436E+00  6.40121692E-01  1.61277759E-01
Contraction coefficients                   R   N=          84
  1.85159892E-03  1.42061917E-02  6.99994593E-02  2.40078860E-01  4.84761718E-01
  3.35199805E-01 -2.78217010E-03 -3.60499014E-02 -1.16631004E-01  9.68328036E-02
  6.14418023E-01  4.03798015E-01 -2.52924114E-01  3.28518447E-02  1.08125476E+00
  1.00000000E+00  1.00000000E+00  1.83107443E-03  1.39501722E-02  6.84450781E-02
  2.32714336E-01  4.70192898E-01  3.58520853E-01 -1.10777550E-01 -1.48026263E-01
  1.13076702E+00  1.00000000E+00  1.00000000E+00  1.83107443E-03  1.39501722E-02
  6.84450781E-02  2.32714336E-01  4.70192898E-01  3.58520853E-01 -1.10777550E-01
 -1.48026263E-01  1.13076702E+00  1.00000000E+00  1.00000000E+00  1.83107443E-03
  1.39501722E-02  6.84450781E-02  2.32714336E-01  4.70192898E-01  3.58520853E-01
 -1.10777550E-01 -1.48026263E-01  1.13076702E+00  1.00000000E+00  1.00000000E+00
  1.83107443E-03  1.39501722E-02  6.84450781E-02  2.32714336E-01  4.70192898E-01
  3.58520853E-01 -1.10777550E-01 -1.48026263E-01  1.13076702E+00  1.00000000E+00
  1.00000000E+00  1.83473713E-03  1.40373228E-02  6.88426223E-02  2.32184443E-01
  4.67941348E-01  3.62311985E-01 -1.19332420E-01 -1.60854152E-01  1.14345644E+00
  1.00000000E+00  1.00000000E+00  3.34946043E-02  2.34726953E-01  8.13757326E-01
  1.00000000E+00  3.34946043E-02  2.34726953E-01  8.13757326E-01  1.00000000E+00
  3.34946043E-02  2.34726953E-01  8.13757326E-01  1.00000000E+00
P(S=P) Contraction coefficients            R   N=          84
  0.00000000E+00  0.00000000E+00  0.00000000E+00  0.00000000E+00  0.00000000E+00
  0.00000000E+00  4.56461619E-03  3.36935719E-02  1.39754883E-01  3.39361717E-01
  4.50920624E-01  2.38585801E-01 -1.77653127E-02  2.74058196E-01  7.85421563E-01
  1.00000000E+00  0.00000000E+00  0.00000000E+00  0.00000000E+00  0.00000000E+00
  0.00000000E+00  0.00000000E+00  0.00000000E+00  7.08742682E-02  3.39752839E-01
  7.27158577E-01  1.00000000E+00  0.00000000E+00  0.00000000E+00  0.00000000E+00
  0.00000000E+00  0.00000000E+00  0.00000000E+00  0.00000000E+00  7.08742682E-02
  3.39752839E-01  7.27158577E-01  1.00000000E+00  0.00000000E+00  0.00000000E+00
  0.00000000E+00  0.00000000E+00  0.00000000E+00  0.00000000E+00  0.00000000E+00
  7.08742682E-02  3.39752839E-01  7.27158577E-01  1.00000000E+00  0.00000000E+00
  0.00000000E+00  0.00000000E+00  0.00000000E+00  0.00000000E+00  0.00000000E+00
  0.00000000E+00  7.08742682E-02  3.39752839E-01  7.27158577E-01  1.00000000E+00
  0.00000000E+00  0.00000000E+00  0.00000000E+00  0.00000000E+00  0.00000000E+00
  0.00000000E+00  0.00000000E+00  6.89990666E-02  3.16423961E-01  7.44308291E-01
  1.00000000E+00  0.00000000E+00  0.00000000E+00  0.00000000E+00  0.00000000E+00
  0.00000000E+00  0.00000000E+00  0.00000000E+00  0.00000000E+00  0.00000000E+00
  0.00000000E+00  0.00000000E+00  0.00000000E+00  0.00000000E+00
Coordinates of each shell                  R   N=          93
  9.83050812E-01 -1.05203185E-01  1.64805897E-03  9.83050812E-01 -1.05203185E-01
  1.64805897E-03  9.83050812E-01 -1.05203185E-01  1.64805897E-03  9.83050812E-01
 -1.05203185E-01  1.64805897E-03  9.83050812E-01 -1.05203185E-01  1.64805897E-03
 -1.81255622E+00  1.53722324E+00 -1.98382442E-02 -1.81255622E+00  1.53722324E+00
 -1.98382442E-02 -1.81255622E+00  1.53722324E+00 -1.98382442E-02 -1.81255622E+00
  1.53722324E+00 -1.98382442E-02  2.88351421E+00  2.06709259E+00  1.80752576E-02
  2.88351421E+00  2.06709259E+00  1.80752576E-02  2.88351421E+00  2.06709259E+00
  1.80752576E-02  2.88351421E+00  2.06709259E+00  1.80752576E-02  9.35422071E-01
 -1.66347985E+00 -2.43480728E+00  9.35422071E-01 -1.66347985E+00 -2.43480728E+00
  9.35422071E-01 -1.66347985E+00 -2.43480728E+00  9.35422071E-01 -1.66347985E+00
 -2.43480728E+00  8.94512538E-01 -1.66680273E+00  2.43482485E+00  8.94512538E-01
 -1.66680273E+00  2.43482485E+00  8.94512538E-01 -1.66680273E+00  2.43482485E+00
  8.94512538E-01 -1.66680273E+00  2.43482485E+00 -4.00914395E+00  6.47230249E-02
 -2.67252100E-03 -4.00914395E+00  6.47230249E-02 -2.67252100E-03 -4.00914395E+00
  6.47230249E-02 -2.67252100E-03 -4.00914395E+00  6.47230249E-02 -2.67252100E-03
 -4.09744450E+00 -1.21041933E+00 -1.64397060E+00 -4.09744450E+00 -1.21041933E+00
 -1.64397060E+00 -5.66262842E+00  1.31736495E+00 -6.03212069E-02 -5.66262842E+00
  1.31736495E+00 -6.03212069E-02 -4.13796631E+00 -1.10950203E+00  1.70956939E+00
 -4.13796631E+00 -1.10950203E+00  1.70956939E+00
Constraint Structure                       R   N=          27
  9.53759958E-01  2.70888038E-04 -8.77451509E-02 -1.74425811E+00 -1.92884926E-03
  1.48346513E+00  2.94890595E+00 -2.48600880E-03  1.99362746E+00  8.90091020E-01
  2.42502255E+00 -1.64675850E+00  8.90352394E-01 -2.42105280E+00 -1.65259576E+00
 -4.04162711E+00 -1.81793923E-04  1.01612931E-01 -4.16109456E+00  1.69306137E+00
 -1.07442521E+00 -5.61541152E+00 -2.12262004E-03  1.43830211E+00 -4.16086069E+00
 -1.69035046E+00 -1.07928388E+00
Num ILSW                                   I              100
ILSW                                       I   N=         100
           0           1           0           0           2           0
           0           0           0           0        4639 20132659200
           0           0           0           0           0           0
           0           0           0           0           1           0
           1           0           0           0           0           0
           0           0      100000           0          -1           0
           0           0           0           0           0           0
           0           0           0           1           0           0
           0           0           1           0           0           0
           0           0           2          40           0           0
           0           0          58           0           0           0
           0           0           0           0           0           0
           0           0           0           0           0           0
           0           0           0           0           0           0
           0           0           0           0           0           0
           0           0           0           0           0           0
           0           0           0           0
Num RLSW                                   I               40
RLSW                                       R   N=          40
  1.00000000E+00  1.00000000E+00  1.00000000E+00  1.00000000E+00  1.00000000E+00
  0.00000000E+00  2.00000000E-01  2.22036000E-01  0.00000000E+00  7.77964000E-01
  0.00000000E+00  2.00000000E-01  0.00000000E+00  0.00000000E+00  1.00000000E+00
  0.00000000E+00  0.00000000E+00  1.00000000E+00  0.00000000E+00  0.00000000E+00
  0.00000000E+00  0.00000000E+00  1.00000000E+00  0.00000000E+00  0.00000000E+00
  0.00000000E+00  0.00000000E+00  1.00000000E+00  0.00000000E+00  0.00000000E+00
  0.00000000E+00  0.00000000E+00  0.00000000E+00  0.00000000E+00  0.00000000E+00
  0.00000000E+00  0.00000000E+00  0.00000000E+00  1.00000000E+00  1.00000000E+00
MxBond                                     I                4
NBond                                      I   N=           9
           4           2           1           1           1           4
           1           1           1
IBond                                      I   N=          36
           2           3           4           5           1           6
           0           0           1           0           0           0
           1           0           0           0           1           0
           0           0           2           7           8           9
           6           0           0           0           6           0
           0           0           6           0           0           0
RBond                                      R   N=          36
  1.00000000E+00  2.00000000E+00  2.00000000E+00  2.00000000E+00  1.00000000E+00
  1.00000000E+00  0.00000000E+00  0.00000000E+00  2.00000000E+00  0.00000000E+00
  0.00000000E+00  0.00000000E+00  2.00000000E+00  0.00000000E+00  0.00000000E+00
  0.00000000E+00  2.00000000E+00  0.00000000E+00  0.00000000E+00  0.00000000E+00
  1.00000000E+00  1.00000000E+00  1.00000000E+00  1.00000000E+00  1.00000000E+00
  0.00000000E+00  0.00000000E+00  0.00000000E+00  1.00000000E+00  0.00000000E+00
  0.00000000E+00  0.00000000E+00  1.00000000E+00  0.00000000E+00  0.00000000E+00
  0.00000000E+00
Virial Ratio                               R      2.006141748974831E+00
SCF Energy                                 R     -6.823656190025091E+02
Total Energy                               R     -6.823656190025091E+02
RMS Force                                  R      8.283931381716725E-05
RMS Density                                R      7.802412829370270E-09
External E-field                           R   N=          35
  0.00000000E+00  0.00000000E+00  0.00000000E+00  0.00000000E+00  0.00000000E+00
  0.00000000E+00  0.00000000E+00  0.00000000E+00  0.00000000E+00  0.00000000E+00
  0.00000000E+00  0.00000000E+00  0.00000000E+00  0.00000000E+00  0.00000000E+00
  0.00000000E+00  0.00000000E+00  0.00000000E+00  0.00000000E+00  0.00000000E+00
  0.00000000E+00  0.00000000E+00  0.00000000E+00  0.00000000E+00  0.00000000E+00
  0.00000000E+00  0.00000000E+00  0.00000000E+00  0.00000000E+00  0.00000000E+00
  0.00000000E+00  0.00000000E+00  0.00000000E+00  0.00000000E+00  0.00000000E+00
IOpCl                                      I                0
IROHF                                      I                0
Alpha Orbital Energies                     R   N=         100
 -7.72524638E+01 -1.92084397E+01 -1.91273001E+01 -1.91272756E+01 -1.91272178E+01
 -1.03028562E+01 -6.65941414E+00 -4.81068497E+00 -4.80711212E+00 -4.80700072E+00
 -1.06840563E+00 -9.88679022E-01 -9.23264133E-01 -9.22171470E-01 -7.34347466E-01
 -5.58082941E-01 -4.94085302E-01 -4.89951217E-01 -4.61745894E-01 -3.98800479E-01
 -3.92202873E-01 -3.69405391E-01 -3.14902001E-01 -3.07112887E-01 -3.04908784E-01
 -3.02138009E-01 -2.67933331E-01 -2.59815002E-01 -2.35357647E-01  2.18752461E-01
  2.52809918E-01  2.74586013E-01  2.75111658E-01  2.88698671E-01  3.48997286E-01
  3.60102545E-01  3.70786757E-01  4.77143426E-01  4.94267938E-01  5.52550999E-01
  5.60261662E-01  6.64485788E-01  6.92006518E-01  7.46311595E-01  8.51526655E-01
  8.83897179E-01  9.44416576E-01  9.49788692E-01  9.87592126E-01  9.96226593E-01
  9.99099744E-01  1.04867676E+00  1.08909524E+00  1.14110985E+00  1.14375205E+00
  1.19158325E+00  1.20974817E+00  1.22040667E+00  1.22295397E+00  1.26389230E+00
  1.28986572E+00  1.33337024E+00  1.36867407E+00  1.39005214E+00  1.41385735E+00
  1.53443950E+00  1.53669653E+00  1.64002829E+00  1.69876948E+00  1.75161002E+00
  1.80455791E+00  1.93823598E+00  1.96793398E+00  1.99955816E+00  2.00498766E+00
  2.01437041E+00  2.01552317E+00  2.02032880E+00  2.04684597E+00  2.13245084E+00
  2.21023567E+00  2.24858548E+00  2.27118528E+00  2.30185288E+00  2.30383350E+00
  2.48086683E+00  2.48226945E+00  2.50645355E+00  2.56098491E+00  2.64437360E+00
  2.87506037E+00  2.93899913E+00  3.00326103E+00  3.02530227E+00  3.69394304E+00
  3.88207672E+00  3.90719016E+00  4.07146390E+00  4.13991167E+00  4.37890588E+00
Alpha MO coefficients                      R   N=       10000
  9.96283612E-01  1.40642630E-02 -3.50525529E-05  1.74818674E-05 -3.06634886E-07
 -2.66215896E-02  6.26530633E-05 -3.34301829E-05  9.85688205E-07  2.09945328E-03
  3.04579388E-05 -1.25987031E-04  1.14815829E-06  9.24566382E-03  9.25945530E-03
  9.26198476E-03 -8.40684373E-06  1.20972660E-07 -3.80938366E-07 -3.06388908E-05
 -1.05888283E-04 -2.33333654E-05  4.10488819E-05 -4.61098634E-07  9.80230989E-04
  3.36995549E-04 -3.14911415E-04  3.43000816E-06 -1.82906763E-04 -1.19703613E-04
 -9.83890936E-05  1.14535767E-04 -1.44801746E-06  4.12761148E-07 -1.29371277E-05
 -1.26353280E-04  1.13776146E-04  1.30914805E-04  1.02903174E-06  9.68227794E-04
 -3.64761484E-04 -3.94688350E-04 -3.39021701E-06 -1.19166419E-04 -1.54719883E-04
 -2.25179223E-05 -1.28158480E-04 -9.34325572E-07 -1.09890420E-06 -4.66465335E-06
 -9.37763144E-05 -3.10902621E-06 -9.43170818E-05 -1.39380745E-04  8.02308087E-04
 -2.13845802E-06  2.96624872E-04  4.14937851E-04  3.57855759E-06 -6.16476565E-05
 -1.65170411E-04 -4.24082801E-06 -7.41264461E-06 -1.17932545E-04 -4.38732299E-06
 -9.27583261E-05 -5.66199652E-06 -9.44687016E-05  1.38844534E-04  7.97688993E-04
  5.38586149E-06  2.96567048E-04 -4.13003685E-04  4.19478088E-06 -6.09800264E-05
 -1.63885674E-04 -6.26314771E-06  1.04967608E-05  1.18261573E-04 -2.13463015E-05
 -9.86805749E-05 -6.67609869E-05  2.11770456E-05 -1.35508974E-06  2.35424676E-04
 -1.62315399E-05 -1.47170550E-04  6.26140070E-06 -3.98967432E-05 -6.88299109E-06
 -5.38685364E-05 -1.68886440E-05 -1.67267262E-07  1.60750659E-07 -2.32152693E-06
 -1.98999423E-04 -1.82254515E-05  5.39500825E-05  2.69350965E-07 -2.03536090E-04
  2.62568675E-06 -5.79796049E-06  7.06171846E-05 -4.49104533E-05  5.51522611E-07
 -1.36239804E-04 -1.25656223E-04  9.67907053E-05 -1.07903066E-06 -2.08267619E-03
  7.04111083E-04 -8.11639623E-04  1.00355512E-05  2.92451084E-04  1.12630236E-04
 -1.25401269E-05 -1.71395104E-04  2.61708047E-06 -1.28150778E-06  9.92943511E-01
  2.54601636E-02 -2.94750933E-04 -7.86843166E-04  9.42920389E-06  1.10617597E-02
  3.32081707E-04  4.58981165E-05 -9.00637100E-07 -7.75933506E-03 -7.72932919E-03
 -7.62110052E-03 -8.34895932E-05  9.98261631E-07  1.50524889E-06 -3.78408655E-05
 -1.52502131E-04 -1.27185159E-05 -8.11736214E-06  1.86317802E-07  1.00869091E-03
 -1.28225011E-04 -7.99591080E-05 -2.46272788E-06 -2.07604911E-04 -9.95987570E-05
 -5.89145962E-05  2.73570865E-05 -1.25430359E-06  3.23378728E-07 -3.53888973E-05
 -9.01946721E-05  1.03332638E-05 -1.66832464E-05  2.09367042E-05  5.67974944E-04
 -6.98160956E-05  1.99934669E-04  6.85017690E-05 -8.82923453E-05 -3.81446663E-05
 -3.80112937E-05  4.82392628E-05  1.75012658E-06  3.97469088E-06 -3.53933000E-05
 -8.92141052E-05  1.11203222E-05 -1.67220156E-05 -2.04685096E-05  5.62132781E-04
 -6.97744204E-05  1.99331741E-04 -7.00138880E-05 -8.76161883E-05 -3.77942358E-05
 -3.73595852E-05  4.81285812E-05 -2.62410490E-06 -3.31155417E-06 -2.34654204E-06
  2.40573047E-04  3.23785502E-04  2.93225496E-04 -3.88797945E-06 -1.14007319E-03
 -2.84307051E-04 -5.69505815E-04  1.03577790E-05  1.79600671E-04  8.08205224E-05
 -8.50281731E-06  1.76691428E-04 -2.96161538E-06 -8.13591063E-08  6.74110619E-06
  5.03386731E-05  8.97719121E-05  1.44067009E-04  9.26701361E-06  4.48902793E-05
  9.08486307E-06 -8.31180849E-05 -2.36520603E-05 -1.87991759E-05 -1.83289893E-06
  3.88923800E-04  2.51816591E-04  2.05480720E-04  2.08060927E-05 -1.17135391E-03
 -1.12652153E-03 -1.44345931E-03 -1.05721356E-04 -8.54298959E-05 -1.10436296E-05
 -2.71249303E-04  1.58133940E-04  1.28625552E-07 -1.39003703E-05 -4.51084093E-05
 -1.36463492E-04  7.34654077E-07  9.58780439E-06 -3.11482810E-06  8.05875542E-04
  4.40902351E-05 -8.15251183E-05  1.69068457E-05 -1.75701896E-04 -9.83889716E-05
 -9.61668632E-05 -2.70242820E-05 -1.06773031E-06  2.00040121E-06  9.85766625E-01
  2.52513032E-02 -4.80724937E-04 -5.54158390E-04 -8.25351255E-06  1.03088521E-02
 -1.04481496E-04 -9.74719169E-05  1.80890630E-05 -7.47380663E-03 -7.47799859E-03
 -7.43126011E-03 -3.76899558E-05 -2.17251028E-06  8.54023944E-07 -1.15325806E-01
 -2.91794427E-03 -3.91896034E-05 -7.65186620E-05 -2.78563323E-05 -1.31690839E-03
  1.94656666E-04  2.18192824E-04 -1.18868449E-04  9.02774189E-04  9.18936282E-04
  9.06684972E-04 -2.78051301E-05  1.63316276E-05  2.23320490E-05 -3.19183293E-02
 -7.76515844E-04 -3.77774604E-05 -4.75494271E-05 -2.59940720E-05 -4.79619858E-04
  1.91649061E-04  2.38170057E-04  1.28717022E-04  2.75473147E-04  2.93198449E-04
  2.76060821E-04 -2.72300727E-05 -1.63448468E-05 -1.78075274E-05  1.66321974E-05
  7.43948593E-05  3.56421031E-05 -3.79899439E-05  6.98144393E-07 -4.09892321E-04
 -4.19466374E-04  2.02028445E-04 -8.87346284E-06  1.58021304E-05  4.71467291E-05
  1.36244700E-05  1.18539954E-05  7.53826510E-07 -1.67742245E-06  5.83920228E-05
 -1.08288732E-05 -1.91169203E-05 -1.85208440E-04  5.96890293E-05 -1.35525161E-06
  1.52344701E-05 -6.23187937E-05  4.37735145E-06  1.04605514E-05  2.23319018E-05
  7.13388296E-04 -5.21371890E-05 -8.27060546E-05 -2.51511312E-04 -2.66503334E-03
  4.47855740E-04  6.23400129E-04  1.18719011E-03 -1.92042962E-04 -1.79518488E-04
 -6.30159041E-05  5.36713452E-06  2.31512042E-05  1.89733388E-04 -6.97557935E-06
 -7.89936687E-05 -1.30662711E-05 -1.51211610E-05  2.89115170E-05  4.84759696E-04
  2.55291178E-04  8.94844034E-06 -1.43462468E-04 -4.46877834E-05 -7.22958786E-05
 -5.01427303E-05 -1.98783872E-05 -1.53998508E-06 -3.72989299E-05  1.14064139E-01
  2.90211385E-03 -6.40322762E-05 -7.04028807E-05  4.75797136E-05  1.36236488E-03
 -1.02582526E-04 -1.16889480E-04 -2.34784966E-04 -8.35629031E-04 -8.59518940E-04
 -8.81562738E-04  4.22000272E-06  2.18967322E-05 -1.48292768E-05  9.85656101E-01
  2.51916736E-02  2.19834191E-05  3.83875112E-04  6.09220601E-04  1.05750559E-02
 -8.51793971E-05  1.59468705E-04  2.16467225E-04 -7.47936739E-03 -7.48447162E-03
 -7.50638460E-03 -8.60658759E-06 -9.22127730E-06 -3.35360596E-05 -3.88534711E-02
 -1.12624079E-03  1.40832804E-05  2.54578328E-05  4.77568118E-05  3.42842052E-04
 -8.58646235E-05 -6.85045171E-05 -3.19656714E-04  2.20678746E-04  1.91577615E-04
  2.24529619E-04 -1.30441895E-05  1.09462676E-05 -3.51977939E-05 -1.84254154E-05
 -1.03642883E-04 -3.90114666E-06  3.10464177E-05  7.43456697E-06  4.94058216E-04
  3.35497854E-04 -1.43285079E-04 -4.44273272E-05  9.76080418E-06 -2.21186075E-05
 -2.32848464E-05  5.14284768E-07 -1.55147199E-06 -1.07216163E-06  9.25332451E-06
 -1.16264653E-04  2.60101670E-06  1.20672583E-04 -6.12827500E-05  3.80778678E-05
  1.55012246E-05 -6.02131367E-05  7.01332091E-06  1.31072721E-05 -2.10667798E-05
  7.28409182E-04 -8.02376739E-05 -1.08979108E-04  2.36862191E-04 -2.74137134E-03
  5.91131701E-04  7.91839785E-04 -1.09963292E-03 -1.99186242E-04 -1.91603278E-04
 -4.58303501E-05 -4.21513769E-06 -2.48049228E-05 -1.77572942E-04 -4.07973970E-06
 -7.61273352E-05 -1.36507752E-05 -1.56677084E-05 -2.57394781E-05  4.66585042E-04
  2.63692214E-04  7.01202569E-06  1.27691655E-04 -3.47435309E-05 -6.99903987E-05
 -4.82570276E-05 -1.85270994E-05  2.66127308E-06  3.63581955E-05  3.62000502E-02
  9.05438804E-04 -2.59465963E-05 -2.68836131E-05 -4.53873835E-05  5.63064318E-04
 -1.04454130E-04 -1.17658552E-04  2.17924307E-04 -2.43113540E-04 -2.68833678E-04
 -2.97293463E-04  7.76779126E-06 -1.95770667E-05  1.38855905E-05  3.48387549E-02
  7.54069066E-04  2.01624961E-05  5.69751086E-05 -6.01673063E-06  1.14248316E-03
 -1.14805222E-04 -7.67398293E-05  3.44568617E-04 -3.40751844E-04 -3.72448497E-04
 -3.39806834E-04 -1.20328013E-05 -1.33386861E-05  3.16040516E-05  9.91718036E-01
  2.53370857E-02  3.70072531E-05  3.93205837E-04 -6.06673839E-04  1.06893731E-02
 -1.02421750E-04  1.34154546E-04 -2.47672007E-04 -7.53124525E-03 -7.53968827E-03
 -7.55812282E-03 -7.41878969E-06  1.16471745E-05  3.32079416E-05 -1.96914615E-05
 -1.11847433E-04 -6.23159287E-06  3.08109484E-05 -9.69037668E-06  5.27802658E-04
  3.77428011E-04 -1.50905383E-04  6.41522702E-05  1.08071294E-05 -2.35280319E-05
 -2.52044306E-05 -1.93750730E-06 -3.69574885E-07  2.16461562E-06 -6.54254167E-05
  6.46420842E-05  4.56449788E-06  1.35645983E-04  5.58775288E-06 -1.20155493E-04
 -3.75858680E-06 -8.45817855E-05  3.11129517E-05  1.44206892E-05  7.70015668E-07
 -3.91502208E-04 -5.51713570E-05 -9.67899813E-05 -9.80282211E-06  1.42451640E-03
 -1.14753854E-03 -6.11057890E-04 -2.89460598E-06  1.53691739E-04 -7.37727066E-05
 -9.10741848E-05  5.46010427E-05  1.72156239E-06  3.31234739E-06 -9.95905414E-05
 -8.46343382E-05  1.00189806E-04  1.96503103E-05 -4.59141336E-07  1.59951348E-03
 -1.48985915E-04  1.80556422E-04  1.48326010E-06 -5.58131302E-04 -2.67622962E-04
  1.82770775E-05 -3.79232048E-04  4.04808684E-06  3.75933230E-06 -2.00651160E-05
 -8.00866794E-05 -5.73618912E-05  2.13217243E-05  1.24587774E-07  4.87277398E-04
  1.53005695E-04 -8.77833409E-05 -7.73942660E-07 -6.67951169E-05 -5.52116333E-05
 -4.46028374E-05 -8.91167098E-07 -6.33157564E-08  7.88721676E-08  4.17581001E-05
  1.73252711E-04 -1.47551998E-05 -3.54738589E-05  1.02346856E-05 -9.42125486E-04
  2.00161589E-04  1.08566084E-04 -1.45192905E-04  1.24570124E-04  1.27087329E-04
  1.05492208E-04  7.51631610E-06  1.91429480E-05  4.46850407E-05  3.87001581E-05
  1.61418356E-04 -9.07614906E-06 -3.57032757E-05 -6.20800630E-06 -8.98756430E-04
  1.79796009E-04  1.13259774E-04  1.28109990E-04  1.16998225E-04  1.15279738E-04
  9.62863578E-05  7.47312825E-06 -1.55902577E-05 -4.84160713E-05  9.93327150E-01
  4.63793564E-02  5.26107653E-04  2.62799640E-04 -2.79492675E-06 -1.45704196E-02
 -1.65071578E-04  5.79947507E-04 -1.96850603E-05 -7.74589623E-03 -7.85280173E-03
 -7.97404913E-03  1.27153626E-04 -7.32023403E-08 -2.97652559E-06 -5.33929789E-05
  2.72959600E-03 -2.12718855E-04  2.50032350E-03 -5.53861991E-05  2.74557067E-03
 -2.74463910E-01  1.02494530E+00 -3.31901813E-03  1.93907625E-03 -3.33979101E-05
  6.45974726E-02 -6.97755503E-04  4.26879639E-04 -4.41595198E-06 -6.35867165E-03
  5.93536534E-04  7.50728112E-04 -3.72968656E-06 -1.39818331E-02 -1.39956819E-02
 -1.40777136E-02  2.59972517E-05 -1.27770713E-06  8.13995609E-07  1.15214957E-04
  8.82219864E-04  1.60651618E-04 -2.23069225E-04  2.74450827E-06 -4.46960392E-03
 -1.82385290E-03  1.80398652E-03 -2.24302783E-05  3.44419067E-04  4.40501632E-04
  6.65748203E-04 -1.98022897E-05  1.66377967E-07  3.30893120E-06 -4.04363035E-05
  9.62543048E-04 -4.65488224E-04 -5.67186914E-04 -4.61901681E-06 -5.07111035E-03
  1.79348384E-03  2.05122473E-03  1.81612168E-05  6.63437233E-04  8.11391530E-04
  4.17083656E-04  3.47407848E-04  2.19288555E-06  2.77774262E-06 -1.05554669E-04
  6.69150842E-04  3.05987027E-05  4.01501789E-04  5.81847368E-04 -3.57184240E-03
 -9.31130713E-05 -1.48733019E-03 -2.01228407E-03  2.07276248E-04  3.82514861E-04
  7.00773016E-04  1.68310028E-05  3.60141784E-05  3.15229389E-04 -1.05885085E-04
  6.67522029E-04  3.91508730E-05  4.02175376E-04 -5.80541196E-04 -3.56198274E-03
 -1.22705993E-04 -1.48854877E-03  2.00768799E-03  2.07357166E-04  3.82886446E-04
  6.97897608E-04  2.28094354E-05 -4.57347814E-05 -3.15157372E-04  4.50322635E-05
  9.86264559E-05  2.17302553E-04 -2.26084348E-05  2.72228256E-06 -2.29353485E-04
  8.27402641E-04  8.24524378E-05 -9.44425166E-06  2.93912658E-04 -5.71639780E-05
  1.61529225E-04  4.06256525E-05 -9.14641299E-07  3.08527469E-06 -1.18122380E-04
  6.58543298E-04  1.12010939E-04  1.23044321E-04 -1.22184022E-04  6.71092838E-04
 -1.12769098E-03  4.36147306E-03  8.64126538E-01 -4.87430873E-01  7.59177440E-03
 -8.14697562E-04  2.50402669E-02 -1.42478710E-02  2.16051550E-04  3.75806921E-04
 -4.98067798E-03  1.41862199E-03 -2.97249635E-05 -1.39391737E-03  6.38964869E-04