Generated by Psi4
        SP                        DF-MP2                      6-311G**
Number of atoms                            I                9
Charge                                     I               -2
Multiplicity                               I                1
Number of electrons                        I               58
Number of alpha electrons                  I               29
Number of beta electrons                   I               29
Number of basis functions                  I              134
Number of independent functions            I              134
Atomic numbers                             I   N=           9
          15           8           8           8           8           6
           1           1           1
Nuclear charges                            R   N=           9
  1.50000000e+01  8.00000000e+00  8.00000000e+00  8.00000000e+00  8.00000000e+00
  6.00000000e+00  1.00000000e+00  1.00000000e+00  1.00000000e+00
Current cartesian coordinates              R   N=          27
  8.49099256e-01 -1.13301637e-01  1.67887758e-03 -1.94650488e+00  1.52911603e+00
 -1.98073085e-02  2.74955903e+00  2.05899524e+00  1.81194949e-02  8.01459261e-01
 -1.67158870e+00 -2.43478281e+00  7.60565587e-01 -1.67489572e+00  2.43485244e+00
 -4.14310363e+00  5.66225362e-02 -2.62969798e-03 -4.23139164e+00 -1.21852686e+00
 -1.64393243e+00 -5.79657620e+00  1.30926529e+00 -6.02852421e-02 -4.27192626e+00
 -1.11759659e+00  1.70961335e+00
Integer atomic weights                     I   N=           9
          30          15          15          15          15          12
           1           1           1
Real atomic weights                        R   N=           9
  3.09737620e+01  1.59949146e+01  1.59949146e+01  1.59949146e+01  1.59949146e+01
  1.20000000e+01  1.00782503e+00  1.00782503e+00  1.00782503e+00
Number of primitive shells                 I              126
Number of contracted shells                I               64
Pure/Cartesian d shells                    I                0
Pure/Cartesian f shells                    I                0
Highest angular momentum                   I                2
Largest degree of contraction              I                6
Shell types                                I   N=          64
           0           0           0           0           0           0
           1           1           1           1           1          -2
           0           0           1           0           1           0
           1          -2           0           0           1           0
           1           0           1          -2           0           0
           1           0           1           0           1          -2
           0           0           1           0           1           0
           1          -2           0           0           1           0
           1           0           1          -2           0           0
           0           1           0           0           0           1
           0           0           0           1
Number of primitives per shell             I   N=          64
           6           3           1           1           1           1
           4           2           1           1           1           1
           6           3           3           1           1           1
           1           1           6           3           3           1
           1           1           1           1           6           3
           3           1           1           1           1           1
           6           3           3           1           1           1
           1           1           6           3           3           1
           1           1           1           1           3           1
           1           1           3           1           1           1
           3           1           1           1
Shell to atom map                          I   N=          64
           1           1           1           1           1           1
           1           1           1           1           1           1
           2           2           2           2           2           2
           2           2           3           3           3           3
           3           3           3           3           4           4
           4           4           4           4           4           4
           5           5           5           5           5           5
           5           5           6           6           6           6
           6           6           6           6           7           7
           7           7           8           8           8           8
           9           9           9           9
Primitive exponents                        R   N=         126
  7.74924000e+04  1.16058000e+04  2.64596000e+03  7.54976000e+02  2.48755000e+02
  9.11565000e+01  9.11565000e+01  3.62257000e+01  1.52113000e+01  4.79417000e+00
  1.80793000e+00  3.56816000e-01  1.14783000e-01  3.84843000e+02  9.05521000e+01
  2.91339000e+01  1.08862000e+01  4.35259000e+00  1.77706000e+00  6.97005000e-01
  2.53532000e-01  6.84930000e-02  5.50000000e-01  8.58850000e+03  1.29723000e+03
  2.99296000e+02  8.73771000e+01  2.56789000e+01  3.74004000e+00  4.21175000e+01
  9.62837000e+00  2.85332000e+00  4.21175000e+01  9.62837000e+00  2.85332000e+00
  9.05661000e-01  9.05661000e-01  2.55611000e-01  2.55611000e-01  1.29200000e+00
  8.58850000e+03  1.29723000e+03  2.99296000e+02  8.73771000e+01  2.56789000e+01
  3.74004000e+00  4.21175000e+01  9.62837000e+00  2.85332000e+00  4.21175000e+01
  9.62837000e+00  2.85332000e+00  9.05661000e-01  9.05661000e-01  2.55611000e-01
  2.55611000e-01  1.29200000e+00  8.58850000e+03  1.29723000e+03  2.99296000e+02
  8.73771000e+01  2.56789000e+01  3.74004000e+00  4.21175000e+01  9.62837000e+00
  2.85332000e+00  4.21175000e+01  9.62837000e+00  2.85332000e+00  9.05661000e-01
  9.05661000e-01  2.55611000e-01  2.55611000e-01  1.29200000e+00  8.58850000e+03
  1.29723000e+03  2.99296000e+02  8.73771000e+01  2.56789000e+01  3.74004000e+00
  4.21175000e+01  9.62837000e+00  2.85332000e+00  4.21175000e+01  9.62837000e+00
  2.85332000e+00  9.05661000e-01  9.05661000e-01  2.55611000e-01  2.55611000e-01
  1.29200000e+00  4.56324000e+03  6.82024000e+02  1.54973000e+02  4.44553000e+01
  1.30290000e+01  1.82773000e+00  2.09642000e+01  4.80331000e+00  1.45933000e+00
  2.09642000e+01  4.80331000e+00  1.45933000e+00  4.83456000e-01  4.83456000e-01
  1.45585000e-01  1.45585000e-01  6.26000000e-01  3.38650000e+01  5.09479000e+00
  1.15879000e+00  3.25840000e-01  1.02741000e-01  7.50000000e-01  3.38650000e+01
  5.09479000e+00  1.15879000e+00  3.25840000e-01  1.02741000e-01  7.50000000e-01
  3.38650000e+01  5.09479000e+00  1.15879000e+00  3.25840000e-01  1.02741000e-01
  7.50000000e-01
Contraction coefficients                   R   N=         126
  7.81000147e-04  6.06800114e-03  3.11600059e-02  1.23431023e-01  3.78209071e-01
  5.63262106e-01  1.60255011e-01  6.27647045e-01  2.63849019e-01  1.00000000e+00
  1.00000000e+00  1.00000000e+00  1.00000000e+00  9.20599888e-03  6.98739915e-02
  2.92469964e-01  7.28102911e-01  6.28348873e-01  4.28043913e-01  1.00000000e+00
  1.00000000e+00  1.00000000e+00  1.00000000e+00  1.89515008e-03  1.43859006e-02
  7.07320031e-02  2.40001011e-01  5.94797026e-01  2.80802012e-01  1.13889012e-01
  9.20811101e-01 -3.27447036e-03  3.65113974e-02  2.37152983e-01  8.19701941e-01
  1.00000000e+00  1.00000000e+00  1.00000000e+00  1.00000000e+00  1.00000000e+00
  1.89515008e-03  1.43859006e-02  7.07320031e-02  2.40001011e-01  5.94797026e-01
  2.80802012e-01  1.13889012e-01  9.20811101e-01 -3.27447036e-03  3.65113974e-02
  2.37152983e-01  8.19701941e-01  1.00000000e+00  1.00000000e+00  1.00000000e+00
  1.00000000e+00  1.00000000e+00  1.89515008e-03  1.43859006e-02  7.07320031e-02
  2.40001011e-01  5.94797026e-01  2.80802012e-01  1.13889012e-01  9.20811101e-01
 -3.27447036e-03  3.65113974e-02  2.37152983e-01  8.19701941e-01  1.00000000e+00
  1.00000000e+00  1.00000000e+00  1.00000000e+00  1.00000000e+00  1.89515008e-03
  1.43859006e-02  7.07320031e-02  2.40001011e-01  5.94797026e-01  2.80802012e-01
  1.13889012e-01  9.20811101e-01 -3.27447036e-03  3.65113974e-02  2.37152983e-01
  8.19701941e-01  1.00000000e+00  1.00000000e+00  1.00000000e+00  1.00000000e+00
  1.00000000e+00  1.96665025e-03  1.52306019e-02  7.61269097e-02  2.60801033e-01
  6.16462078e-01  2.21006028e-01  1.14660081e-01  9.19999648e-01 -3.03068213e-03
  4.02486927e-02  2.37593957e-01  8.15853851e-01  1.00000000e+00  1.00000000e+00
  1.00000000e+00  1.00000000e+00  1.00000000e+00  2.54938145e-02  1.90373109e-01
  8.52161486e-01  1.00000000e+00  1.00000000e+00  1.00000000e+00  2.54938145e-02
  1.90373109e-01  8.52161486e-01  1.00000000e+00  1.00000000e+00  1.00000000e+00
  2.54938145e-02  1.90373109e-01  8.52161486e-01  1.00000000e+00  1.00000000e+00
  1.00000000e+00
Coordinates of each shell                  R   N=         192
  8.49099256e-01 -1.13301637e-01  1.67887758e-03  8.49099256e-01 -1.13301637e-01
  1.67887758e-03  8.49099256e-01 -1.13301637e-01  1.67887758e-03  8.49099256e-01
 -1.13301637e-01  1.67887758e-03  8.49099256e-01 -1.13301637e-01  1.67887758e-03
  8.49099256e-01 -1.13301637e-01  1.67887758e-03  8.49099256e-01 -1.13301637e-01
  1.67887758e-03  8.49099256e-01 -1.13301637e-01  1.67887758e-03  8.49099256e-01
 -1.13301637e-01  1.67887758e-03  8.49099256e-01 -1.13301637e-01  1.67887758e-03
  8.49099256e-01 -1.13301637e-01  1.67887758e-03  8.49099256e-01 -1.13301637e-01
  1.67887758e-03 -1.94650488e+00  1.52911603e+00 -1.98073085e-02 -1.94650488e+00
  1.52911603e+00 -1.98073085e-02 -1.94650488e+00  1.52911603e+00 -1.98073085e-02
 -1.94650488e+00  1.52911603e+00 -1.98073085e-02 -1.94650488e+00  1.52911603e+00
 -1.98073085e-02 -1.94650488e+00  1.52911603e+00 -1.98073085e-02 -1.94650488e+00
  1.52911603e+00 -1.98073085e-02 -1.94650488e+00  1.52911603e+00 -1.98073085e-02
  2.74955903e+00  2.05899524e+00  1.81194949e-02  2.74955903e+00  2.05899524e+00
  1.81194949e-02  2.74955903e+00  2.05899524e+00  1.81194949e-02  2.74955903e+00
  2.05899524e+00  1.81194949e-02  2.74955903e+00  2.05899524e+00  1.81194949e-02
  2.74955903e+00  2.05899524e+00  1.81194949e-02  2.74955903e+00  2.05899524e+00
  1.81194949e-02  2.74955903e+00  2.05899524e+00  1.81194949e-02  8.01459261e-01
 -1.67158870e+00 -2.43478281e+00  8.01459261e-01 -1.67158870e+00 -2.43478281e+00
  8.01459261e-01 -1.67158870e+00 -2.43478281e+00  8.01459261e-01 -1.67158870e+00
 -2.43478281e+00  8.01459261e-01 -1.67158870e+00 -2.43478281e+00  8.01459261e-01
 -1.67158870e+00 -2.43478281e+00  8.01459261e-01 -1.67158870e+00 -2.43478281e+00
  8.01459261e-01 -1.67158870e+00 -2.43478281e+00  7.60565587e-01 -1.67489572e+00
  2.43485244e+00  7.60565587e-01 -1.67489572e+00  2.43485244e+00  7.60565587e-01
 -1.67489572e+00  2.43485244e+00  7.60565587e-01 -1.67489572e+00  2.43485244e+00
  7.60565587e-01 -1.67489572e+00  2.43485244e+00  7.60565587e-01 -1.67489572e+00
  2.43485244e+00  7.60565587e-01 -1.67489572e+00  2.43485244e+00  7.60565587e-01
 -1.67489572e+00  2.43485244e+00 -4.14310363e+00  5.66225362e-02 -2.62969798e-03
 -4.14310363e+00  5.66225362e-02 -2.62969798e-03 -4.14310363e+00  5.66225362e-02
 -2.62969798e-03 -4.14310363e+00  5.66225362e-02 -2.62969798e-03 -4.14310363e+00
  5.66225362e-02 -2.62969798e-03 -4.14310363e+00  5.66225362e-02 -2.62969798e-03
 -4.14310363e+00  5.66225362e-02 -2.62969798e-03 -4.14310363e+00  5.66225362e-02
 -2.62969798e-03 -4.23139164e+00 -1.21852686e+00 -1.64393243e+00 -4.23139164e+00
 -1.21852686e+00 -1.64393243e+00 -4.23139164e+00 -1.21852686e+00 -1.64393243e+00
 -4.23139164e+00 -1.21852686e+00 -1.64393243e+00 -5.79657620e+00  1.30926529e+00
 -6.02852421e-02 -5.79657620e+00  1.30926529e+00 -6.02852421e-02 -5.79657620e+00
  1.30926529e+00 -6.02852421e-02 -5.79657620e+00  1.30926529e+00 -6.02852421e-02
 -4.27192626e+00 -1.11759659e+00  1.70961335e+00 -4.27192626e+00 -1.11759659e+00
  1.70961335e+00 -4.27192626e+00 -1.11759659e+00  1.70961335e+00 -4.27192626e+00
 -1.11759659e+00  1.70961335e+00
Total Energy                               R     -6.809186487368750e+02
Alpha Orbital Energies                     R   N=         134
 -7.96301349e+01 -2.01856618e+01 -2.00649962e+01 -2.00648415e+01 -2.00594745e+01
 -1.09651842e+01 -7.15251125e+00 -5.05154682e+00 -5.05016717e+00 -5.04995270e+00
 -1.00605391e+00 -8.94845668e-01 -8.22175505e-01 -8.19272032e-01 -6.03159001e-01
 -3.59262718e-01 -3.00800695e-01 -2.87749147e-01 -2.38004433e-01 -1.66822196e-01
 -1.63245107e-01 -1.40028630e-01 -9.76401955e-02 -5.76574330e-02 -5.49350611e-02
 -5.36268982e-02 -1.31797626e-02 -1.22323892e-02  2.01808616e-02  4.30724354e-01
  4.96192088e-01  5.24701867e-01  6.06061464e-01  6.13329709e-01  6.38731823e-01
  6.39905400e-01  7.62619200e-01  7.64562701e-01  8.14073834e-01  8.21017299e-01
  9.08576535e-01  9.41181526e-01  1.00206650e+00  1.02944530e+00  1.07527331e+00
  1.07891749e+00  1.09718636e+00  1.20694250e+00  1.32231898e+00  1.33095573e+00
  1.36699508e+00  1.36813647e+00  1.39941577e+00  1.44735326e+00  1.45182166e+00
  1.50738263e+00  1.59399218e+00  1.60573365e+00  1.61195013e+00  1.63996905e+00
  1.65370954e+00  1.68858854e+00  1.70395864e+00  1.72166046e+00  1.84104687e+00
  1.87344823e+00  1.87897857e+00  1.97116719e+00  1.99621907e+00  2.01928310e+00
  2.04127155e+00  2.06487932e+00  2.12503109e+00  2.19058356e+00  2.21053118e+00
  2.23545258e+00  2.32760593e+00  2.39100282e+00  2.39874297e+00  2.49180295e+00
  2.61437287e+00  2.70275138e+00  2.72512926e+00  2.94303826e+00  3.01813478e+00
  3.10120963e+00  3.11791048e+00  3.12305445e+00  3.40230129e+00  3.58501671e+00
  3.61436216e+00  3.64762539e+00  3.66428007e+00  3.66752346e+00  3.66944461e+00
  3.67267899e+00  3.67473950e+00  3.70943634e+00  3.72911273e+00  3.81517404e+00
  3.82813140e+00  3.89681325e+00  3.92359687e+00  3.97567368e+00  3.97860396e+00
  4.00355694e+00  4.22210092e+00  4.35379811e+00  4.35643684e+00  4.47312237e+00
  4.49682371e+00  4.78949147e+00  5.79156998e+00  5.79216502e+00  5.83496982e+00
  5.84850204e+00  5.87590005e+00  5.87751765e+00  5.88382022e+00  5.89014850e+00
  6.00619430e+00  6.16243290e+00  6.18180518e+00  6.41083513e+00  8.05857694e+00
  1.52422199e+01  1.53817040e+01  1.54264015e+01  2.53153198e+01  5.19204318e+01
  5.19475376e+01  5.19647025e+01  5.20707701e+01  1.66567813e+02
Alpha MO coefficients                      R   N=       17956
  4.19272361e-01  6.46643510e-01  1.07451695e-02 -1.05383403e-03  4.21406179e-04
 -5.48522813e-05 -5.06647138e-05  2.35078350e-05 -3.31898500e-07  1.69364293e-05
 -6.80867716e-06  1.09746124e-07 -1.29691626e-05  7.22178367e-07 -1.09282793e-07
  1.48980764e-05  7.01467159e-06  3.93847804e-07  2.28585075e-05  8.15387073e-06
 -1.12051621e-07  5.32542661e-06 -1.87526076e-07  3.80911134e-08 -6.35320313e-06
  9.86387585e-06  6.74513156e-07 -1.70037920e-06  2.05500350e-06 -4.66447049e-07
  1.17776347e-08  2.04287810e-05 -3.49337331e-06 -8.15321451e-07 -3.45629889e-10
 -6.49110951e-05 -1.78612445e-05  4.00683923e-05 -5.77405599e-07  9.35785866e-06
 -1.09134239e-07  1.53995365e-07 -5.02756310e-06  7.98949298e-06  3.47993030e-07
  5.14685785e-07 -4.33263442e-06 -3.57830456e-06 -2.14445220e-08  1.46140522e-05
  1.69421698e-05  1.52765791e-05  9.54404586e-08 -7.18222102e-05  2.78641330e-05
  3.94625300e-05  3.31294374e-07  1.08738733e-05 -1.45160200e-07 -1.60130625e-07
  2.11132088e-06 -1.87959765e-05  1.83340219e-07  1.43153265e-06 -2.02232812e-07
  2.68111801e-06  4.08784317e-06  8.24938959e-06  5.09123782e-07 -1.08574811e-05
 -1.70242303e-05 -4.68016580e-05 -3.88285821e-06 -2.53795963e-05 -3.62212135e-05
 -1.14299092e-05 -3.14496861e-07 -1.70000148e-05  5.19340170e-06 -4.53364525e-07
  1.88373166e-07  1.40282852e-06 -5.73334198e-08  2.69087017e-06 -4.05732030e-06
  8.42650470e-06 -2.37101744e-08 -1.08845400e-05  1.69103433e-05 -4.71468953e-05
 -4.01488114e-06 -2.55810924e-05  3.65056036e-05 -1.13877966e-05  7.13249526e-07
  1.70567936e-05  5.19812168e-06 -7.22430954e-07 -6.86518444e-08  5.45916710e-08
 -2.76894168e-06  2.26949058e-07  9.51741019e-10 -5.69447383e-06  1.04730814e-05
 -7.28566285e-07 -6.44494837e-09  4.14973438e-05  4.22513351e-05 -1.65455648e-05
  5.59078365e-07 -2.30502014e-08 -1.21468166e-07  2.09856691e-07  6.53487508e-06
  4.01582811e-06  1.52964058e-06 -1.55447191e-05  6.94578974e-06 -2.40849430e-06
  1.53260112e-06 -1.50932781e-06 -4.86189471e-07  1.38756849e-05  4.78673913e-06
  1.19292505e-06 -2.68873585e-06  1.76215808e-07  1.48818537e-06 -1.51187679e-05
  6.65407209e-06 -2.54753985e-06  1.68945244e-06  1.32521277e-06  1.84279510e-06
  3.97346273e-06  1.33630183e-07 -5.16135456e-05  3.34275704e-05  4.27528651e-04
  6.84686956e-06 -3.62621533e-06  4.04785990e-08  2.49972333e-05 -1.37096034e-05
  2.31176592e-07 -3.08916951e-05  2.47125361e-05 -5.18985973e-07 -1.56888904e-04
  5.26486260e-05 -1.91665994e-08 -9.83083901e-05  9.72322595e-05 -1.32808331e-06
 -2.81790007e-05  5.15420932e-07 -4.37388928e-07  4.70203518e-05 -5.75506867e-05
  5.51461842e-01  4.71664632e-01 -5.14465008e-04 -1.38208372e-03  1.64007968e-05
  5.60090701e-03  2.80510416e-04  4.93161350e-04 -5.81770188e-06 -7.44545574e-04
 -9.65871404e-05 -1.62831588e-05  2.30703503e-07  1.24140916e-04  1.00781066e-06
  1.69938008e-06 -7.04316719e-05 -9.23751728e-05 -2.83380588e-05 -2.74330802e-05
  3.90548843e-06  9.99684827e-07  5.34005206e-08  2.88443643e-05  8.01283334e-07
 -3.22686511e-06 -1.13916100e-07 -1.15813886e-04  4.04774638e-05  1.08284455e-06
  3.90832153e-07 -3.32293741e-06  6.08941518e-08  3.98269498e-08 -3.22114130e-06
  1.85478610e-06 -3.43423893e-05 -3.22627803e-05  3.88492742e-06 -3.84310430e-06
 -2.08972566e-06  2.91542222e-05 -2.14368491e-06  2.91987493e-06  5.07747935e-07
 -1.20087935e-04  4.44286178e-05 -5.41427460e-05 -3.55632969e-05  2.54278789e-06
  6.11232770e-06 -2.89209777e-06  1.39149597e-06  4.02455864e-06 -3.45343288e-05
 -3.24642366e-05  3.93832069e-06 -3.88825703e-06  2.21143457e-06  2.94754895e-05
 -2.36864746e-06  3.08766459e-06 -7.02150216e-07 -1.21112068e-04  4.43646445e-05
 -5.50675946e-05  3.71723085e-05  2.37240610e-06 -6.21344991e-06  3.07700755e-06
  1.56186030e-06  4.04803467e-06 -3.35824189e-06 -3.36345680e-05  1.58620505e-05
  2.54072815e-05 -2.76455295e-07  9.69166890e-05  2.35668865e-04  1.00916665e-04
 -1.38678032e-06  2.50981954e-04  5.00427300e-05  1.22813929e-04 -2.44780774e-06
 -5.80771856e-05 -1.41820333e-06  1.01502347e-07  7.54435047e-05  1.06552850e-04
  1.00331489e-05 -2.70193262e-05 -7.04219225e-06 -1.63017505e-05 -8.38765896e-06
  1.81057161e-05  2.18418070e-05 -5.27730490e-05 -3.45728566e-05  1.05649551e-05
 -1.88685808e-05  7.17560459e-07  9.53819040e-06 -2.59557170e-05 -6.40273666e-06
 -1.51105749e-05 -9.01905628e-06 -1.83402462e-05 -3.82189244e-06 -8.95878077e-06
  7.00932651e-06  8.42059714e-05 -6.98710802e-05 -4.71901897e-04 -1.48406723e-06
 -5.45534913e-06  1.02044251e-05  5.94641125e-07 -2.91758188e-05  5.04197440e-05
 -1.11699245e-05  4.35538288e-05 -7.03898497e-05  3.15638645e-05  9.69329324e-05
 -1.80898973e-04  6.45428830e-05  8.85310097e-05 -1.53528608e-04 -6.03091660e-05
  7.18271933e-06  9.63293586e-05  2.72641973e-05 -2.01838460e-06 -3.39568278e-05
 -2.79325399e-05  4.69716352e-06 -1.80037460e-06  5.32070681e-06 -1.63495196e-05
 -4.76391137e-06 -5.37675579e-06 -9.62429410e-06  8.05461494e-05  4.99236061e-05
 -2.57390287e-05  5.67558065e-05 -8.09211778e-07  4.59570460e-06 -4.62278759e-06
 -7.87284407e-07 -2.01141554e-06  8.71644914e-04  7.47321532e-04 -4.93176865e-06
 -8.40093092e-06  8.16102726e-06 -1.04403926e-05  8.85672758e-06  1.12955809e-05
 -1.50486013e-05  7.23478325e-05 -3.29995221e-05 -5.37363576e-05  6.96406944e-05
  1.24925495e-06 -2.97002874e-06 -4.93305010e-06 -1.10345184e-06  2.75172601e-07
  3.41455958e-02  2.92081494e-02 -3.91074338e-06  3.98619527e-05  7.80065651e-05
  3.06351140e-04  4.64045689e-06 -6.21204742e-06 -3.78121919e-05  8.22912870e-05
 -1.47794801e-05 -2.43379309e-05  9.38937851e-05  4.53231538e-06 -1.11404697e-06
 -4.85327319e-06  5.80047337e-07 -2.74138286e-07 -5.50417962e-01 -4.70776355e-01
  3.00992151e-05 -6.94949133e-04  1.08447902e-03 -5.43416240e-03 -1.52257757e-05
  2.00665587e-04 -3.14620213e-04  4.65620387e-04  4.34753664e-06  7.32228426e-06
 -3.12181818e-06  9.98184849e-06  1.22593827e-07 -2.16189914e-05  4.63347815e-06
 -6.95561269e-06 -3.68247952e-07  6.85473963e-07  7.83339424e-07  8.47082996e-07
  1.74367403e-06 -1.68095012e-05 -9.39404762e-06 -7.08713498e-06 -1.49155182e-06
  9.74953786e-05  5.54435617e-05 -3.32656851e-05 -7.89168629e-07  2.00782207e-06
 -2.99871432e-06 -5.29610408e-06 -2.97752652e-06 -5.14714702e-06  3.15124292e-06
 -3.34252332e-05  4.68772408e-06 -1.36322742e-06 -2.01728296e-06 -3.43664950e-06
 -2.40642138e-06  5.03607397e-06  1.55861718e-05 -8.47991007e-07  1.74648893e-06
  1.29234211e-06  1.55909880e-06 -2.04882518e-05 -5.26857435e-06 -8.10240693e-07
 -2.13580852e-06  1.01878239e-05 -4.32765838e-06 -1.01577559e-05  8.03199362e-06
  9.51364581e-05 -7.80249911e-05 -5.37481577e-04 -1.55045891e-06 -6.17438758e-06
 -9.03655172e-06  1.67894977e-06 -3.29210868e-05 -4.45814707e-05 -1.44726046e-05
  4.89669453e-05  6.20442091e-05  3.39147226e-05  1.10291710e-04  1.61185608e-04
  7.10370680e-05  1.00096295e-04  1.36741430e-04 -6.87787275e-05 -4.17672220e-06
 -8.50863746e-05  3.08639995e-05 -6.66797793e-07 -3.82428088e-05 -3.15379553e-05
  5.38354537e-06 -2.00651319e-06 -4.74414788e-06 -1.76231271e-05 -5.68245629e-06
 -6.24663381e-06  8.88473993e-06  8.75834494e-05  5.93961712e-05 -2.73986948e-05
 -5.11961547e-05 -9.67025376e-07 -4.04564490e-06  4.13681843e-06 -8.61682378e-07
 -2.56268867e-06  1.01733632e-03  8.72172539e-04 -5.50161207e-06 -9.56647867e-06
 -7.27669266e-06 -1.15379215e-05  9.80809293e-06  1.28243024e-05  1.33785896e-05
  8.19531362e-05 -3.61473152e-05 -6.06594651e-05 -6.20860070e-05  1.54186343e-06
  2.58354234e-06  4.38054348e-06 -1.28725330e-06  1.91480946e-07 -5.50417987e-01
 -4.70775900e-01  4.83890735e-05 -6.92969059e-04 -1.08432773e-03 -5.43830540e-03
 -2.01297976e-05  2.00593524e-04  3.12709032e-04  4.81355358e-04  2.05285562e-06
  5.01935591e-06  1.54818103e-05  1.06802077e-05 -6.74250591e-07  2.11872196e-05
  4.89998727e-06 -7.45873960e-06 -3.41458654e-02 -2.92020104e-02  1.21919253e-06
 -4.62300517e-05  5.65646445e-05 -3.67974401e-04  1.84780326e-06  1.86959311e-05
 -1.21048914e-06  1.41161585e-04 -1.22518187e-05 -2.36823602e-05 -9.50674783e-05
  5.88098427e-06  1.01162846e-06  2.24679777e-06  1.11995142e-06 -1.21924188e-06
 -3.85661627e-07  7.35734259e-07  8.74707660e-07  6.58304053e-07 -1.67082743e-06
 -1.95125036e-05 -1.03956953e-05 -7.56662778e-06  2.86381074e-06  1.19965649e-04
  6.67391457e-05 -4.12594802e-05  5.56044331e-06  2.51622281e-06  2.57559334e-06
  4.13360470e-06 -3.80282420e-06 -5.17132567e-06  1.89171082e-06 -2.64579927e-05
 -3.96846775e-06 -5.07920138e-07 -2.73328806e-06 -1.07672656e-05 -2.44983290e-06
  5.63155256e-06  1.99707682e-05 -7.56014819e-07  1.80607117e-06 -1.37098039e-06
  4.32543539e-06 -4.23021871e-05 -4.54696076e-07 -2.77758762e-06 -2.57220374e-06
  6.39717249e-06  4.21361914e-06  8.95767921e-06 -1.54659901e-06 -1.05301395e-04
  1.33528899e-04  3.14491480e-04 -6.75474388e-06 -9.31271393e-06 -5.83547871e-08
 -3.88500647e-05 -4.14468797e-05 -3.41624974e-07  6.20316559e-05  5.02918701e-05
  5.37703495e-07  1.02497109e-04  1.84477735e-04  1.13087824e-06  1.44419866e-04
  1.63427043e-04  1.17912280e-06 -6.38723342e-05  8.55808836e-07  7.82181257e-07
 -1.20709167e-05  9.30224318e-05  3.04334977e-05  2.48659714e-05 -5.03526436e-06
 -7.12256009e-08 -8.58062332e-08  1.61893745e-05  3.48466849e-06  3.08939673e-06
  1.00572889e-07 -9.70810533e-05 -7.75964241e-05 -4.03487017e-06 -1.15060948e-06
  2.10584906e-07 -4.93568380e-08  2.80818714e-08 -4.61455635e-06 -1.18811389e-06
  5.51475089e-01  4.71680921e-01 -8.49584205e-04 -9.73799931e-04 -7.45784110e-06
  5.44056925e-03  2.48859445e-04  2.86157828e-04  2.20211648e-06 -4.43989996e-04
 -1.13842708e-05 -1.41043531e-05 -1.10302531e-07  2.13080458e-05 -3.49790968e-07
 -7.01525469e-08 -3.67614383e-06 -1.32110226e-05  9.63365391e-04  8.22969047e-04
 -5.64932157e-06 -8.16881238e-06 -3.31716660e-07  2.07396342e-05  8.62720680e-06
  1.73223882e-05  3.92808746e-07 -3.55985703e-05 -4.57767541e-05 -7.23336311e-05
  2.78280977e-07  4.90072772e-06 -1.94923182e-06 -1.47588179e-06  1.28248048e-06
 -3.22690567e-06  9.34909216e-04  7.98612431e-04 -5.63389816e-06 -8.22670785e-06
  3.02662688e-07  2.06019404e-05  8.55006773e-06  1.74399209e-05 -3.32862022e-07
 -3.58183902e-05 -4.56129320e-05 -7.26347828e-05 -8.15322075e-07  4.93739825e-06
  1.80977252e-06  1.44380506e-06  1.24742010e-06 -3.23503271e-06 -3.32507732e-07
  1.69553842e-07  5.70367384e-07  1.26786883e-06  2.21203552e-08 -7.26159329e-06
 -5.09443175e-07 -9.53119596e-06  8.77466555e-08 -1.46969881e-05  5.18657801e-05
 -4.34450656e-05  2.43868346e-06  4.85583329e-06 -2.61478686e-07  4.16705175e-07
  2.69078965e-07  5.60542768e-06  2.89102552e-06 -2.30583783e-05  3.63218220e-05
 -2.12397965e-06  3.30614531e-07 -4.61822885e-06 -4.47180476e-06  4.19191054e-05
  8.22205977e-06  5.97611217e-06 -4.20641414e-06  2.65429228e-07  2.79882010e-06
 -2.21034517e-05  3.11261806e-05 -2.65113730e-06  6.58087612e-07  4.60027615e-06
 -2.46080690e-07 -4.41984593e-07 -9.49829597e-07  1.13766214e-05 -4.37227482e-05
  1.90862323e-05  3.44752464e-07  1.44519771e-06 -6.34255247e-09 -1.01251054e-05
 -2.68626808e-06 -4.12928017e-08  4.27482093e-05  1.68194436e-05  2.05493529e-07
 -6.47442912e-05 -5.77917759e-05 -1.14983500e-06 -1.29122534e-05 -1.89264882e-05
  5.06516379e-07  1.29792682e-06  2.08519672e-08  2.25710637e-07  7.76188992e-06
  1.21752251e-06 -7.28504284e-05 -1.29207987e-04 -9.57700121e-05 -6.90435581e-05
  7.78288864e-07  3.06041594e-04 -4.09418076e-04 -2.79264169e-04  3.27031258e-06
  2.83321619e-04 -6.70575579e-05 -4.95861175e-05  7.81906938e-07 -9.35613777e-05
 -1.76637866e-06 -1.31497838e-06  5.60383147e-05  1.59136354e-04 -3.99889001e-07
 -2.48798674e-07  2.83407194e-07  5.76202341e-07 -3.09434003e-08 -5.65026485e-06
 -1.23628118e-05 -2.06468634e-06 -2.70394987e-08  5.18175668e-05 -1.04370514e-05
 -1.88322231e-05 -2.82704444e-07 -1.70941100e-06  3.68052793e-08  1.61825494e-08
  5.16523275e-07  2.70948338e-06  3.04232577e-07  1.01192708e-07  4.01134513e-07
  1.57150785e-06  1.18466255e-06  3.78730108e-06  6.04102947e-06 -5.56634680e-06
 -5.25318649e-06 -3.07625126e-05  1.06540634e-05  1.31214445e-05 -8.48965765e-07
 -6.21712467e-07  1.37814686e-06  1.71021004e-06 -1.16444613e-06  1.12431454e-06
  3.26821174e-07  2.42751513e-07  1.61230987e-07  1.47744846e-06 -1.31008421e-06
  2.65189546e-06  6.84519032e-06 -5.57923831e-06  5.79872635e-06 -2.87602320e-05
  8.52568143e-06  1.32728495e-05 -8.61339321e-07 -6.47289536e-07 -1.22251284e-06
 -1.84080949e-06 -1.02065802e-06  1.15686930e-06  5.63492261e-01  4.66577332e-01
  2.78493847e-04  4.86372975e-04 -9.05986927e-06  3.88152708e-03 -2.44871942e-04
 -4.00237515e-04  6.46236531e-06 -1.14997938e-03  8.47169826e-06  1.24433437e-04
 -3.04579966e-06  1.11236565e-04 -5.91637127e-07  3.53618100e-06 -7.93930658e-05
 -9.85181741e-05  3.31584910e-04  1.27539556e-04  2.55134284e-04  1.09385205e-05
  2.13523410e-05 -9.72424573e-07  3.59109317e-04  2.04077030e-04  1.61579940e-04
  6.95247304e-05 -1.89798098e-05  1.42616890e-06  3.31904183e-04  1.30010328e-04
  2.53632869e-04  1.11084465e-05  2.23912334e-05 -6.97960110e-07  1.20062720e-01
  3.17086771e-01 -5.27094530e-01 -5.90384881e-01 -4.02519759e-02  6.93670871e-03
  1.37104472e-03 -5.83967636e-04  8.85649792e-06  3.19789409e-03 -1.43420086e-03
  2.04966960e-05  3.95226556e-04  1.86906217e-05  4.66746427e-06  2.98231063e-04
 -5.72299530e-04 -1.29695853e-05 -1.42686714e-03 -3.87007462e-04  2.25308651e-06
  8.72760013e-05  1.38585454e-06  2.13777382e-06 -6.57762703e-05  8.75307233e-06
  6.04036308e-05  1.14813329e-04 -1.82083907e-04  7.92459489e-05 -1.08627203e-06
 -9.01600743e-04  1.22642708e-05  2.08433191e-04 -2.90067685e-06  2.43770309e-03
  6.72474840e-04 -1.86209434e-03  2.77731415e-05 -2.94363886e-04  2.55991895e-06
 -4.87965407e-06  1.54793075e-04 -1.84949759e-04  1.56567455e-04  2.32597786e-04
  1.24185421e-04  1.05474225e-04  5.78926125e-07 -7.62794847e-04  1.65844499e-04
  3.26771866e-04  3.39139598e-06  1.61151972e-03 -9.39353786e-04 -1.34431360e-03
 -1.18509648e-05  2.78568422e-05 -3.12176717e-07 -4.86208533e-07  1.92416635e-05
 -4.69534784e-05  1.49235894e-04  1.97967180e-04  5.26651477e-06 -7.45922899e-05
 -1.19911985e-04 -4.48606877e-04 -3.88910085e-05 -2.42770885e-04 -3.53324669e-04
  4.74562186e-04  1.32364531e-04  9.23697750e-04  1.23387152e-03 -5.22399250e-05
 -1.05097804e-05 -3.81189537e-05  2.01403029e-05 -5.88893540e-09  1.49339404e-04
  1.98524644e-04  1.34754980e-06 -7.48170312e-05  1.19375680e-04 -4.54078767e-04
 -3.69838687e-05 -2.43445786e-04  3.54745983e-04  4.88084037e-04  1.35584708e-04
  9.33513939e-04 -1.24528053e-03 -5.13276368e-05  1.28831706e-05  3.65504815e-05
  2.01003229e-05 -1.33425993e-06 -4.24784245e-07  1.90797344e-06  1.01136943e-04
 -1.78234209e-05  5.43887090e-07  1.89627054e-04 -4.60124417e-04  2.81411429e-05
 -1.99192206e-06 -1.52143247e-03 -1.97877076e-03  5.00246470e-04 -2.16493579e-05
  1.38650204e-05  3.65118265e-06 -6.32018588e-06 -3.12888299e-04 -1.63222852e-04
 -2.34574757e-05  4.88556590e-04 -5.85054726e-04  3.80356278e-05 -7.47079838e-05
  4.89771592e-06  1.67347263e-05 -6.31084137e-04 -1.64268168e-04 -4.25357126e-05
  1.18496946e-04 -7.60281826e-06 -2.14727118e-05  4.77670517e-04 -5.62785974e-04
  4.55220522e-05 -7.58141718e-05 -3.15620723e-07  6.14720655e-04  1.66613352e-03
 -3.36802660e-03 -2.21892673e-03  2.32464573e-04 -1.63763116e-06 -3.67012305e-01
  1.71439251e-01 -3.20837878e-03 -6.25199230e-01  2.92134612e-01 -5.46498827e-03
 -3.72740561e-02  1.74258246e-02 -3.26009707e-04 -6.48726564e-04  3.70936470e-04