
    -----------------------------------------------------------------------
          Psi4: An Open-Source Ab Initio Electronic Structure Package
                               Psi4 1.3.2 release

                         Git: Rev {HEAD} ecbda83 


    R. M. Parrish, L. A. Burns, D. G. A. Smith, A. C. Simmonett,
    A. E. DePrince III, E. G. Hohenstein, U. Bozkaya, A. Yu. Sokolov,
    R. Di Remigio, R. M. Richard, J. F. Gonthier, A. M. James,
    H. R. McAlexander, A. Kumar, M. Saitow, X. Wang, B. P. Pritchard,
    P. Verma, H. F. Schaefer III, K. Patkowski, R. A. King, E. F. Valeev,
    F. A. Evangelista, J. M. Turney, T. D. Crawford, and C. D. Sherrill,
    J. Chem. Theory Comput. 13(7) pp 3185--3197 (2017).
    (doi: 10.1021/acs.jctc.7b00174)


                         Additional Contributions by
    P. Kraus, H. Kruse, M. H. Lechner, M. C. Schieber, R. A. Shaw,
    A. Alenaizan, R. Galvelis, Z. L. Glick, S. Lehtola, and J. P. Misiewicz

    -----------------------------------------------------------------------


    Psi4 started on: Tuesday, 07 April 2020 11:07AM

    Process ID: 4757
    Host:       node37.bme.utexas.edu
    PSIDATADIR: /home/bdw2292/miniconda3/envs/p4env/share/psi4
    Memory:     500.0 MiB
    Threads:    1
    
  ==> Input File <==

--------------------------------------------------------------------------
molecule { 
-2 1
P          0.52021       -0.05567        0.00087
O         -0.95916        0.81346       -0.01050
O          1.52589        1.09386        0.00957
O          0.49500       -0.88028       -1.28845
O          0.47336       -0.88203        1.28845
C         -2.12155        0.03425       -0.00141
H         -2.16827       -0.64053       -0.86995
H         -2.99653        0.69712       -0.03192
H         -2.18972       -0.58712        0.90467
}
memory 100GB
set_num_threads(8)
psi4_io.set_default_path("/scratch/bdw2292")
set freeze_core True
set PROPERTIES_ORIGIN ["COM"]
E, wfn = properties('mp2/6-311++G(2d,2p)',properties=['dipole'],return_wfn=True)
oeprop(wfn,"GRID_ESP","WIBERG_LOWDIN_INDICES")
clean()
--------------------------------------------------------------------------

  Memory set to  93.132 GiB by Python driver.
  Threads set to 8 by Python driver.
    SCF Algorithm Type (re)set to DF.

*** tstart() called on node37.bme.utexas.edu
*** at Tue Apr  7 11:07:04 2020

   => Loading Basis Set <=

    Name: 6-311++G(2D,2P)
    Role: ORBITAL
    Keyword: BASIS
    atoms 1   entry P          line   409 file /home/bdw2292/miniconda3/envs/p4env/share/psi4/basis/6-311ppg_2d_2p_.gbs 
    atoms 2-5 entry O          line   176 file /home/bdw2292/miniconda3/envs/p4env/share/psi4/basis/6-311ppg_2d_2p_.gbs 
    atoms 6   entry C          line   130 file /home/bdw2292/miniconda3/envs/p4env/share/psi4/basis/6-311ppg_2d_2p_.gbs 
    atoms 7-9 entry H          line    45 file /home/bdw2292/miniconda3/envs/p4env/share/psi4/basis/6-311ppg_2d_2p_.gbs 


         ---------------------------------------------------------
                                   SCF
               by Justin Turney, Rob Parrish, Andy Simmonett
                          and Daniel G. A. Smith
                              RHF Reference
                        8 Threads,  95367 MiB Core
         ---------------------------------------------------------

  ==> Geometry <==

    Molecular point group: c1
    Full point group: C1

    Geometry (in Angstrom), charge = -2, multiplicity = 1:

       Center              X                  Y                   Z               Mass       
    ------------   -----------------  -----------------  -----------------  -----------------
         P            0.449323976023    -0.059956644224     0.000888423757    30.973761998420
         O           -1.030046023977     0.809173355776    -0.010481576243    15.994914619570
         O            1.455003976023     1.089573355776     0.009588423757    15.994914619570
         O            0.424113976023    -0.884566644224    -1.288431576243    15.994914619570
         O            0.402473976023    -0.886316644224     1.288468423757    15.994914619570
         C           -2.192436023977     0.029963355776    -0.001391576243    12.000000000000
         H           -2.239156023977    -0.644816644224    -0.869931576243     1.007825032230
         H           -3.067416023977     0.692833355776    -0.031901576243     1.007825032230
         H           -2.260606023977    -0.591406644224     0.904688423757     1.007825032230

  Running in c1 symmetry.

  Rotational constants: A =      0.15240  B =      0.08662  C =      0.08608 [cm^-1]
  Rotational constants: A =   4568.90904  B =   2596.69096  C =   2580.56702 [MHz]
  Nuclear repulsion =  334.409190077223343

  Charge       = -2
  Multiplicity = 1
  Electrons    = 58
  Nalpha       = 29
  Nbeta        = 29

  ==> Algorithm <==

  SCF Algorithm Type is DF.
  DIIS enabled.
  MOM disabled.
  Fractional occupation disabled.
  Guess Type is SAD.
  Energy threshold   = 1.00e-10
  Density threshold  = 1.00e-10
  Integral threshold = 0.00e+00

  ==> Primary Basis <==

  Basis Set: 6-311++G(2D,2P)
    Blend: 6-311++G(2D,2P)
    Number of shells: 88
    Number of basis function: 200
    Number of Cartesian functions: 212
    Spherical Harmonics?: true
    Max angular momentum: 2

   => Loading Basis Set <=

    Name: (6-311++G(2D,2P) AUX)
    Role: JKFIT
    Keyword: DF_BASIS_SCF
    atoms 1   entry P          line   644 file /home/bdw2292/miniconda3/envs/p4env/share/psi4/basis/aug-cc-pvtz-jkfit.gbs 
    atoms 2-5 entry O          line   286 file /home/bdw2292/miniconda3/envs/p4env/share/psi4/basis/aug-cc-pvtz-jkfit.gbs 
    atoms 6   entry C          line   162 file /home/bdw2292/miniconda3/envs/p4env/share/psi4/basis/aug-cc-pvtz-jkfit.gbs 
    atoms 7-9 entry H          line    70 file /home/bdw2292/miniconda3/envs/p4env/share/psi4/basis/aug-cc-pvtz-jkfit.gbs 

  ==> Pre-Iterations <==

   -------------------------------------------------------
    Irrep   Nso     Nmo     Nalpha   Nbeta   Ndocc  Nsocc
   -------------------------------------------------------
     A        200     200       0       0       0       0
   -------------------------------------------------------
    Total     200     200      29      29      29       0
   -------------------------------------------------------

  ==> Integral Setup <==

  DFHelper Memory: AOs need 0.243 GiB; user supplied 69.849 GiB. Using in-core AOs.

  ==> MemDFJK: Density-Fitted J/K Matrices <==

    J tasked:                   Yes
    K tasked:                   Yes
    wK tasked:                   No
    OpenMP threads:               8
    Memory [MiB]:             71525
    Algorithm:                 Core
    Schwarz Cutoff:           1E-12
    Mask sparsity (%):       5.1500
    Fitting Condition:        1E-10

   => Auxiliary Basis Set <=

  Basis Set: (6-311++G(2D,2P) AUX)
    Blend: AUG-CC-PVTZ-JKFIT
    Number of shells: 234
    Number of basis function: 804
    Number of Cartesian functions: 1000
    Spherical Harmonics?: true
    Max angular momentum: 4

  Minimum eigenvalue in the overlap matrix is 3.6952408841E-04.
  Using Symmetric Orthogonalization.

  SCF Guess: Superposition of Atomic Densities via on-the-fly atomic UHF.

  ==> Iterations <==

                           Total Energy        Delta E     RMS |[F,P]|

   @DF-RHF iter SAD:  -678.61980824733314   -6.78620e+02   0.00000e+00 
   @DF-RHF iter   1:  -679.55859979755110   -9.38792e-01   4.69861e-03 DIIS
   @DF-RHF iter   2:  -679.77756071635554   -2.18961e-01   3.24644e-03 DIIS
   @DF-RHF iter   3:  -679.91474333499855   -1.37183e-01   2.51212e-04 DIIS
   @DF-RHF iter   4:  -679.91631597636820   -1.57264e-03   9.82505e-05 DIIS
   @DF-RHF iter   5:  -679.91653210302923   -2.16127e-04   3.20882e-05 DIIS
   @DF-RHF iter   6:  -679.91655370573994   -2.16027e-05   8.87812e-06 DIIS
   @DF-RHF iter   7:  -679.91655621079838   -2.50506e-06   2.77960e-06 DIIS
   @DF-RHF iter   8:  -679.91655652888051   -3.18082e-07   7.72048e-07 DIIS
   @DF-RHF iter   9:  -679.91655656092337   -3.20429e-08   2.49093e-07 DIIS
   @DF-RHF iter  10:  -679.91655656343744   -2.51407e-09   1.19583e-07 DIIS
   @DF-RHF iter  11:  -679.91655656380306   -3.65617e-10   2.35575e-08 DIIS
   @DF-RHF iter  12:  -679.91655656382579   -2.27374e-11   6.70668e-09 DIIS
   @DF-RHF iter  13:  -679.91655656382727   -1.47793e-12   2.14839e-09 DIIS
   @DF-RHF iter  14:  -679.91655656382716    1.13687e-13   8.89470e-10 DIIS
   @DF-RHF iter  15:  -679.91655656382920   -2.04636e-12   2.53364e-10 DIIS
   @DF-RHF iter  16:  -679.91655656382795    1.25056e-12   6.56966e-11 DIIS
  Energy and wave function converged.


  ==> Post-Iterations <==

    Orbital Energies [Eh]
    ---------------------

    Doubly Occupied:                                                      

       1A    -79.646129     2A    -20.204447     3A    -20.098450  
       4A    -20.098329     5A    -20.093018     6A    -10.970297  
       7A     -7.165353     8A     -5.065306     9A     -5.063363  
      10A     -5.063207    11A     -1.018612    12A     -0.914317  
      13A     -0.844169    14A     -0.841458    15A     -0.609334  
      16A     -0.371667    17A     -0.307787    18A     -0.297040  
      19A     -0.256425    20A     -0.185503    21A     -0.178599  
      22A     -0.158535    23A     -0.111529    24A     -0.078326  
      25A     -0.075931    26A     -0.075452    27A     -0.034596  
      28A     -0.032412    29A     -0.001679  

    Virtual:                                                              

      30A      0.233061    31A      0.275117    32A      0.291407  
      33A      0.345700    34A      0.355306    35A      0.359738  
      36A      0.363784    37A      0.385046    38A      0.399935  
      39A      0.408812    40A      0.457254    41A      0.542121  
      42A      0.559479    43A      0.571679    44A      0.578427  
      45A      0.590021    46A      0.632915    47A      0.637022  
      48A      0.645393    49A      0.647693    50A      0.651296  
      51A      0.668535    52A      0.690941    53A      0.694562  
      54A      0.696132    55A      0.705422    56A      0.708194  
      57A      0.734281    58A      0.735257    59A      0.753471  
      60A      0.776347    61A      0.811989    62A      0.832942  
      63A      0.842398    64A      0.876980    65A      0.890455  
      66A      0.892730    67A      0.922532    68A      0.923723  
      69A      0.954916    70A      1.027236    71A      1.033060  
      72A      1.049448    73A      1.095733    74A      1.116614  
      75A      1.132060    76A      1.203768    77A      1.234689  
      78A      1.335675    79A      1.359619    80A      1.370838  
      81A      1.416885    82A      1.428981    83A      1.450705  
      84A      1.532538    85A      1.538212    86A      1.545410  
      87A      1.558450    88A      1.607502    89A      1.676057  
      90A      1.703578    91A      1.717591    92A      1.734888  
      93A      1.754897    94A      1.775404    95A      1.780338  
      96A      1.796479    97A      1.807115    98A      1.842774  
      99A      1.845703   100A      1.861656   101A      1.872616  
     102A      1.878849   103A      1.940847   104A      1.957401  
     105A      1.976876   106A      2.064749   107A      2.101623  
     108A      2.135080   109A      2.141802   110A      2.162355  
     111A      2.175439   112A      2.203907   113A      2.257721  
     114A      2.261481   115A      2.265430   116A      2.268554  
     117A      2.289031   118A      2.370021   119A      2.427168  
     120A      2.459027   121A      2.500033   122A      2.569156  
     123A      2.577017   124A      2.607500   125A      2.669689  
     126A      2.708413   127A      2.737575   128A      2.761350  
     129A      2.882087   130A      2.927351   131A      2.933646  
     132A      3.023165   133A      3.138562   134A      3.206424  
     135A      3.236097   136A      3.268527   137A      3.384015  
     138A      3.456916   139A      3.526902   140A      3.559809  
     141A      3.709696   142A      3.819888   143A      3.894875  
     144A      4.013882   145A      4.044768   146A      4.080409  
     147A      4.263395   148A      4.306170   149A      4.376216  
     150A      4.459968   151A      4.617072   152A      4.638928  
     153A      4.766310   154A      4.769441   155A      4.840997  
     156A      5.071627   157A      5.707007   158A      5.718943  
     159A      5.956569   160A      5.962486   161A      5.991818  
     162A      5.992965   163A      6.025390   164A      6.036531  
     165A      6.039751   166A      6.058882   167A      6.127472  
     168A      6.218687   169A      6.248284   170A      6.528726  
     171A      7.734681   172A      7.736345   173A      7.750878  
     174A      7.779069   175A      7.796765   176A      7.809018  
     177A      7.816102   178A      7.826702   179A      7.886909  
     180A      7.939786   181A      7.949732   182A      8.016211  
     183A      8.027950   184A      8.062646   185A      8.108452  
     186A      8.236142   187A      8.305871   188A      8.334991  
     189A      8.364425   190A      8.445172   191A      8.593525  
     192A     15.474636   193A     15.526187   194A     15.579720  
     195A     25.425510   196A     52.037566   197A     52.095662  
     198A     52.099806   199A     52.136065   200A    167.088692  

    Final Occupation by Irrep:
              A 
    DOCC [    29 ]

  @DF-RHF Final Energy:  -679.91655656382795

   => Energetics <=

    Nuclear Repulsion Energy =            334.4091900772233430
    One-Electron Energy =               -1628.9289574659076152
    Two-Electron Energy =                 614.6032108248562054
    Total Energy =                       -679.9165565638279531

Computation Completed

*** tstop() called on node37.bme.utexas.edu at Tue Apr  7 11:07:07 2020
Module time:
	user time   =      22.21 seconds =       0.37 minutes
	system time =       1.72 seconds =       0.03 minutes
	total time  =          3 seconds =       0.05 minutes
Total time:
	user time   =      22.21 seconds =       0.37 minutes
	system time =       1.72 seconds =       0.03 minutes
	total time  =          3 seconds =       0.05 minutes
   => Loading Basis Set <=

    Name: (6-311++G(2D,2P) AUX)
    Role: RIFIT
    Keyword: DF_BASIS_MP2
    atoms 1   entry P          line   590 file /home/bdw2292/miniconda3/envs/p4env/share/psi4/basis/aug-cc-pvtz-ri.gbs 
    atoms 2-5 entry O          line   264 file /home/bdw2292/miniconda3/envs/p4env/share/psi4/basis/aug-cc-pvtz-ri.gbs 
    atoms 6   entry C          line   148 file /home/bdw2292/miniconda3/envs/p4env/share/psi4/basis/aug-cc-pvtz-ri.gbs 
    atoms 7-9 entry H          line    30 file /home/bdw2292/miniconda3/envs/p4env/share/psi4/basis/aug-cc-pvtz-ri.gbs 


*** tstart() called on node37.bme.utexas.edu
*** at Tue Apr  7 11:07:07 2020


  //>>>>>>>>>>>>>>>>>>>>>>>>>>>>>>>>>>>//
  //               DFMP2               //
  //<<<<<<<<<<<<<<<<<<<<<<<<<<<<<<<<<<<//

	 --------------------------------------------------------
	                          DF-MP2                         
	      2nd-Order Density-Fitted Moller-Plesset Theory     
	              RMP2 Wavefunction,   8 Threads             
	                                                         
	        Rob Parrish, Justin Turney, Andy Simmonett,      
	           Ed Hohenstein, and C. David Sherrill          
	 --------------------------------------------------------

   => Auxiliary Basis Set <=

  Basis Set: (6-311++G(2D,2P) AUX)
    Blend: AUG-CC-PVTZ-RI
    Number of shells: 219
    Number of basis function: 815
    Number of Cartesian functions: 1036
    Spherical Harmonics?: true
    Max angular momentum: 4

	 --------------------------------------------------------
	                 NBF =   200, NAUX =   815
	 --------------------------------------------------------
	   CLASS    FOCC     OCC    AOCC    AVIR     VIR    FVIR
	   PAIRS      10      29      19     171     171       0
	 --------------------------------------------------------

  DFHelper Memory: AOs need 0.243 GiB; user supplied 69.849 GiB. Using in-core AOs.


         ------------------------------------------------------------
                                     CPHF                           
                                  Rob Parrish                       
         ------------------------------------------------------------

  ==> Geometry <==

    Molecular point group: c1
    Full point group: C1

    Geometry (in Angstrom), charge = -2, multiplicity = 1:

       Center              X                  Y                   Z               Mass       
    ------------   -----------------  -----------------  -----------------  -----------------
         P            0.449323976023    -0.059956644224     0.000888423757    30.973761998420
         O           -1.030046023977     0.809173355776    -0.010481576243    15.994914619570
         O            1.455003976023     1.089573355776     0.009588423757    15.994914619570
         O            0.424113976023    -0.884566644224    -1.288431576243    15.994914619570
         O            0.402473976023    -0.886316644224     1.288468423757    15.994914619570
         C           -2.192436023977     0.029963355776    -0.001391576243    12.000000000000
         H           -2.239156023977    -0.644816644224    -0.869931576243     1.007825032230
         H           -3.067416023977     0.692833355776    -0.031901576243     1.007825032230
         H           -2.260606023977    -0.591406644224     0.904688423757     1.007825032230

  Nuclear repulsion =  334.409190077223343
  Reference energy  = -679.916556563827953

  ==> Basis Set <==

  Basis Set: 6-311++G(2D,2P)
    Blend: 6-311++G(2D,2P)
    Number of shells: 88
    Number of basis function: 200
    Number of Cartesian functions: 212
    Spherical Harmonics?: true
    Max angular momentum: 2

  ==> CGRSolver (by Rob Parrish) <==

   Number of roots    =         1
   Preconditioning    =    JACOBI
   Convergence cutoff =     1E-06
   Maximum iterations =       100

  ==> CPHFRHamiltonian (by Rob Parrish) <== 

  ==> MemDFJK: Density-Fitted J/K Matrices <==

    J tasked:                   Yes
    K tasked:                   Yes
    wK tasked:                   No
    OpenMP threads:               8
    Memory [MiB]:             71525
    Algorithm:                 Core
    Schwarz Cutoff:           1E-12
    Mask sparsity (%):       5.1500
    Fitting Condition:        1E-10

   => Auxiliary Basis Set <=

  Basis Set: (6-311++G(2D,2P) AUX)
    Blend: AUG-CC-PVTZ-JKFIT
    Number of shells: 234
    Number of basis function: 804
    Number of Cartesian functions: 1000
    Spherical Harmonics?: true
    Max angular momentum: 4

  ==> CPHF Iterations <==

  => Iterations <=

             Iter  Converged  Remaining    Residual
  CGR           1          0          1   8.405E-02
  CGR           2          0          1   1.735E-02
  CGR           3          0          1   6.947E-03
  CGR           4          0          1   2.173E-03
  CGR           5          0          1   7.826E-04
  CGR           6          0          1   2.171E-04
  CGR           7          0          1   5.421E-05
  CGR           8          0          1   2.028E-05
  CGR           9          0          1   7.900E-06
  CGR          10          0          1   1.549E-06
  CGR          11          1          0   5.582E-07

    CGRSolver converged.

	-----------------------------------------------------------
	 ==================> DF-MP2 Energies <==================== 
	-----------------------------------------------------------
	 Reference Energy          =    -679.9165565638279531 [Eh]
	 Singles Energy            =      -0.0000000000000000 [Eh]
	 Same-Spin Energy          =      -0.3229443872501966 [Eh]
	 Opposite-Spin Energy      =      -0.8677358706271752 [Eh]
	 Correlation Energy        =      -1.1906802578773719 [Eh]
	 Total Energy              =    -681.1072368217053281 [Eh]
	-----------------------------------------------------------
	 ================> DF-SCS-MP2 Energies <================== 
	-----------------------------------------------------------
	 SCS Same-Spin Scale       =       0.3333333333333333 [-]
	 SCS Opposite-Spin Scale   =       1.2000000000000000 [-]
	 SCS Same-Spin Energy      =      -0.1076481290833989 [Eh]
	 SCS Opposite-Spin Energy  =      -1.0412830447526102 [Eh]
	 SCS Correlation Energy    =      -1.1489311738360091 [Eh]
	 SCS Total Energy          =    -681.0654877376639433 [Eh]
	-----------------------------------------------------------



Properties will be evaluated at   0.000000,  -0.000000,  -0.000000 [a0]

Properties computed using the MP2 density matrix

  Nuclear Dipole Moment: [e a0]
     X:    -7.5014      Y:    -0.4536      Z:     0.0019

  Electronic Dipole Moment: [e a0]
     X:     5.4708      Y:     0.6844      Z:    -0.0062

  Dipole Moment: [e a0]
     X:    -2.0306      Y:     0.2307      Z:    -0.0044     Total:     2.0437

  Dipole Moment: [D]
     X:    -5.1612      Y:     0.5865      Z:    -0.0111     Total:     5.1945


*** tstop() called on node37.bme.utexas.edu at Tue Apr  7 11:07:14 2020
Module time:
	user time   =      46.96 seconds =       0.78 minutes
	system time =       2.05 seconds =       0.03 minutes
	total time  =          7 seconds =       0.12 minutes
Total time:
	user time   =      70.03 seconds =       1.17 minutes
	system time =       3.83 seconds =       0.06 minutes
	total time  =         10 seconds =       0.17 minutes


Properties will be evaluated at   0.000000,  -0.000000,  -0.000000 [a0]
OEProp: No title given, name of density matrix used for the following properties is 'DF-MP2 relaxed density'


  Wiberg Bond Indices using Orthogonal Lowdin Orbitals:

  Irrep: 1 Size: 9 x 9

                 1                   2                   3                   4                   5

    1     0.00000000000000     0.93285021184363     1.81424858690030     1.78862485820399     1.78793644960635
    2     0.93285021184363     0.00000000000000     0.13085872110397     0.10959183851754     0.10950218504388
    3     1.81424858690030     0.13085872110397     0.00000000000000     0.13044737762812     0.13031760033040
    4     1.78862485820399     0.10959183851754     0.13044737762812     0.00000000000000     0.13550985044541
    5     1.78793644960635     0.10950218504388     0.13031760033040     0.13550985044541     0.00000000000000
    6     0.12416942072975     1.53624646130865     0.02683590846973     0.05683274885997     0.05840854835628
    7     0.02088424707785     0.10901822740592     0.00385243531749     0.02965186591018     0.00538665118562
    8     0.01430083430346     0.10674915353233     0.00363103209991     0.00417868581518     0.00434784632805
    9     0.02037537813859     0.10910514649198     0.00376293260965     0.00508751822183     0.02923546927550

                 6                   7                   8                   9

    1     0.12416942072975     0.02088424707785     0.01430083430346     0.02037537813859
    2     1.53624646130865     0.10901822740592     0.10674915353233     0.10910514649198
    3     0.02683590846973     0.00385243531749     0.00363103209991     0.00376293260965
    4     0.05683274885997     0.02965186591018     0.00417868581518     0.00508751822183
    5     0.05840854835628     0.00538665118562     0.00434784632805     0.02923546927550
    6     0.00000000000000     0.89594304747091     0.92026055251505     0.89695092846937
    7     0.89594304747091     0.00000000000000     0.08771800970364     0.08548103232087
    8     0.92026055251505     0.08771800970364     0.00000000000000     0.08773449659314
    9     0.89695092846937     0.08548103232087     0.08773449659314     0.00000000000000



  Atomic Valences: 

 #  #
 Irrep: 1
      1:  6.5033900
      2:  3.1439219
      3:  2.2439546
      4:  2.2599247
      5:  2.2606446
      6:  4.5156476
      7:  1.2379355
      8:  1.2289206
      9:  1.2377329


 Electrostatic potential computed on the grid and written to grid_esp.dat

    Psi4 stopped on: Tuesday, 07 April 2020 11:08AM
    Psi4 wall time for execution: 0:01:26.15

*** Psi4 exiting successfully. Buy a developer a beer!
