MonoMethylPhosphate0H Gaussian SP Calculation on node37.bme.utexas.edu  
SP        RMP2-FC                                                     6-311++G(2d,2p)     
Number of atoms                            I                9
Info1-9                                    I   N=           9
          22          22           0           0           0         110
           1           2           1
Charge                                     I               -2
Multiplicity                               I                1
Number of electrons                        I               58
Number of alpha electrons                  I               29
Number of beta electrons                   I               29
Number of basis functions                  I              200
Number of independent functions            I              200
Number of point charges in /Mol/           I                0
Number of translation vectors              I                0
Atomic numbers                             I   N=           9
          15           8           8           8           8           6
           1           1           1
Nuclear charges                            R   N=           9
  1.50000000E+01  8.00000000E+00  8.00000000E+00  8.00000000E+00  8.00000000E+00
  6.00000000E+00  1.00000000E+00  1.00000000E+00  1.00000000E+00
Current cartesian coordinates              R   N=          27
  9.83050652E-01 -1.05202944E-01  1.64784119E-03 -1.81255539E+00  1.53722418E+00
 -1.98383449E-02  2.88351421E+00  2.06709205E+00  1.80752305E-02  9.35421995E-01
 -1.66348056E+00 -2.43480819E+00  8.94513203E-01 -1.66680270E+00  2.43482519E+00
 -4.00914470E+00  6.47231201E-02 -2.67207275E-03 -4.09744404E+00 -1.21041872E+00
 -1.64397103E+00 -5.66262861E+00  1.31736588E+00 -6.03219479E-02 -4.13796544E+00
 -1.10950168E+00  1.70956909E+00
Force Field                                I                0
Int Atom Types                             I   N=           9
           0           0           0           0           0           0
           0           0           0
MM charges                                 R   N=           9
  0.00000000E+00  0.00000000E+00  0.00000000E+00  0.00000000E+00  0.00000000E+00
  0.00000000E+00  0.00000000E+00  0.00000000E+00  0.00000000E+00
Integer atomic weights                     I   N=           9
          31          16          16          16          16          12
           1           1           1
Real atomic weights                        R   N=           9
  3.09737634E+01  1.59949146E+01  1.59949146E+01  1.59949146E+01  1.59949146E+01
  1.20000000E+01  1.00782504E+00  1.00782504E+00  1.00782504E+00
Atom fragment info                         I   N=           9
           0           0           0           0           0           0
           0           0           0
Atom residue num                           I   N=           9
           0           0           0           0           0           0
           0           0           0
Nuclear spins                              I   N=           9
           1           0           0           0           0           0
           1           1           1
Nuclear ZEff                               R   N=           9
 -1.29400000E+01 -5.60000000E+00 -5.60000000E+00 -5.60000000E+00 -5.60000000E+00
 -3.60000000E+00 -1.00000000E+00 -1.00000000E+00 -1.00000000E+00
Nuclear QMom                               R   N=           9
  0.00000000E+00  0.00000000E+00  0.00000000E+00  0.00000000E+00  0.00000000E+00
  0.00000000E+00  0.00000000E+00  0.00000000E+00  0.00000000E+00
Nuclear GFac                               R   N=           9
  1.13160000E+00  0.00000000E+00  0.00000000E+00  0.00000000E+00  0.00000000E+00
  0.00000000E+00  2.79284600E+00  2.79284600E+00  2.79284600E+00
MicOpt                                     I   N=           9
          -1          -1          -1          -1          -1          -1
          -1          -1          -1
Number of contracted shells                I               67
Number of primitive shells                 I              119
Pure/Cartesian d shells                    I                0
Pure/Cartesian f shells                    I                0
Highest angular momentum                   I                2
Largest degree of contraction              I                6
Shell types                                I   N=          67
           0           0           0           0           0           0
          -1           1           1           1           1           1
          -2          -2           0          -1          -1          -1
          -1          -2          -2           0          -1          -1
          -1          -1          -2          -2           0          -1
          -1          -1          -1          -2          -2           0
          -1          -1          -1          -1          -2          -2
           0          -1          -1          -1          -1          -2
          -2           0           0           0           0           1
           1           0           0           0           0           1
           1           0           0           0           0           1
           1
Number of primitives per shell             I   N=          67
           6           3           1           1           1           1
           1           4           2           1           1           1
           1           1           6           3           1           1
           1           1           1           6           3           1
           1           1           1           1           6           3
           1           1           1           1           1           6
           3           1           1           1           1           1
           6           3           1           1           1           1
           1           3           1           1           1           1
           1           3           1           1           1           1
           1           3           1           1           1           1
           1
Shell to atom map                          I   N=          67
           1           1           1           1           1           1
           1           1           1           1           1           1
           1           1           2           2           2           2
           2           2           2           3           3           3
           3           3           3           3           4           4
           4           4           4           4           4           5
           5           5           5           5           5           5
           6           6           6           6           6           6
           6           7           7           7           7           7
           7           8           8           8           8           8
           8           9           9           9           9           9
           9
Primitive exponents                        R   N=         119
  7.74924000E+04  1.16058000E+04  2.64596000E+03  7.54976000E+02  2.48755000E+02
  9.11565000E+01  9.11565000E+01  3.62257000E+01  1.52113000E+01  4.79417000E+00
  1.80793000E+00  3.56816000E-01  1.14783000E-01  3.48000000E-02  3.84843000E+02
  9.05521000E+01  2.91339000E+01  1.08862000E+01  4.35259000E+00  1.77706000E+00
  6.97005000E-01  2.53532000E-01  6.84930000E-02  1.10000000E+00  2.75000000E-01
  8.58850000E+03  1.29723000E+03  2.99296000E+02  8.73771000E+01  2.56789000E+01
  3.74004000E+00  4.21175000E+01  9.62837000E+00  2.85332000E+00  9.05661000E-01
  2.55611000E-01  8.45000000E-02  2.58400000E+00  6.46000000E-01  8.58850000E+03
  1.29723000E+03  2.99296000E+02  8.73771000E+01  2.56789000E+01  3.74004000E+00
  4.21175000E+01  9.62837000E+00  2.85332000E+00  9.05661000E-01  2.55611000E-01
  8.45000000E-02  2.58400000E+00  6.46000000E-01  8.58850000E+03  1.29723000E+03
  2.99296000E+02  8.73771000E+01  2.56789000E+01  3.74004000E+00  4.21175000E+01
  9.62837000E+00  2.85332000E+00  9.05661000E-01  2.55611000E-01  8.45000000E-02
  2.58400000E+00  6.46000000E-01  8.58850000E+03  1.29723000E+03  2.99296000E+02
  8.73771000E+01  2.56789000E+01  3.74004000E+00  4.21175000E+01  9.62837000E+00
  2.85332000E+00  9.05661000E-01  2.55611000E-01  8.45000000E-02  2.58400000E+00
  6.46000000E-01  4.56324000E+03  6.82024000E+02  1.54973000E+02  4.44553000E+01
  1.30290000E+01  1.82773000E+00  2.09642000E+01  4.80331000E+00  1.45933000E+00
  4.83456000E-01  1.45585000E-01  4.38000000E-02  1.25200000E+00  3.13000000E-01
  3.38650000E+01  5.09479000E+00  1.15879000E+00  3.25840000E-01  1.02741000E-01
  3.60000000E-02  1.50000000E+00  3.75000000E-01  3.38650000E+01  5.09479000E+00
  1.15879000E+00  3.25840000E-01  1.02741000E-01  3.60000000E-02  1.50000000E+00
  3.75000000E-01  3.38650000E+01  5.09479000E+00  1.15879000E+00  3.25840000E-01
  1.02741000E-01  3.60000000E-02  1.50000000E+00  3.75000000E-01
Contraction coefficients                   R   N=         119
  7.81000147E-04  6.06800114E-03  3.11600059E-02  1.23431023E-01  3.78209071E-01
  5.63262106E-01  1.60255011E-01  6.27647045E-01  2.63849019E-01  1.00000000E+00
  1.00000000E+00  1.00000000E+00  1.00000000E+00  1.00000000E+00  9.20599888E-03
  6.98739915E-02  2.92469964E-01  7.28102911E-01  6.28348873E-01  4.28043913E-01
  1.00000000E+00  1.00000000E+00  1.00000000E+00  1.00000000E+00  1.00000000E+00
  1.89515008E-03  1.43859006E-02  7.07320031E-02  2.40001011E-01  5.94797026E-01
  2.80802012E-01  1.13889012E-01  9.20811101E-01 -3.27447036E-03  1.00000000E+00
  1.00000000E+00  1.00000000E+00  1.00000000E+00  1.00000000E+00  1.89515008E-03
  1.43859006E-02  7.07320031E-02  2.40001011E-01  5.94797026E-01  2.80802012E-01
  1.13889012E-01  9.20811101E-01 -3.27447036E-03  1.00000000E+00  1.00000000E+00
  1.00000000E+00  1.00000000E+00  1.00000000E+00  1.89515008E-03  1.43859006E-02
  7.07320031E-02  2.40001011E-01  5.94797026E-01  2.80802012E-01  1.13889012E-01
  9.20811101E-01 -3.27447036E-03  1.00000000E+00  1.00000000E+00  1.00000000E+00
  1.00000000E+00  1.00000000E+00  1.89515008E-03  1.43859006E-02  7.07320031E-02
  2.40001011E-01  5.94797026E-01  2.80802012E-01  1.13889012E-01  9.20811101E-01
 -3.27447036E-03  1.00000000E+00  1.00000000E+00  1.00000000E+00  1.00000000E+00
  1.00000000E+00  1.96665025E-03  1.52306019E-02  7.61269097E-02  2.60801033E-01
  6.16462078E-01  2.21006028E-01  1.14660081E-01  9.19999648E-01 -3.03068213E-03
  1.00000000E+00  1.00000000E+00  1.00000000E+00  1.00000000E+00  1.00000000E+00
  2.54938145E-02  1.90373109E-01  8.52161486E-01  1.00000000E+00  1.00000000E+00
  1.00000000E+00  1.00000000E+00  1.00000000E+00  2.54938145E-02  1.90373109E-01
  8.52161486E-01  1.00000000E+00  1.00000000E+00  1.00000000E+00  1.00000000E+00
  1.00000000E+00  2.54938145E-02  1.90373109E-01  8.52161486E-01  1.00000000E+00
  1.00000000E+00  1.00000000E+00  1.00000000E+00  1.00000000E+00
P(S=P) Contraction coefficients            R   N=         119
  0.00000000E+00  0.00000000E+00  0.00000000E+00  0.00000000E+00  0.00000000E+00
  0.00000000E+00  0.00000000E+00  0.00000000E+00  0.00000000E+00  0.00000000E+00
  0.00000000E+00  0.00000000E+00  0.00000000E+00  1.00000000E+00  0.00000000E+00
  0.00000000E+00  0.00000000E+00  0.00000000E+00  0.00000000E+00  0.00000000E+00
  0.00000000E+00  0.00000000E+00  0.00000000E+00  0.00000000E+00  0.00000000E+00
  0.00000000E+00  0.00000000E+00  0.00000000E+00  0.00000000E+00  0.00000000E+00
  0.00000000E+00  3.65113974E-02  2.37152983E-01  8.19701941E-01  1.00000000E+00
  1.00000000E+00  1.00000000E+00  0.00000000E+00  0.00000000E+00  0.00000000E+00
  0.00000000E+00  0.00000000E+00  0.00000000E+00  0.00000000E+00  0.00000000E+00
  3.65113974E-02  2.37152983E-01  8.19701941E-01  1.00000000E+00  1.00000000E+00
  1.00000000E+00  0.00000000E+00  0.00000000E+00  0.00000000E+00  0.00000000E+00
  0.00000000E+00  0.00000000E+00  0.00000000E+00  0.00000000E+00  3.65113974E-02
  2.37152983E-01  8.19701941E-01  1.00000000E+00  1.00000000E+00  1.00000000E+00
  0.00000000E+00  0.00000000E+00  0.00000000E+00  0.00000000E+00  0.00000000E+00
  0.00000000E+00  0.00000000E+00  0.00000000E+00  3.65113974E-02  2.37152983E-01
  8.19701941E-01  1.00000000E+00  1.00000000E+00  1.00000000E+00  0.00000000E+00
  0.00000000E+00  0.00000000E+00  0.00000000E+00  0.00000000E+00  0.00000000E+00
  0.00000000E+00  0.00000000E+00  4.02486927E-02  2.37593957E-01  8.15853851E-01
  1.00000000E+00  1.00000000E+00  1.00000000E+00  0.00000000E+00  0.00000000E+00
  0.00000000E+00  0.00000000E+00  0.00000000E+00  0.00000000E+00  0.00000000E+00
  0.00000000E+00  0.00000000E+00  0.00000000E+00  0.00000000E+00  0.00000000E+00
  0.00000000E+00  0.00000000E+00  0.00000000E+00  0.00000000E+00  0.00000000E+00
  0.00000000E+00  0.00000000E+00  0.00000000E+00  0.00000000E+00  0.00000000E+00
  0.00000000E+00  0.00000000E+00  0.00000000E+00  0.00000000E+00
Coordinates of each shell                  R   N=         201
  9.83050573E-01 -1.05202801E-01  1.64797617E-03  9.83050573E-01 -1.05202801E-01
  1.64797617E-03  9.83050573E-01 -1.05202801E-01  1.64797617E-03  9.83050573E-01
 -1.05202801E-01  1.64797617E-03  9.83050573E-01 -1.05202801E-01  1.64797617E-03
  9.83050573E-01 -1.05202801E-01  1.64797617E-03  9.83050573E-01 -1.05202801E-01
  1.64797617E-03  9.83050573E-01 -1.05202801E-01  1.64797617E-03  9.83050573E-01
 -1.05202801E-01  1.64797617E-03  9.83050573E-01 -1.05202801E-01  1.64797617E-03
  9.83050573E-01 -1.05202801E-01  1.64797617E-03  9.83050573E-01 -1.05202801E-01
  1.64797617E-03  9.83050573E-01 -1.05202801E-01  1.64797617E-03  9.83050573E-01
 -1.05202801E-01  1.64797617E-03 -1.81255582E+00  1.53722372E+00 -1.98382100E-02
 -1.81255582E+00  1.53722372E+00 -1.98382100E-02 -1.81255582E+00  1.53722372E+00
 -1.98382100E-02 -1.81255582E+00  1.53722372E+00 -1.98382100E-02 -1.81255582E+00
  1.53722372E+00 -1.98382100E-02 -1.81255582E+00  1.53722372E+00 -1.98382100E-02
 -1.81255582E+00  1.53722372E+00 -1.98382100E-02  2.88351367E+00  2.06709260E+00
  1.80753654E-02  2.88351367E+00  2.06709260E+00  1.80753654E-02  2.88351367E+00
  2.06709260E+00  1.80753654E-02  2.88351367E+00  2.06709260E+00  1.80753654E-02
  2.88351367E+00  2.06709260E+00  1.80753654E-02  2.88351367E+00  2.06709260E+00
  1.80753654E-02  2.88351367E+00  2.06709260E+00  1.80753654E-02  9.35422248E-01
 -1.66348043E+00 -2.43480805E+00  9.35422248E-01 -1.66348043E+00 -2.43480805E+00
  9.35422248E-01 -1.66348043E+00 -2.43480805E+00  9.35422248E-01 -1.66348043E+00
 -2.43480805E+00  9.35422248E-01 -1.66348043E+00 -2.43480805E+00  9.35422248E-01
 -1.66348043E+00 -2.43480805E+00  9.35422248E-01 -1.66348043E+00 -2.43480805E+00
  8.94513458E-01 -1.66680258E+00  2.43482533E+00  8.94513458E-01 -1.66680258E+00
  2.43482533E+00  8.94513458E-01 -1.66680258E+00  2.43482533E+00  8.94513458E-01
 -1.66680258E+00  2.43482533E+00  8.94513458E-01 -1.66680258E+00  2.43482533E+00
  8.94513458E-01 -1.66680258E+00  2.43482533E+00  8.94513458E-01 -1.66680258E+00
  2.43482533E+00 -4.00914481E+00  6.47221971E-02 -2.67193777E-03 -4.00914481E+00
  6.47221971E-02 -2.67193777E-03 -4.00914481E+00  6.47221971E-02 -2.67193777E-03
 -4.00914481E+00  6.47221971E-02 -2.67193777E-03 -4.00914481E+00  6.47221971E-02
 -2.67193777E-03 -4.00914481E+00  6.47221971E-02 -2.67193777E-03 -4.00914481E+00
  6.47221971E-02 -2.67193777E-03 -4.09744388E+00 -1.21041966E+00 -1.64397089E+00
 -4.09744388E+00 -1.21041966E+00 -1.64397089E+00 -4.09744388E+00 -1.21041966E+00
 -1.64397089E+00 -4.09744388E+00 -1.21041966E+00 -1.64397089E+00 -4.09744388E+00
 -1.21041966E+00 -1.64397089E+00 -4.09744388E+00 -1.21041966E+00 -1.64397089E+00
 -5.66262899E+00  1.31736461E+00 -6.03218129E-02 -5.66262899E+00  1.31736461E+00
 -6.03218129E-02 -5.66262899E+00  1.31736461E+00 -6.03218129E-02 -5.66262899E+00
  1.31736461E+00 -6.03218129E-02 -5.66262899E+00  1.31736461E+00 -6.03218129E-02
 -5.66262899E+00  1.31736461E+00 -6.03218129E-02 -4.13796530E+00 -1.10950263E+00
  1.70956923E+00 -4.13796530E+00 -1.10950263E+00  1.70956923E+00 -4.13796530E+00
 -1.10950263E+00  1.70956923E+00 -4.13796530E+00 -1.10950263E+00  1.70956923E+00
 -4.13796530E+00 -1.10950263E+00  1.70956923E+00 -4.13796530E+00 -1.10950263E+00
  1.70956923E+00
Constraint Structure                       R   N=          27
  9.83050573E-01 -1.05202801E-01  1.64797617E-03 -1.81255582E+00  1.53722372E+00
 -1.98382100E-02  2.88351367E+00  2.06709260E+00  1.80753654E-02  9.35422248E-01
 -1.66348043E+00 -2.43480805E+00  8.94513458E-01 -1.66680258E+00  2.43482533E+00
 -4.00914481E+00  6.47221971E-02 -2.67193777E-03 -4.09744388E+00 -1.21041966E+00
 -1.64397089E+00 -5.66262899E+00  1.31736461E+00 -6.03218129E-02 -4.13796530E+00
 -1.10950263E+00  1.70956923E+00
Num ILSW                                   I              100
ILSW                                       I   N=         100
           0           0           0           0           2           0
           0           0           0           0           0 20132659200
           0           0           0           0           0           0
           0           0           0           0           0           0
           1           0           0           0           0           0
           0           0      100000           0          -1           0
           0           0           0           0           0           0
           0           0           0           1           0           0
           0           0           1           0           0           0
           0           0           4          40           0           0
           0           0           0           0           0           0
           0           0           0           0           0           0
           0           0           0           0           0           0
           0           0           0           0           0           0
           0           0           0           0           0           0
           0           0           0           0           0           0
           0           0           0           0
Num RLSW                                   I               40
RLSW                                       R   N=          40
  1.00000000E+00  1.00000000E+00  1.00000000E+00  1.00000000E+00  1.00000000E+00
  0.00000000E+00  0.00000000E+00  1.00000000E+00  0.00000000E+00  0.00000000E+00
  0.00000000E+00  0.00000000E+00  1.00000000E+00  0.00000000E+00  0.00000000E+00
  0.00000000E+00  0.00000000E+00  1.00000000E+00  0.00000000E+00  0.00000000E+00
  0.00000000E+00  0.00000000E+00  1.00000000E+00  0.00000000E+00  0.00000000E+00
  0.00000000E+00  0.00000000E+00  1.00000000E+00  0.00000000E+00  0.00000000E+00
  0.00000000E+00  0.00000000E+00  0.00000000E+00  0.00000000E+00  0.00000000E+00
  0.00000000E+00  0.00000000E+00  0.00000000E+00  1.00000000E+00  1.00000000E+00
MxBond                                     I                4
NBond                                      I   N=           9
           4           2           1           1           1           4
           1           1           1
IBond                                      I   N=          36
           2           3           4           5           1           6
           0           0           1           0           0           0
           1           0           0           0           1           0
           0           0           2           7           8           9
           6           0           0           0           6           0
           0           0           6           0           0           0
RBond                                      R   N=          36
  1.00000000E+00  2.00000000E+00  1.00000000E+00  1.00000000E+00  1.00000000E+00
  1.00000000E+00  0.00000000E+00  0.00000000E+00  2.00000000E+00  0.00000000E+00
  0.00000000E+00  0.00000000E+00  1.00000000E+00  0.00000000E+00  0.00000000E+00
  0.00000000E+00  1.00000000E+00  0.00000000E+00  0.00000000E+00  0.00000000E+00
  1.00000000E+00  1.00000000E+00  1.00000000E+00  1.00000000E+00  1.00000000E+00
  0.00000000E+00  0.00000000E+00  0.00000000E+00  1.00000000E+00  0.00000000E+00
  0.00000000E+00  0.00000000E+00  1.00000000E+00  0.00000000E+00  0.00000000E+00
  0.00000000E+00
Virial Ratio                               R      2.000663915349386E+00
SCF Energy                                 R     -6.799168758882255E+02
MP2 Energy                                 R     -6.811077098738534E+02
Total Energy                               R     -6.811077098738534E+02
Post-SCF wavefunction norm                 R      1.158041574282722E+00
RMS Density                                R      6.580579868952014E-09
External E-field                           R   N=          35
  0.00000000E+00  0.00000000E+00  0.00000000E+00  0.00000000E+00  0.00000000E+00
  0.00000000E+00  0.00000000E+00  0.00000000E+00  0.00000000E+00  0.00000000E+00
  0.00000000E+00  0.00000000E+00  0.00000000E+00  0.00000000E+00  0.00000000E+00
  0.00000000E+00  0.00000000E+00  0.00000000E+00  0.00000000E+00  0.00000000E+00
  0.00000000E+00  0.00000000E+00  0.00000000E+00  0.00000000E+00  0.00000000E+00
  0.00000000E+00  0.00000000E+00  0.00000000E+00  0.00000000E+00  0.00000000E+00
  0.00000000E+00  0.00000000E+00  0.00000000E+00  0.00000000E+00  0.00000000E+00
IOpCl                                      I                0
IROHF                                      I                0
Alpha Orbital Energies                     R   N=         200
 -7.96459561E+01 -2.02044384E+01 -2.00984518E+01 -2.00983306E+01 -2.00930206E+01
 -1.09702874E+01 -7.16516437E+00 -5.06514629E+00 -5.06319982E+00 -5.06304398E+00
 -1.01858705E+00 -9.14283912E-01 -8.44149240E-01 -8.41437988E-01 -6.09324346E-01
 -3.71644469E-01 -3.07782363E-01 -2.97027512E-01 -2.56405683E-01 -1.85492365E-01
 -1.78586449E-01 -1.58528019E-01 -1.11525286E-01 -7.83422004E-02 -7.59511908E-02
 -7.54616811E-02 -3.45998180E-02 -3.24106940E-02 -1.66487572E-03  2.33043540E-01
  2.75111155E-01  2.91415728E-01  3.45691931E-01  3.55282485E-01  3.59725570E-01
  3.63773345E-01  3.85050212E-01  3.99927384E-01  4.08813635E-01  4.57252052E-01
  5.42116467E-01  5.59459592E-01  5.71668169E-01  5.78396429E-01  5.90005392E-01
  6.32920546E-01  6.37006434E-01  6.45380418E-01  6.47671433E-01  6.51291925E-01
  6.68492896E-01  6.90914412E-01  6.94526610E-01  6.96098843E-01  7.05393568E-01
  7.08162428E-01  7.34253760E-01  7.35225700E-01  7.53449625E-01  7.76331971E-01
  8.11984500E-01  8.32959060E-01  8.42392020E-01  8.76960010E-01  8.90440832E-01
  8.92672488E-01  9.22461548E-01  9.23693675E-01  9.54891307E-01  1.02720408E+00
  1.03302272E+00  1.04939467E+00  1.09572571E+00  1.11639067E+00  1.13192819E+00
  1.20367572E+00  1.23450038E+00  1.33561382E+00  1.35957128E+00  1.37060666E+00
  1.41671667E+00  1.42882073E+00  1.45058497E+00  1.53243176E+00  1.53817015E+00
  1.54531542E+00  1.55837685E+00  1.60740512E+00  1.67595661E+00  1.70349931E+00
  1.71749155E+00  1.73474770E+00  1.75478791E+00  1.77528595E+00  1.78025789E+00
  1.79637225E+00  1.80703093E+00  1.84267570E+00  1.84562664E+00  1.86154208E+00
  1.87249571E+00  1.87874251E+00  1.94069452E+00  1.95731755E+00  1.97679578E+00
  2.06462537E+00  2.10097411E+00  2.13449080E+00  2.14122020E+00  2.16202541E+00
  2.17520979E+00  2.20360718E+00  2.25751958E+00  2.26120267E+00  2.26506431E+00
  2.26835850E+00  2.28883551E+00  2.36975066E+00  2.42640769E+00  2.45829133E+00
  2.49919298E+00  2.56748653E+00  2.57630392E+00  2.60701349E+00  2.66750849E+00
  2.70522945E+00  2.73682648E+00  2.75985716E+00  2.87997931E+00  2.92663144E+00
  2.93271949E+00  3.02215596E+00  3.13770632E+00  3.20542596E+00  3.23517933E+00
  3.26740277E+00  3.38343670E+00  3.45550404E+00  3.52519566E+00  3.55752990E+00
  3.70887518E+00  3.81889600E+00  3.89364404E+00  4.01283539E+00  4.04255447E+00
  4.07826856E+00  4.26311563E+00  4.30584958E+00  4.37532428E+00  4.45980247E+00
  4.61681924E+00  4.63844496E+00  4.76568673E+00  4.76898234E+00  4.84079439E+00
  5.07097992E+00  5.70588616E+00  5.71782876E+00  5.95626952E+00  5.96219538E+00
  5.99151172E+00  5.99266300E+00  6.02510534E+00  6.03618217E+00  6.03941685E+00
  6.05853349E+00  6.12708437E+00  6.21824882E+00  6.24783746E+00  6.52806629E+00
  7.72556346E+00  7.72727754E+00  7.74168655E+00  7.77058038E+00  7.78835729E+00
  7.79970760E+00  7.80677048E+00  7.81801507E+00  7.87735360E+00  7.93074126E+00
  7.94118816E+00  8.00731683E+00  8.01903478E+00  8.05480479E+00  8.10148697E+00
  8.22642259E+00  8.29659276E+00  8.32581484E+00  8.35510850E+00  8.43592800E+00
  8.59035582E+00  1.54745592E+01  1.55261274E+01  1.55796530E+01  2.54253750E+01
  5.20375313E+01  5.20956162E+01  5.20997598E+01  5.21360185E+01  1.67088858E+02
Alpha MO coefficients                      R   N=       40000
  4.19276058E-01  6.46639006E-01  1.07708435E-02 -1.12984771E-03  6.37291001E-04
 -5.01017929E-04 -5.27191031E-05 -5.08172139E-07  7.50690446E-06 -4.19542621E-07
 -4.62236626E-05  2.17559969E-05 -3.00612002E-07  1.75472463E-05 -7.23371543E-06
  8.34919464E-08 -2.17164808E-05  6.49852825E-06  1.44201006E-08  4.80120513E-05
 -2.17273380E-05 -1.78998164E-07 -2.88993374E-06 -3.99913578E-05  2.39501164E-06
  2.68431984E-07 -7.43884540E-08 -1.14771403E-08 -1.54407697E-07  4.18420736E-06
  2.58475200E-05 -3.76536200E-07  5.15092085E-07 -2.50909993E-05  1.57607052E-05
  6.16927639E-07 -1.48246639E-06  1.11306377E-06 -5.88765065E-07  1.72031937E-08
  1.53138983E-05  3.04467414E-06 -1.71539874E-07 -2.31520814E-08 -2.84622193E-05
 -2.23623348E-05  2.05404024E-05 -4.69741429E-07  8.56808948E-05  5.67562496E-05
 -2.96761222E-05  7.37570451E-08 -3.50109234E-06  6.08362502E-08 -6.89196654E-08
  2.02573331E-06 -6.18496295E-06  1.38646460E-05 -2.06598534E-07  2.93310595E-07
 -7.40811034E-06  2.29706536E-05  6.25173028E-07 -6.54657224E-07 -3.78838229E-06
 -4.02328228E-06 -3.65849241E-08  2.40407563E-05  1.26595663E-05  1.35189332E-05
  1.25646567E-07 -8.59244021E-05  4.56782241E-05  5.02377005E-05  2.67952416E-07
  1.38501234E-04 -4.60362071E-05 -5.27619007E-05 -5.10764128E-07 -1.59049928E-06
  9.06295493E-09  3.63240669E-08 -3.22931457E-07  4.76205155E-06  1.84155917E-05
 -1.97120327E-07 -3.05718117E-07  3.63980387E-06 -3.83094651E-05  5.94257920E-07
 -4.95824987E-07  1.86327758E-07  3.27621036E-06  4.72018075E-06  2.31966818E-05
 -3.90884494E-07 -1.09155094E-05 -1.58515323E-05 -8.98302191E-05 -4.51471643E-06
 -3.96544449E-05 -6.26841464E-05  9.37156810E-05  3.43512526E-06  3.27533970E-05
  4.77769394E-05  3.02962591E-06  2.57787683E-07  3.97932986E-06 -1.85431728E-06
  6.73249263E-07 -2.50149970E-05 -1.87574485E-06 -3.42150373E-05  1.30528651E-05
 -2.81606149E-06  5.94251356E-07 -4.98675632E-07  3.22971670E-07  3.27423724E-06
 -4.67021073E-06  2.31375586E-05 -8.40216726E-07 -1.08952703E-05  1.56720292E-05
 -8.85263108E-05 -5.30609147E-06 -3.94639312E-05  6.22206020E-05  8.91681373E-05
  3.94824605E-06  3.14137405E-05 -4.62533493E-05  3.00588081E-06 -3.63408455E-07
 -3.97727292E-06 -1.84470156E-06  7.43218964E-07 -2.48144633E-05  2.80181441E-06
  3.41754409E-05  1.30300174E-05 -3.41796700E-06 -7.11518342E-07  1.90954733E-06
  4.58160399E-07 -2.47392349E-06  9.19258799E-08 -1.55102108E-05 -1.22390644E-05
  7.35405906E-06 -2.76825184E-07  4.57235660E-05  3.13268399E-05 -7.96560856E-06
  6.78353915E-07 -1.04240127E-04 -1.42971874E-05  3.41438987E-05 -2.96565932E-07
  2.52863586E-06 -2.82504517E-08 -4.98069303E-08 -4.22424089E-06 -4.58473451E-07
 -1.69920697E-05  5.90669947E-07 -1.00447814E-08  1.73306590E-05 -9.03252177E-06
  2.85523296E-06 -6.45708838E-06  6.81559416E-06  5.29153837E-05 -8.84023660E-08
  6.22691291E-08  6.16289158E-07 -4.89245186E-06  3.22847766E-06 -1.48813862E-06
 -1.19550835E-06 -2.32118445E-05  3.55996491E-05 -2.84543684E-05 -2.12772292E-06
  1.09163242E-07 -5.65516435E-08 -7.95335054E-07  1.00023143E-05 -4.69467665E-07
  3.11597644E-06 -6.40983345E-06  6.83919805E-06  5.08827451E-05  4.78103751E-08
  1.41443535E-07 -6.26344382E-07 -5.08059877E-06  2.86084059E-06  1.18533926E-06
  1.87731319E-06  3.80957174E-06  1.43594369E-06 -5.37616555E-05  3.84562824E-05
  2.22885883E-04  1.17234186E-04 -5.52948354E-05  2.60622565E-06  6.50421456E-07
  7.59408870E-06 -4.67951537E-06  5.81994308E-08  2.11174922E-05 -8.25141191E-06
  1.47003837E-07 -1.29715746E-06 -1.56316724E-05 -5.47594407E-08 -2.82306615E-04
  1.84554481E-04 -1.20419887E-06 -1.05908394E-04 -4.24580868E-04  5.91059178E-06
 -1.51316432E-05  3.44708183E-07 -1.74817462E-07  1.44316865E-05 -2.24996268E-05
 -8.15251607E-05  1.37120737E-06 -1.53395205E-06  6.53392121E-05 -1.37805313E-04
  5.51479120E-01  4.71641078E-01 -4.89540532E-04 -1.32379890E-03  1.56756932E-05
  5.74359265E-03  2.72581296E-04  5.14081304E-04 -5.92373939E-06 -1.61650911E-03
  1.85247679E-05  8.14188948E-05 -1.63654115E-06  8.50344187E-04  2.71388947E-04
  3.66700522E-05 -8.46396797E-07  5.00616602E-06  1.84113992E-07  1.31052924E-07
  5.97285032E-06 -1.19490760E-05  1.76354821E-04  1.32441268E-06  2.38744001E-06
 -1.20236553E-04 -1.26995009E-04 -3.18704307E-05 -2.67226219E-05 -1.59405642E-07
  7.80422741E-07 -1.13632301E-08  8.66429264E-07  1.16333528E-05  2.33553557E-07
  7.53699235E-08  9.32721289E-06  1.47772729E-05 -4.98853583E-05  1.18388840E-07
  1.95373936E-04  2.86327182E-05 -3.03229986E-05 -9.01453527E-07 -1.41346002E-06
  7.89377739E-08 -3.47158975E-08  5.17935307E-06 -3.50268872E-06  7.91268470E-06
 -3.88273909E-07  1.26872068E-07 -2.89618806E-05  1.35806833E-05 -3.94622682E-05
 -3.35707602E-05  4.35216329E-06 -3.89476334E-06 -2.70074591E-06  9.01907906E-07
 -5.64479410E-06  3.23227750E-06  2.19095610E-06  4.44752433E-05  5.97901870E-05
 -2.09615010E-05  1.85610462E-05 -3.09150950E-04  1.19085827E-05 -6.58566947E-06
 -1.19263465E-04 -3.02106829E-06 -2.42444016E-06  1.42335303E-06  1.84267697E-06
 -4.98224355E-06  1.45095536E-05  1.26543937E-05 -6.41128576E-06 -6.59528525E-06
  2.33692673E-05 -3.96250674E-05 -3.37362471E-05  4.38596681E-06 -3.92735949E-06