 Entering Gaussian System, Link 0=g09
 Input=MonoMethylPhosphate0H-opt.com
 Output=MonoMethylPhosphate0H-opt.log
 Initial command:
 /opt/g09gh/gaussian/g09/l1.exe /scratch/bdw2292/Gau-MonoMethylPhosphate0H/Gau-48278.inp -scrdir=/scratch/bdw2292/Gau-MonoMethylPhosphate0H/
 Entering Link 1 = /opt/g09gh/gaussian/g09/l1.exe PID=     48279.
  
 Copyright (c) 1988,1990,1992,1993,1995,1998,2003,2009, Gaussian, Inc.
                  All Rights Reserved.
  
 This is part of the Gaussian(R) 09 program.  It is based on
 the Gaussian(R) 03 system (copyright 2003, Gaussian, Inc.),
 the Gaussian(R) 98 system (copyright 1998, Gaussian, Inc.),
 the Gaussian(R) 94 system (copyright 1995, Gaussian, Inc.),
 the Gaussian 92(TM) system (copyright 1992, Gaussian, Inc.),
 the Gaussian 90(TM) system (copyright 1990, Gaussian, Inc.),
 the Gaussian 88(TM) system (copyright 1988, Gaussian, Inc.),
 the Gaussian 86(TM) system (copyright 1986, Carnegie Mellon
 University), and the Gaussian 82(TM) system (copyright 1983,
 Carnegie Mellon University). Gaussian is a federally registered
 trademark of Gaussian, Inc.
  
 This software contains proprietary and confidential information,
 including trade secrets, belonging to Gaussian, Inc.
  
 This software is provided under written license and may be
 used, copied, transmitted, or stored only in accord with that
 written license.
  
 The following legend is applicable only to US Government
 contracts under FAR:
  
                    RESTRICTED RIGHTS LEGEND
  
 Use, reproduction and disclosure by the US Government is
 subject to restrictions as set forth in subparagraphs (a)
 and (c) of the Commercial Computer Software - Restricted
 Rights clause in FAR 52.227-19.
  
 Gaussian, Inc.
 340 Quinnipiac St., Bldg. 40, Wallingford CT 06492
  
  
 ---------------------------------------------------------------
 Warning -- This program may not be used in any manner that
 competes with the business of Gaussian, Inc. or will provide
 assistance to any competitor of Gaussian, Inc.  The licensee
 of this program is prohibited from giving any competitor of
 Gaussian, Inc. access to this program.  By using this program,
 the user acknowledges that Gaussian, Inc. is engaged in the
 business of creating and licensing software in the field of
 computational chemistry and represents and warrants to the
 licensee that it is not a competitor of Gaussian, Inc. and that
 it will not use this program in any manner prohibited above.
 ---------------------------------------------------------------
  

 Cite this work as:
 Gaussian 09, Revision A.02,
 M. J. Frisch, G. W. Trucks, H. B. Schlegel, G. E. Scuseria, 
 M. A. Robb, J. R. Cheeseman, G. Scalmani, V. Barone, B. Mennucci, 
 G. A. Petersson, H. Nakatsuji, M. Caricato, X. Li, H. P. Hratchian, 
 A. F. Izmaylov, J. Bloino, G. Zheng, J. L. Sonnenberg, M. Hada, 
 M. Ehara, K. Toyota, R. Fukuda, J. Hasegawa, M. Ishida, T. Nakajima, 
 Y. Honda, O. Kitao, H. Nakai, T. Vreven, J. A. Montgomery, Jr., 
 J. E. Peralta, F. Ogliaro, M. Bearpark, J. J. Heyd, E. Brothers, 
 K. N. Kudin, V. N. Staroverov, R. Kobayashi, J. Normand, 
 K. Raghavachari, A. Rendell, J. C. Burant, S. S. Iyengar, J. Tomasi, 
 M. Cossi, N. Rega, J. M. Millam, M. Klene, J. E. Knox, J. B. Cross, 
 V. Bakken, C. Adamo, J. Jaramillo, R. Gomperts, R. E. Stratmann, 
 O. Yazyev, A. J. Austin, R. Cammi, C. Pomelli, J. W. Ochterski, 
 R. L. Martin, K. Morokuma, V. G. Zakrzewski, G. A. Voth, 
 P. Salvador, J. J. Dannenberg, S. Dapprich, A. D. Daniels, 
 O. Farkas, J. B. Foresman, J. V. Ortiz, J. Cioslowski, 
 and D. J. Fox, Gaussian, Inc., Wallingford CT, 2009.
 
 ******************************************
 Gaussian 09:  EM64L-G09RevA.02 11-Jun-2009
                 7-Apr-2020 
 ******************************************
 %RWF=/scratch/bdw2292/Gau-MonoMethylPhosphate0H/,150GB
 %Nosave
 %Chk=MonoMethylPhosphate0H-opt.chk
 %Mem=100GB
 %Nproc=8
 Will use up to    8 processors via shared memory.
 ----------------------------------------------------------------------
 #P opt=(maxcycle=400) wB97XD/6-31G* Guess=INDO MaxDisk=150GB SCRF=(PCM
 )
 ----------------------------------------------------------------------
 1/6=400,14=-1,18=20,19=15,26=3,38=1/1,3;
 2/9=110,12=2,17=6,18=5,40=1/2;
 3/5=1,6=6,7=1,11=2,16=1,25=1,30=1,70=2201,71=1,72=1,74=-58/1,2,3;
 4/5=4,11=3/1;
 5/5=2,38=5/2;
 6/7=2,8=2,9=2,10=2,28=1/1;
 7//1,2,3,16;
 1/6=400,14=-1,18=20,19=15/3(2);
 2/9=110/2;
 99//99;
 2/9=110/2;
 3/5=1,6=6,7=1,11=2,16=1,25=1,30=1,70=2205,71=1,74=-58/1,2,3;
 4/5=5,11=3,16=3/1;
 5/5=2,38=5/2;
 7//1,2,3,16;
 1/6=400,14=-1,18=20,19=15/3(-5);
 2/9=110/2;
 6/7=2,8=2,9=2,10=2,19=2,28=1/1;
 99/9=1/99;
 Leave Link    1 at Tue Apr  7 09:38:48 2020, MaxMem=13421772800 cpu:       0.3
 (Enter /opt/g09gh/gaussian/g09/l101.exe)
 ----------------------------------------------------------------------
 MonoMethylPhosphate0H Gaussian OPT Calculation on node37.bme.utexas.ed
 u
 ----------------------------------------------------------------------
 Symbolic Z-matrix:
 Charge = -2 Multiplicity = 1
 P                     0.5142    0.0004   -0.0596 
 O                    -0.9195   -0.004     0.7615 
 O                     1.562    -0.0055    1.0494 
 O                     0.4865    1.2868   -0.8797 
 O                     0.4866   -1.2776   -0.893 
 C                    -2.1299   -0.0001    0.0215 
 H                    -2.1886    0.8984   -0.5977 
 H                    -2.9678   -0.0039    0.7228 
 H                    -2.1885   -0.892    -0.6074 
 
 NAtoms=      9 NQM=      9 NQMF=      0 NMic=      0 NMicF=      0 NTot=      9.
                    Isotopes and Nuclear Properties:
 (Nuclear quadrupole moments (NQMom) in fm**2, nuclear magnetic moments (NMagM)
  in nuclear magnetons)

  Atom         1           2           3           4           5           6           7           8           9
 IAtWgt=          31          16          16          16          16          12           1           1           1
 AtmWgt=  30.9737634  15.9949146  15.9949146  15.9949146  15.9949146  12.0000000   1.0078250   1.0078250   1.0078250
 NucSpn=           1           0           0           0           0           0           1           1           1
 AtZEff=   0.0000000   0.0000000   0.0000000   0.0000000   0.0000000   0.0000000   0.0000000   0.0000000   0.0000000
 NQMom=    0.0000000   0.0000000   0.0000000   0.0000000   0.0000000   0.0000000   0.0000000   0.0000000   0.0000000
 NMagM=    1.1316000   0.0000000   0.0000000   0.0000000   0.0000000   0.0000000   2.7928460   2.7928460   2.7928460
 Leave Link  101 at Tue Apr  7 09:38:48 2020, MaxMem=13421772800 cpu:       0.9
 (Enter /opt/g09gh/gaussian/g09/l103.exe)

 GradGradGradGradGradGradGradGradGradGradGradGradGradGradGradGradGradGrad
 Berny optimization.
 Initialization pass.
                           ----------------------------
                           !    Initial Parameters    !
                           ! (Angstroms and Degrees)  !
 --------------------------                            --------------------------
 ! Name  Definition              Value          Derivative Info.                !
 --------------------------------------------------------------------------------
 ! R1    R(1,2)                  1.6522         estimate D2E/DX2                !
 ! R2    R(1,3)                  1.5257         estimate D2E/DX2                !
 ! R3    R(1,4)                  1.5258         estimate D2E/DX2                !
 ! R4    R(1,5)                  1.526          estimate D2E/DX2                !
 ! R5    R(2,6)                  1.4187         estimate D2E/DX2                !
 ! R6    R(6,7)                  1.0928         estimate D2E/DX2                !
 ! R7    R(6,8)                  1.0927         estimate D2E/DX2                !
 ! R8    R(6,9)                  1.0929         estimate D2E/DX2                !
 ! A1    A(2,1,3)              103.5735         estimate D2E/DX2                !
 ! A2    A(2,1,4)              104.691          estimate D2E/DX2                !
 ! A3    A(2,1,5)              104.6844         estimate D2E/DX2                !
 ! A4    A(3,1,4)              113.9793         estimate D2E/DX2                !
 ! A5    A(3,1,5)              113.9638         estimate D2E/DX2                !
 ! A6    A(4,1,5)              114.3438         estimate D2E/DX2                !
 ! A7    A(1,2,6)              118.7586         estimate D2E/DX2                !
 ! A8    A(2,6,7)              110.0994         estimate D2E/DX2                !
 ! A9    A(2,6,8)              108.6305         estimate D2E/DX2                !
 ! A10   A(2,6,9)              110.0998         estimate D2E/DX2                !
 ! A11   A(7,6,8)              108.9865         estimate D2E/DX2                !
 ! A12   A(7,6,9)              110.0023         estimate D2E/DX2                !
 ! A13   A(8,6,9)              108.9885         estimate D2E/DX2                !
 ! D1    D(3,1,2,6)           -179.9986         estimate D2E/DX2                !
 ! D2    D(4,1,2,6)             60.2978         estimate D2E/DX2                !
 ! D3    D(5,1,2,6)            -60.3152         estimate D2E/DX2                !
 ! D4    D(1,2,6,7)            -60.7299         estimate D2E/DX2                !
 ! D5    D(1,2,6,8)            179.9971         estimate D2E/DX2                !
 ! D6    D(1,2,6,9)             60.7215         estimate D2E/DX2                !
 --------------------------------------------------------------------------------
 Trust Radius=3.00D-01 FncErr=1.00D-07 GrdErr=1.00D-06
 Number of steps in this run= 100 maximum allowed number of steps= 100.
 GradGradGradGradGradGradGradGradGradGradGradGradGradGradGradGradGradGrad

 Leave Link  103 at Tue Apr  7 09:38:48 2020, MaxMem=13421772800 cpu:       0.1
 (Enter /opt/g09gh/gaussian/g09/l202.exe)
                          Input orientation:                          
 ---------------------------------------------------------------------
 Center     Atomic      Atomic             Coordinates (Angstroms)
 Number     Number       Type             X           Y           Z
 ---------------------------------------------------------------------
      1         15           0        0.514200    0.000400   -0.059600
      2          8           0       -0.919500   -0.004000    0.761500
      3          8           0        1.562000   -0.005500    1.049400
      4          8           0        0.486500    1.286800   -0.879700
      5          8           0        0.486600   -1.277600   -0.893000
      6          6           0       -2.129900   -0.000100    0.021500
      7          1           0       -2.188600    0.898400   -0.597700
      8          1           0       -2.967800   -0.003900    0.722800
      9          1           0       -2.188500   -0.892000   -0.607400
 ---------------------------------------------------------------------
                    Distance matrix (angstroms):
                    1          2          3          4          5
     1  P    0.000000
     2  O    1.652187   0.000000
     3  O    1.525713   2.498145   0.000000
     4  O    1.525830   2.517248   2.558939   0.000000
     5  O    1.525976   2.517249   2.558836   2.564434   0.000000
     6  C    2.645344   1.418691   3.832327   3.051856   3.051948
     7  H    2.898462   2.066970   4.194875   2.717819   3.461051
     8  H    3.568822   2.048666   4.541559   4.020709   4.020697
     9  H    2.898456   2.067073   4.194892   3.460772   2.717796
                    6          7          8          9
     6  C    0.000000
     7  H    1.092775   0.000000
     8  H    1.092663   1.779050   0.000000
     9  H    1.092902   1.790426   1.779175   0.000000
 Stoichiometry    CH3O4P(2-)
 Framework group  C1[X(CH3O4P)]
 Deg. of freedom    21
 Full point group                 C1      NOp   1
 Largest Abelian subgroup         C1      NOp   1
 Largest concise Abelian subgroup C1      NOp   1
                         Standard orientation:                         
 ---------------------------------------------------------------------
 Center     Atomic      Atomic             Coordinates (Angstroms)
 Number     Number       Type             X           Y           Z
 ---------------------------------------------------------------------
      1         15           0        0.504708    0.000143   -0.046433
      2          8           0       -0.923022   -0.001021    0.785016
      3          8           0        1.560494   -0.001316    1.054982
      4          8           0        0.471016    1.283267   -0.871427
      5          8           0        0.471154   -1.281166   -0.874516
      6          6           0       -2.138737   -0.000096    0.053771
      7          1           0       -2.201956    0.895929   -0.568561
      8          1           0       -2.971548   -0.001123    0.761117
      9          1           0       -2.201833   -0.894495   -0.571132
 ---------------------------------------------------------------------
 Rotational constants (GHZ):      4.6974870      2.6056955      2.5945456
 Leave Link  202 at Tue Apr  7 09:38:48 2020, MaxMem=13421772800 cpu:       0.0
 (Enter /opt/g09gh/gaussian/g09/l301.exe)
 Standard basis: 6-31G(d) (6D, 7F)
 Ernie: Thresh=  0.10000D-02 Tol=  0.10000D-05 Strict=F.
 There are   100 symmetry adapted basis functions of A   symmetry.
 Integral buffers will be    131072 words long.
 Raffenetti 2 integral format.
 Two-electron integral symmetry is turned on.
   100 basis functions,   204 primitive gaussians,   100 cartesian basis functions
    29 alpha electrons       29 beta electrons
       nuclear repulsion energy       336.6990244737 Hartrees.
 IExCor= 4639 DFT=T Ex+Corr=wB97XD ExCW=0 ScaHFX=  1.000000
 ScaDFX=  1.000000  1.000000  1.000000  1.000000 ScalE2=  1.000000  1.000000
 IRadAn=      0 IRanWt=     -1 IRanGd=            0 ICorTp=0
  HFx wShort=  0.000000 wLong=  0.200000 cFull=  0.222036 cShort=  0.000000 cLong=  0.777964
  DFx wShort=  0.000000 wLong=  0.200000 cFull=  0.000000 cShort=  0.000000 cLong=  1.000000
 NAtoms=    9 NActive=    9 NUniq=    9 SFac= 7.50D-01 NAtFMM=   80 NAOKFM=F Big=F
 R6Disp: Dispersion energy =        -0.0024517429 Hartrees.
 Nuclear repulsion after empirical dispersion term =      336.6965727308 Hartrees.
 ------------------------------------------------------------------------------
 Polarizable Continuum Model (PCM)
 =================================
 Model                : PCM.
 Atomic radii         : UFF (Universal Force Field).
 Polarization charges : Total charges.
 Charge compensation  : None.
 Solution method      : Matrix inversion.
 Cavity type          : Scaled VdW (van der Waals Surface) (Alpha=1.100).
 Cavity algorithm     : GePol (No added spheres)
                        Default sphere list used, NSphG=    9.
                        Lebedev-Laikov grids with approx.  5.0 points / Ang**2.
                        Smoothing algorithm: Karplus/York (Gamma=1.0000).
                        Polarization charges: spherical gaussians, with
                                              point-specific exponents (IZeta= 3).
                        Self-potential: point-specific (ISelfS= 7).
                        Self-field    : sphere-specific E.n sum rule (ISelfD= 2).
 1st derivatives      : Analytical E(r).r(x)/FMM algorithm (CHGder, D1EAlg=3).
                        Cavity 1st derivative terms included.
 Solvent              : Water, Eps=  78.355300 Eps(inf)=   1.777849
 ------------------------------------------------------------------------------
 Spheres list:
 ISph  on   Nord    Re0     Alpha      Xe            Ye            Ze
    1   P      1    2.074   1.100      0.504708      0.000143     -0.046433
    2   O      2    1.750   1.100     -0.923022     -0.001021      0.785016
    3   O      3    1.750   1.100      1.560494     -0.001316      1.054982
    4   O      4    1.750   1.100      0.471016      1.283267     -0.871427
    5   O      5    1.750   1.100      0.471154     -1.281166     -0.874516
    6   C      6    1.926   1.100     -2.138737     -0.000096      0.053771
    7   H      7    1.443   1.100     -2.201956      0.895929     -0.568561
    8   H      8    1.443   1.100     -2.971548     -0.001123      0.761117
    9   H      9    1.443   1.100     -2.201833     -0.894495     -0.571132
 ------------------------------------------------------------------------------
 GePol: Number of generator spheres                  =       9
 GePol: Total number of spheres                      =       9
 GePol: Number of exposed spheres                    =       9 (100.00%)
 GePol: Number of points                             =    1077
 GePol: Average weight of points                     =       0.13
 GePol: Minimum weight of points                     =   0.88D-07
 GePol: Maximum weight of points                     =    0.20577
 GePol: Number of points with low weight             =      58
 GePol: Fraction of low-weight points (<1% of avg)   =       5.39%
 GePol: Cavity surface area                          =    139.262 Ang**2
 GePol: Cavity volume                                =    126.625 Ang**3
 Leave Link  301 at Tue Apr  7 09:38:48 2020, MaxMem=13421772800 cpu:       0.6
 (Enter /opt/g09gh/gaussian/g09/l302.exe)
 NPDir=0 NMtPBC=     1 NCelOv=     1 NCel=       1 NClECP=     1 NCelD=      1
         NCelK=      1 NCelE2=     1 NClLst=     1 CellRange=     0.0.
 One-electron integrals computed using PRISM.
 NBasis=   100 RedAO= T  NBF=   100
 NBsUse=   100 1.00D-06 NBFU=   100
 Precomputing XC quadrature grid using
 IXCGrd= 2 IRadAn=           0 IRanWt=          -1 IRanGd=           0 AccXCQ= 1.00D-10.
 NRdTot=     561 NPtTot=       71368 NUsed=       75425 NTot=       75457
 NSgBfM=   100   100   100   100   100 NAtAll=     9     9.
 Leave Link  302 at Tue Apr  7 09:38:48 2020, MaxMem=13421772800 cpu:       1.3
 (Enter /opt/g09gh/gaussian/g09/l303.exe)
 DipDrv:  MaxL=1.
 Leave Link  303 at Tue Apr  7 09:38:48 2020, MaxMem=13421772800 cpu:       0.3
 (Enter /opt/g09gh/gaussian/g09/l401.exe)
 Projected New-EHT guess.
 Enter ItEHT:  IZDO=4 IZDPar=0 Conv= 1.00D-06 N=   27
 It=   1                  EEH= -60.2250027744     EQH= 0.000000000000E+00 EH= -60.2250027744    
 Initial guess orbital symmetries:
       Occupied  (A) (A) (A) (A) (A) (A) (A) (A) (A) (A) (A) (A)
                 (A) (A) (A) (A) (A) (A) (A) (A) (A) (A) (A) (A)
                 (A) (A) (A) (A) (A)
       Virtual   (A) (A) (A) (A) (A) (A) (A) (A) (A) (A) (A) (A)
                 (A) (A) (A) (A) (A) (A) (A) (A) (A) (A) (A) (A)
                 (A) (A) (A) (A) (A) (A) (A) (A) (A) (A) (A) (A)
                 (A) (A) (A) (A) (A) (A) (A) (A) (A) (A) (A) (A)
                 (A) (A) (A) (A) (A) (A) (A) (A) (A) (A) (A) (A)
                 (A) (A) (A) (A) (A) (A) (A) (A) (A) (A) (A)
 The electronic state of the initial guess is 1-A.
 Leave Link  401 at Tue Apr  7 09:38:48 2020, MaxMem=13421772800 cpu:       0.6
 (Enter /opt/g09gh/gaussian/g09/l502.exe)
 Closed shell SCF:
 Requested convergence on RMS density matrix=1.00D-08 within 128 cycles.
 Requested convergence on MAX density matrix=1.00D-06.
 Requested convergence on             energy=1.00D-06.
 No special actions if energy rises.
 Using DIIS extrapolation, IDIIS=  1040.
 Integral symmetry usage will be decided dynamically.
        75331 words used for storage of precomputed grid.
 IEnd=      125026 IEndB=      125026 NGot= 13421772800 MDV= 13421674515
 LenX= 13421674515 LenY= 13421664074
 Fock matrices will be formed incrementally for  20 cycles.

 Cycle   1  Pass 1  IDiag  1:
 FoFJK:  IHMeth= 1 ICntrl=     0 DoSepK=T KAlg= 1 I1Cent= 0 FoldK=F
 FoFCou: FMM=F IPFlag=           0 FMFlag=      100000 FMFlg1=           0
         NFxFlg=           0 DoJE=T BraDBF=F KetDBF=F FulRan=T
         Omega=  0.000000  0.000000  1.000000  0.000000  0.000000 ICntrl=     500 IOpCl=  0
         NMat0=    1 NMatS0=    1 NMatT0=    0 NMatD0=    1 NMtDS0=    0 NMtDT0=    0
         I1Cent=           0 NGrid=           0.
 Symmetry not used in FoFCou.
 E= -678.312958023055    
 DIIS: error= 2.74D-01 at cycle   1 NSaved=   1.
 NSaved= 1 IEnMin= 1 EnMin= -678.312958023055     IErMin= 1 ErrMin= 2.74D-01
 ErrMax= 2.74D-01 EMaxC= 1.00D-01 BMatC= 1.15D+01 BMatP= 1.15D+01
 IDIUse=3 WtCom= 0.00D+00 WtEn= 1.00D+00
 Coeff-Com:  0.100D+01
 Coeff-En:   0.100D+01
 Coeff:      0.100D+01
 Gap=     0.658 Goal=   None    Shift=    0.000
 GapD=    0.658 DampG=2.000 DampE=0.250 DampFc=0.5000 IDamp=-1.
 Damping current iteration by 5.00D-01
 RMSDP=2.72D-02 MaxDP=4.70D-01              OVMax= 4.47D-01

 Cycle   2  Pass 1  IDiag  1:
 RMSU=  9.16D-03    CP:  9.09D-01
 FoFJK:  IHMeth= 1 ICntrl=     0 DoSepK=T KAlg= 1 I1Cent= 0 FoldK=F
 E= -680.261956901950     Delta-E=       -1.948998878895 Rises=F Damp=T
 DIIS: error= 1.10D-01 at cycle   2 NSaved=   2.
 NSaved= 2 IEnMin= 2 EnMin= -680.261956901950     IErMin= 2 ErrMin= 1.10D-01
 ErrMax= 1.10D-01 EMaxC= 1.00D-01 BMatC= 2.48D+00 BMatP= 1.15D+01
 IDIUse=3 WtCom= 0.00D+00 WtEn= 1.00D+00
 Coeff-Com: -0.520D+00 0.152D+01
 Coeff-En:   0.000D+00 0.100D+01
 Coeff:      0.000D+00 0.100D+01
 Gap=     0.443 Goal=   None    Shift=    0.000
 RMSDP=9.22D-03 MaxDP=2.09D-01 DE=-1.95D+00 OVMax= 2.14D-01

 Cycle   3  Pass 1  IDiag  1:
 RMSU=  5.93D-03    CP:  8.60D-01  1.24D+00
 FoFJK:  IHMeth= 1 ICntrl=     0 DoSepK=T KAlg= 1 I1Cent= 0 FoldK=F
 E= -682.343544486370     Delta-E=       -2.081587584420 Rises=F Damp=F
 DIIS: error= 1.39D-02 at cycle   3 NSaved=   3.
 NSaved= 3 IEnMin= 3 EnMin= -682.343544486370     IErMin= 3 ErrMin= 1.39D-02
 ErrMax= 1.39D-02 EMaxC= 1.00D-01 BMatC= 2.60D-02 BMatP= 2.48D+00
 IDIUse=3 WtCom= 8.61D-01 WtEn= 1.39D-01
 Coeff-Com: -0.520D-01 0.117D+00 0.935D+00
 Coeff-En:   0.000D+00 0.000D+00 0.100D+01
 Coeff:     -0.448D-01 0.101D+00 0.944D+00
 Gap=     0.443 Goal=   None    Shift=    0.000
 RMSDP=2.72D-03 MaxDP=1.14D-01 DE=-2.08D+00 OVMax= 3.62D-02

 Cycle   4  Pass 1  IDiag  1:
 RMSU=  1.58D-03    CP:  8.65D-01  1.33D+00  8.82D-01
 FoFJK:  IHMeth= 1 ICntrl=     0 DoSepK=T KAlg= 1 I1Cent= 0 FoldK=F
 E= -682.357206088732     Delta-E=       -0.013661602362 Rises=F Damp=F
 DIIS: error= 8.02D-03 at cycle   4 NSaved=   4.
 NSaved= 4 IEnMin= 4 EnMin= -682.357206088732     IErMin= 4 ErrMin= 8.02D-03
 ErrMax= 8.02D-03 EMaxC= 1.00D-01 BMatC= 8.17D-03 BMatP= 2.60D-02
 IDIUse=3 WtCom= 9.20D-01 WtEn= 8.02D-02
 Coeff-Com: -0.544D-02 0.957D-02 0.348D+00 0.648D+00
 Coeff-En:   0.000D+00 0.000D+00 0.769D-01 0.923D+00
 Coeff:     -0.500D-02 0.880D-02 0.326D+00 0.670D+00
 Gap=     0.452 Goal=   None    Shift=    0.000
 RMSDP=8.84D-04 MaxDP=2.45D-02 DE=-1.37D-02 OVMax= 1.83D-02

 Cycle   5  Pass 1  IDiag  1:
 RMSU=  4.95D-04    CP:  8.64D-01  1.32D+00  9.23D-01  8.22D-01
 FoFJK:  IHMeth= 1 ICntrl=     0 DoSepK=T KAlg= 1 I1Cent= 0 FoldK=F
 E= -682.362062041754     Delta-E=       -0.004855953022 Rises=F Damp=F
 DIIS: error= 3.29D-03 at cycle   5 NSaved=   5.
 NSaved= 5 IEnMin= 5 EnMin= -682.362062041754     IErMin= 5 ErrMin= 3.29D-03
 ErrMax= 3.29D-03 EMaxC= 1.00D-01 BMatC= 1.50D-03 BMatP= 8.17D-03
 IDIUse=3 WtCom= 9.67D-01 WtEn= 3.29D-02
 Coeff-Com:  0.657D-02-0.155D-01 0.329D-01 0.321D+00 0.655D+00
 Coeff-En:   0.000D+00 0.000D+00 0.000D+00 0.805D-01 0.920D+00
 Coeff:      0.635D-02-0.150D-01 0.318D-01 0.313D+00 0.664D+00
 Gap=     0.449 Goal=   None    Shift=    0.000
 RMSDP=2.75D-04 MaxDP=7.59D-03 DE=-4.86D-03 OVMax= 6.26D-03

 Cycle   6  Pass 1  IDiag  1:
 RMSU=  1.27D-04    CP:  8.64D-01  1.32D+00  9.23D-01  8.75D-01  7.57D-01
 FoFJK:  IHMeth= 1 ICntrl=     0 DoSepK=T KAlg= 1 I1Cent= 0 FoldK=F
 E= -682.363097539400     Delta-E=       -0.001035497646 Rises=F Damp=F
 DIIS: error= 4.80D-04 at cycle   6 NSaved=   6.
 NSaved= 6 IEnMin= 6 EnMin= -682.363097539400     IErMin= 6 ErrMin= 4.80D-04
 ErrMax= 4.80D-04 EMaxC= 1.00D-01 BMatC= 2.14D-05 BMatP= 1.50D-03
 IDIUse=3 WtCom= 9.95D-01 WtEn= 4.80D-03
 Coeff-Com:  0.256D-02-0.536D-02-0.827D-02 0.156D-01 0.103D+00 0.892D+00
 Coeff-En:   0.000D+00 0.000D+00 0.000D+00 0.000D+00 0.000D+00 0.100D+01
 Coeff:      0.255D-02-0.533D-02-0.823D-02 0.155D-01 0.103D+00 0.893D+00
 Gap=     0.449 Goal=   None    Shift=    0.000
 RMSDP=6.54D-05 MaxDP=1.43D-03 DE=-1.04D-03 OVMax= 1.11D-03

 Cycle   7  Pass 1  IDiag  1:
 RMSU=  2.61D-05    CP:  8.64D-01  1.32D+00  9.25D-01  8.91D-01  8.06D-01
                    CP:  1.08D+00
 FoFJK:  IHMeth= 1 ICntrl=     0 DoSepK=T KAlg= 1 I1Cent= 0 FoldK=F
 E= -682.363117798789     Delta-E=       -0.000020259388 Rises=F Damp=F
 DIIS: error= 1.77D-04 at cycle   7 NSaved=   7.
 NSaved= 7 IEnMin= 7 EnMin= -682.363117798789     IErMin= 7 ErrMin= 1.77D-04
 ErrMax= 1.77D-04 EMaxC= 1.00D-01 BMatC= 2.23D-06 BMatP= 2.14D-05
 IDIUse=3 WtCom= 9.98D-01 WtEn= 1.77D-03
 Coeff-Com:  0.413D-03-0.696D-03-0.405D-02-0.257D-01-0.346D-01 0.254D+00
 Coeff-Com:  0.811D+00
 Coeff-En:   0.000D+00 0.000D+00 0.000D+00 0.000D+00 0.000D+00 0.000D+00
 Coeff-En:   0.100D+01
 Coeff:      0.413D-03-0.694D-03-0.404D-02-0.256D-01-0.345D-01 0.253D+00
 Coeff:      0.811D+00
 Gap=     0.449 Goal=   None    Shift=    0.000
 RMSDP=2.18D-05 MaxDP=3.51D-04 DE=-2.03D-05 OVMax= 3.66D-04

 Cycle   8  Pass 1  IDiag  1:
 RMSU=  7.32D-06    CP:  8.64D-01  1.32D+00  9.25D-01  8.94D-01  8.18D-01
                    CP:  1.17D+00  9.68D-01
 FoFJK:  IHMeth= 1 ICntrl=     0 DoSepK=T KAlg= 1 I1Cent= 0 FoldK=F
 E= -682.363120281927     Delta-E=       -0.000002483138 Rises=F Damp=F
 DIIS: error= 2.87D-05 at cycle   8 NSaved=   8.
 NSaved= 8 IEnMin= 8 EnMin= -682.363120281927     IErMin= 8 ErrMin= 2.87D-05
 ErrMax= 2.87D-05 EMaxC= 1.00D-01 BMatC= 1.03D-07 BMatP= 2.23D-06
 IDIUse=1 WtCom= 1.00D+00 WtEn= 0.00D+00
 Coeff-Com:  0.169D-04 0.786D-05-0.644D-03-0.851D-02-0.160D-01 0.349D-01
 Coeff-Com:  0.235D+00 0.756D+00
 Coeff:      0.169D-04 0.786D-05-0.644D-03-0.851D-02-0.160D-01 0.349D-01
 Coeff:      0.235D+00 0.756D+00
 Gap=     0.449 Goal=   None    Shift=    0.000
 RMSDP=5.44D-06 MaxDP=8.02D-05 DE=-2.48D-06 OVMax= 1.01D-04

 Cycle   9  Pass 1  IDiag  1:
 RMSU=  2.55D-06    CP:  8.64D-01  1.32D+00  9.25D-01  8.94D-01  8.20D-01
                    CP:  1.18D+00  1.02D+00  1.04D+00
 FoFJK:  IHMeth= 1 ICntrl=     0 DoSepK=T KAlg= 1 I1Cent= 0 FoldK=F
 E= -682.363120383735     Delta-E=       -0.000000101808 Rises=F Damp=F
 DIIS: error= 1.54D-05 at cycle   9 NSaved=   9.
 NSaved= 9 IEnMin= 9 EnMin= -682.363120383735     IErMin= 9 ErrMin= 1.54D-05
 ErrMax= 1.54D-05 EMaxC= 1.00D-01 BMatC= 2.33D-08 BMatP= 1.03D-07
 IDIUse=1 WtCom= 1.00D+00 WtEn= 0.00D+00
 Coeff-Com: -0.592D-04 0.112D-03 0.385D-03 0.600D-03-0.133D-02-0.258D-01
 Coeff-Com: -0.285D-01 0.327D+00 0.728D+00
 Coeff:     -0.592D-04 0.112D-03 0.385D-03 0.600D-03-0.133D-02-0.258D-01
 Coeff:     -0.285D-01 0.327D+00 0.728D+00
 Gap=     0.449 Goal=   None    Shift=    0.000
 RMSDP=2.37D-06 MaxDP=3.29D-05 DE=-1.02D-07 OVMax= 5.01D-05

 Cycle  10  Pass 1  IDiag  1:
 RMSU=  8.80D-07    CP:  8.64D-01  1.32D+00  9.26D-01  8.94D-01  8.20D-01
                    CP:  1.19D+00  1.04D+00  1.18D+00  9.62D-01
 FoFJK:  IHMeth= 1 ICntrl=     0 DoSepK=T KAlg= 1 I1Cent= 0 FoldK=F
 E= -682.363120404514     Delta-E=       -0.000000020779 Rises=F Damp=F
 DIIS: error= 4.53D-06 at cycle  10 NSaved=  10.
 NSaved=10 IEnMin=10 EnMin= -682.363120404514     IErMin=10 ErrMin= 4.53D-06
 ErrMax= 4.53D-06 EMaxC= 1.00D-01 BMatC= 2.69D-09 BMatP= 2.33D-08
 IDIUse=1 WtCom= 1.00D+00 WtEn= 0.00D+00
 Coeff-Com: -0.299D-04 0.528D-04 0.225D-03 0.122D-02 0.111D-02-0.154D-01
 Coeff-Com: -0.358D-01 0.754D-01 0.322D+00 0.652D+00
 Coeff:     -0.299D-04 0.528D-04 0.225D-03 0.122D-02 0.111D-02-0.154D-01
 Coeff:     -0.358D-01 0.754D-01 0.322D+00 0.652D+00
 Gap=     0.449 Goal=   None    Shift=    0.000
 RMSDP=7.04D-07 MaxDP=1.04D-05 DE=-2.08D-08 OVMax= 1.55D-05

 Cycle  11  Pass 1  IDiag  1:
 RMSU=  2.59D-07    CP:  8.64D-01  1.32D+00  9.25D-01  8.94D-01  8.21D-01
                    CP:  1.19D+00  1.05D+00  1.21D+00  1.05D+00  9.22D-01
 FoFJK:  IHMeth= 1 ICntrl=     0 DoSepK=T KAlg= 1 I1Cent= 0 FoldK=F
 E= -682.363120407066     Delta-E=       -0.000000002551 Rises=F Damp=F
 DIIS: error= 7.53D-07 at cycle  11 NSaved=  11.
 NSaved=11 IEnMin=11 EnMin= -682.363120407066     IErMin=11 ErrMin= 7.53D-07
 ErrMax= 7.53D-07 EMaxC= 1.00D-01 BMatC= 7.86D-11 BMatP= 2.69D-09
 IDIUse=1 WtCom= 1.00D+00 WtEn= 0.00D+00
 Coeff-Com:  0.199D-05-0.310D-05-0.338D-04 0.705D-05 0.153D-03 0.152D-02
 Coeff-Com:  0.203D-02-0.242D-01-0.650D-01 0.392D-04 0.109D+01
 Coeff:      0.199D-05-0.310D-05-0.338D-04 0.705D-05 0.153D-03 0.152D-02
 Coeff:      0.203D-02-0.242D-01-0.650D-01 0.392D-04 0.109D+01
 Gap=     0.449 Goal=   None    Shift=    0.000
 RMSDP=3.37D-07 MaxDP=5.37D-06 DE=-2.55D-09 OVMax= 7.78D-06

 Cycle  12  Pass 1  IDiag  1:
 RMSU=  4.38D-08    CP:  8.64D-01  1.32D+00  9.25D-01  8.94D-01  8.21D-01
                    CP:  1.19D+00  1.05D+00  1.23D+00  1.09D+00  1.06D+00
                    CP:  1.34D+00
 FoFJK:  IHMeth= 1 ICntrl=     0 DoSepK=T KAlg= 1 I1Cent= 0 FoldK=F
 E= -682.363120407237     Delta-E=       -0.000000000172 Rises=F Damp=F
 DIIS: error= 1.08D-07 at cycle  12 NSaved=  12.
 NSaved=12 IEnMin=12 EnMin= -682.363120407237     IErMin=12 ErrMin= 1.08D-07
 ErrMax= 1.08D-07 EMaxC= 1.00D-01 BMatC= 1.61D-12 BMatP= 7.86D-11
 IDIUse=1 WtCom= 1.00D+00 WtEn= 0.00D+00
 Coeff-Com:  0.100D-05-0.178D-05-0.761D-05-0.497D-04-0.468D-04 0.614D-03
 Coeff-Com:  0.112D-02-0.264D-02-0.103D-01-0.244D-01-0.424D-01 0.108D+01
 Coeff:      0.100D-05-0.178D-05-0.761D-05-0.497D-04-0.468D-04 0.614D-03
 Coeff:      0.112D-02-0.264D-02-0.103D-01-0.244D-01-0.424D-01 0.108D+01
 Gap=     0.449 Goal=   None    Shift=    0.000
 RMSDP=7.25D-08 MaxDP=1.32D-06 DE=-1.72D-10 OVMax= 1.75D-06

 Cycle  13  Pass 1  IDiag  1:
 RMSU=  1.06D-08    CP:  8.64D-01  1.32D+00  9.25D-01  8.94D-01  8.21D-01
                    CP:  1.19D+00  1.05D+00  1.23D+00  1.10D+00  1.09D+00
                    CP:  1.44D+00  1.30D+00
 FoFJK:  IHMeth= 1 ICntrl=     0 DoSepK=T KAlg= 1 I1Cent= 0 FoldK=F
 E= -682.363120407247     Delta-E=       -0.000000000010 Rises=F Damp=F
 DIIS: error= 2.14D-08 at cycle  13 NSaved=  13.
 NSaved=13 IEnMin=13 EnMin= -682.363120407247     IErMin=13 ErrMin= 2.14D-08
 ErrMax= 2.14D-08 EMaxC= 1.00D-01 BMatC= 8.30D-14 BMatP= 1.61D-12
 IDIUse=1 WtCom= 1.00D+00 WtEn= 0.00D+00
 Coeff-Com: -0.328D-07 0.316D-07 0.132D-05-0.293D-05-0.907D-05-0.332D-04
 Coeff-Com: -0.933D-04 0.803D-03 0.265D-02 0.388D-03-0.479D-01 0.480D-01
 Coeff-Com:  0.996D+00
 Coeff:     -0.328D-07 0.316D-07 0.132D-05-0.293D-05-0.907D-05-0.332D-04
 Coeff:     -0.933D-04 0.803D-03 0.265D-02 0.388D-03-0.479D-01 0.480D-01
 Coeff:      0.996D+00
 Gap=     0.449 Goal=   None    Shift=    0.000
 RMSDP=1.19D-08 MaxDP=2.66D-07 DE=-9.89D-12 OVMax= 3.06D-07

 Cycle  14  Pass 1  IDiag  1:
 RMSU=  2.01D-09    CP:  8.64D-01  1.32D+00  9.25D-01  8.94D-01  8.21D-01
                    CP:  1.19D+00  1.05D+00  1.23D+00  1.10D+00  1.10D+00
                    CP:  1.46D+00  1.39D+00  1.24D+00
 FoFJK:  IHMeth= 1 ICntrl=     0 DoSepK=T KAlg= 1 I1Cent= 0 FoldK=F
 E= -682.363120407243     Delta-E=        0.000000000005 Rises=F Damp=F
 DIIS: error= 4.74D-09 at cycle  14 NSaved=  14.
 NSaved=14 IEnMin=13 EnMin= -682.363120407247     IErMin=14 ErrMin= 4.74D-09
 ErrMax= 4.74D-09 EMaxC= 1.00D-01 BMatC= 1.81D-15 BMatP= 8.30D-14
 IDIUse=1 WtCom= 1.00D+00 WtEn= 0.00D+00
 Coeff-Com: -0.872D-08 0.163D-07-0.611D-08 0.176D-05 0.263D-05-0.105D-04
 Coeff-Com: -0.201D-04-0.258D-04-0.527D-04 0.616D-03 0.672D-02-0.386D-01
 Coeff-Com: -0.105D+00 0.114D+01
 Coeff:     -0.872D-08 0.163D-07-0.611D-08 0.176D-05 0.263D-05-0.105D-04
 Coeff:     -0.201D-04-0.258D-04-0.527D-04 0.616D-03 0.672D-02-0.386D-01
 Coeff:     -0.105D+00 0.114D+01
 Gap=     0.449 Goal=   None    Shift=    0.000
 RMSDP=2.77D-09 MaxDP=6.57D-08 DE= 4.77D-12 OVMax= 6.98D-08

 Error on total polarization charges =  0.00770
 SCF Done:  E(RwB97XD) =  -682.363120407     A.U. after   14 cycles
             Convg  =    0.2766D-08             -V/T =  2.0060
 KE= 6.783125121176D+02 PE=-2.314709941837D+03 EE= 6.173377365816D+02
 Leave Link  502 at Tue Apr  7 09:38:59 2020, MaxMem=13421772800 cpu:      81.2
 (Enter /opt/g09gh/gaussian/g09/l601.exe)
 Copying SCF densities to generalized density rwf, IOpCl= 0 IROHF=0.

 **********************************************************************

            Population analysis using the SCF density.

 **********************************************************************

 Orbital symmetries:
       Occupied  (A) (A) (A) (A) (A) (A) (A) (A) (A) (A) (A) (A)
                 (A) (A) (A) (A) (A) (A) (A) (A) (A) (A) (A) (A)
                 (A) (A) (A) (A) (A)
       Virtual   (A) (A) (A) (A) (A) (A) (A) (A) (A) (A) (A) (A)
                 (A) (A) (A) (A) (A) (A) (A) (A) (A) (A) (A) (A)
                 (A) (A) (A) (A) (A) (A) (A) (A) (A) (A) (A) (A)
                 (A) (A) (A) (A) (A) (A) (A) (A) (A) (A) (A) (A)
                 (A) (A) (A) (A) (A) (A) (A) (A) (A) (A) (A) (A)
                 (A) (A) (A) (A) (A) (A) (A) (A) (A) (A) (A)
 The electronic state is 1-A.
 Alpha  occ. eigenvalues --  -77.24543 -19.21139 -19.12307 -19.11966 -19.11962
 Alpha  occ. eigenvalues --  -10.30665  -6.65336  -4.80454  -4.80107  -4.80090
 Alpha  occ. eigenvalues --   -1.07631  -0.98462  -0.91885  -0.91735  -0.74551
 Alpha  occ. eigenvalues --   -0.56222  -0.50152  -0.49603  -0.45720  -0.39826
 Alpha  occ. eigenvalues --   -0.39351  -0.36564  -0.32146  -0.30734  -0.30119
 Alpha  occ. eigenvalues --   -0.29909  -0.26230  -0.25367  -0.22996
 Alpha virt. eigenvalues --    0.21932   0.25026   0.27433   0.27532   0.29375
 Alpha virt. eigenvalues --    0.35306   0.36258   0.38254   0.48366   0.50653
 Alpha virt. eigenvalues --    0.55393   0.55918   0.65822   0.69036   0.74517
 Alpha virt. eigenvalues --    0.86170   0.88472   0.94904   0.95031   0.98984
 Alpha virt. eigenvalues --    0.99874   1.00722   1.04854   1.08920   1.13998
 Alpha virt. eigenvalues --    1.14008   1.21233   1.21726   1.22934   1.23104
 Alpha virt. eigenvalues --    1.26952   1.28344   1.34531   1.37794   1.40318
 Alpha virt. eigenvalues --    1.41842   1.51875   1.54516   1.64005   1.70149
 Alpha virt. eigenvalues --    1.75872   1.79745   1.94985   1.97379   2.00514
 Alpha virt. eigenvalues --    2.00997   2.02164   2.02259   2.02841   2.04868
 Alpha virt. eigenvalues --    2.12708   2.19044   2.26209   2.28622   2.29706
 Alpha virt. eigenvalues --    2.31510   2.48548   2.49078   2.50974   2.54323
 Alpha virt. eigenvalues --    2.69662   2.88792   2.93466   3.01359   3.03961
 Alpha virt. eigenvalues --    3.69367   3.88791   3.90419   4.06237   4.14183
 Alpha virt. eigenvalues --    4.38324
          Condensed to atoms (all electrons):
              1          2          3          4          5          6
     1  P   12.468997   0.189934   0.521612   0.510955   0.510929  -0.024101
     2  O    0.189934   8.397230  -0.042318  -0.043968  -0.043973   0.253441
     3  O    0.521612  -0.042318   8.418524  -0.050330  -0.050358   0.000704
     4  O    0.510955  -0.043968  -0.050330   8.439433  -0.049877  -0.006247
     5  O    0.510929  -0.043973  -0.050358  -0.049877   8.439656  -0.006254
     6  C   -0.024101   0.253441   0.000704  -0.006247  -0.006254   4.905139
     7  H   -0.001106  -0.042498  -0.000061   0.014135  -0.001109   0.359791
     8  H   -0.000172  -0.036770  -0.000050   0.000086   0.000086   0.381170
     9  H   -0.001094  -0.042500  -0.000061  -0.001110   0.014141   0.359763
              7          8          9
     1  P   -0.001106  -0.000172  -0.001094
     2  O   -0.042498  -0.036770  -0.042500
     3  O   -0.000061  -0.000050  -0.000061
     4  O    0.014135   0.000086  -0.001110
     5  O   -0.001109   0.000086   0.014141
     6  C    0.359791   0.381170   0.359763
     7  H    0.618756  -0.037829  -0.044220
     8  H   -0.037829   0.587621  -0.037821
     9  H   -0.044220  -0.037821   0.618806
 Mulliken atomic charges:
              1
     1  P    0.824045
     2  O   -0.588579
     3  O   -0.797663
     4  O   -0.813077
     5  O   -0.813240
     6  C   -0.223406
     7  H    0.134142
     8  H    0.143679
     9  H    0.134098
 Sum of Mulliken atomic charges =  -2.00000
 Mulliken charges with hydrogens summed into heavy atoms:
              1
     1  P    0.824045
     2  O   -0.588579
     3  O   -0.797663
     4  O   -0.813077
     5  O   -0.813240
     6  C    0.188513
 Sum of Mulliken charges with hydrogens summed into heavy atoms =  -2.00000
 Electronic spatial extent (au):  <R**2>=            605.3403
 Charge=             -2.0000 electrons
 Dipole moment (field-independent basis, Debye):
    X=             -7.9116    Y=              0.0007    Z=              0.7353  Tot=              7.9457
 Quadrupole moment (field-independent basis, Debye-Ang):
   XX=            -52.7538   YY=            -57.2986   ZZ=            -56.4183
   XY=              0.0034   XZ=             -1.9570   YZ=             -0.0016
 Traceless Quadrupole moment (field-independent basis, Debye-Ang):
   XX=              2.7365   YY=             -1.8084   ZZ=             -0.9281
   XY=              0.0034   XZ=             -1.9570   YZ=             -0.0016
 Octapole moment (field-independent basis, Debye-Ang**2):
  XXX=            -20.8812  YYY=             -0.0394  ZZZ=              0.9539  XYY=             -6.7532
  XXY=              0.0129  XXZ=             -8.7271  XZZ=             -8.4873  YZZ=              0.0284
  YYZ=             11.7266  XYZ=              0.0012
 Hexadecapole moment (field-independent basis, Debye-Ang**3):
 XXXX=           -436.5715 YYYY=           -197.9057 ZZZZ=           -183.6905 XXXY=              0.0248
 XXXZ=            -20.8497 YYYX=             -0.0202 YYYZ=              0.0059 ZZZX=             -4.7134
 ZZZY=             -0.0240 XXYY=           -104.2885 XXZZ=           -111.4771 YYZZ=            -67.7322
 XXYZ=              0.0075 YYXZ=              5.7667 ZZXY=              0.0207
 N-N= 3.366965727308D+02 E-N=-2.314709942010D+03  KE= 6.783125121176D+02
 No NMR shielding tensors so no spin-rotation constants.
 Leave Link  601 at Tue Apr  7 09:38:59 2020, MaxMem=13421772800 cpu:       0.9
 (Enter /opt/g09gh/gaussian/g09/l701.exe)
 Compute integral first derivatives.
 ... and contract with generalized density number  0.
 R6Disp: Adding dispersion energy 1st derivatives to the gradient.
 D1PCM: PCM CHGder 1st derivatives, ID1Alg=3 FixD1E=F DoIter=F DoCFld=F I1PDM=0.
 GePol: Maximum number of non-zero 1st derivatives   =     236
 Leave Link  701 at Tue Apr  7 09:38:59 2020, MaxMem=13421772800 cpu:       3.6
 (Enter /opt/g09gh/gaussian/g09/l702.exe)
 L702 exits ... SP integral derivatives will be done elsewhere.
 Leave Link  702 at Tue Apr  7 09:38:59 2020, MaxMem=13421772800 cpu:       0.3
 (Enter /opt/g09gh/gaussian/g09/l703.exe)
 Compute integral first derivatives, UseDBF=F ICtDFT=           0.
 Integral derivatives from FoFDir, PRISM(SPDF).
 Calling FoFJK, ICntrl=      2127 FMM=F ISym2X=0 I1Cent= 0 IOpClX= 0 NMat=1 NMatS=1 NMatT=0.
 FoFJK:  IHMeth= 1 ICntrl=  2127 DoSepK=T KAlg= 1 I1Cent= 0 FoldK=F
 FoFCou: FMM=F IPFlag=           0 FMFlag=      100000 FMFlg1=         800
         NFxFlg=           0 DoJE=F BraDBF=F KetDBF=F FulRan=T
         Omega=  0.000000  0.000000  1.000000  0.000000  0.000000 ICntrl=    2527 IOpCl=  0
         NMat0=    1 NMatS0=    1 NMatT0=    0 NMatD0=    1 NMtDS0=    0 NMtDT0=    0
         I1Cent=           0 NGrid=           0.
 Symmetry not used in FoFCou.
 Leave Link  703 at Tue Apr  7 09:39:00 2020, MaxMem=13421772800 cpu:       8.3
 (Enter /opt/g09gh/gaussian/g09/l716.exe)
 Dipole        =-3.11264918D+00 2.73003607D-04 2.89275644D-01
 ***** Axes restored to original set *****
 -------------------------------------------------------------------
 Center     Atomic                   Forces (Hartrees/Bohr)
 Number     Number              X              Y              Z
 -------------------------------------------------------------------
      1       15           0.018957513   -0.000067558   -0.014810203
      2        8          -0.028307832   -0.000072914    0.017347795
      3        8          -0.001482519   -0.000022258    0.006753236
      4        8          -0.000367325    0.007871263   -0.005420032
      5        8          -0.000388114   -0.007697863   -0.005503156
      6        6           0.015955032   -0.000105593    0.007994113
      7        1          -0.001570213    0.001238848   -0.004099804
      8        1          -0.001236707   -0.000012455    0.001802886
      9        1          -0.001559835   -0.001131469   -0.004064836
 -------------------------------------------------------------------
 Cartesian Forces:  Max     0.028307832 RMS     0.009177850
 Leave Link  716 at Tue Apr  7 09:39:00 2020, MaxMem=13421772800 cpu:       0.3
 (Enter /opt/g09gh/gaussian/g09/l103.exe)

 GradGradGradGradGradGradGradGradGradGradGradGradGradGradGradGradGradGrad
 Berny optimization.
 Internal  Forces:  Max     0.023878680 RMS     0.006800480
 Search for a local minimum.
 Step number   1 out of a maximum of  100
 All quantities printed in internal units (Hartrees-Bohrs-Radians)
 RMS Force = .68005D-02 SwitMx=.10000D-02 MixMth= 1
 Mixed Optimization -- RFO/linear search
 Second derivative matrix not updated -- first step.
     Eigenvalues ---    0.01445   0.02723   0.10270   0.10478   0.16000
     Eigenvalues ---    0.16000   0.16000   0.17643   0.17795   0.25000
     Eigenvalues ---    0.25000   0.25000   0.25000   0.34479   0.34494
     Eigenvalues ---    0.34507   0.42320   0.42658   0.68680   0.68721
     Eigenvalues ---    0.687551000.000001000.000001000.000001000.00000
     Eigenvalues --- 1000.000001000.00000
 RFO step:  Lambda=-3.40863248D-03 EMin= 1.44453786D-02
 Linear search not attempted -- first point.
 Iteration  1 RMS(Cart)=  0.02387745 RMS(Int)=  0.00042694
 Iteration  2 RMS(Cart)=  0.00065075 RMS(Int)=  0.00008021
 Iteration  3 RMS(Cart)=  0.00000013 RMS(Int)=  0.00008021
 Variable       Old X    -DE/DX   Delta X   Delta X   Delta X     New X
                                 (Linear)    (Quad)   (Total)
    R1        3.12218   0.02388   0.00000   0.05597   0.05597   3.17815
    R2        2.88318   0.00391   0.00000   0.00566   0.00566   2.88884
    R3        2.88340   0.00954   0.00000   0.01381   0.01381   2.89721
    R4        2.88368   0.00944   0.00000   0.01368   0.01368   2.89735
    R5        2.68094  -0.01067   0.00000  -0.02481  -0.02481   2.65613
    R6        2.06504   0.00344   0.00000   0.00988   0.00988   2.07493
    R7        2.06483   0.00209   0.00000   0.00599   0.00599   2.07082
    R8        2.06529   0.00336   0.00000   0.00966   0.00966   2.07495
    A1        1.80770  -0.01381   0.00000  -0.05579  -0.05594   1.75175
    A2        1.82720   0.00169   0.00000   0.00731   0.00718   1.83438
    A3        1.82709   0.00172   0.00000   0.00747   0.00734   1.83443
    A4        1.98931   0.00357   0.00000   0.01240   0.01220   2.00151
    A5        1.98904   0.00364   0.00000   0.01278   0.01259   2.00163
    A6        1.99568   0.00093   0.00000   0.00686   0.00670   2.00238
    A7        2.07273  -0.00896   0.00000  -0.03535  -0.03535   2.03738
    A8        1.92160   0.00291   0.00000   0.01721   0.01718   1.93878
    A9        1.89596  -0.00138   0.00000  -0.00725  -0.00725   1.88871
   A10        1.92160   0.00288   0.00000   0.01698   0.01695   1.93856
   A11        1.90217  -0.00027   0.00000  -0.00043  -0.00043   1.90175
   A12        1.91990  -0.00390   0.00000  -0.02611  -0.02616   1.89374
   A13        1.90221  -0.00027   0.00000  -0.00048  -0.00048   1.90173
    D1       -3.14157  -0.00001   0.00000   0.00059   0.00059  -3.14098
    D2        1.05240   0.00135   0.00000   0.00812   0.00806   1.06046
    D3       -1.05270  -0.00127   0.00000  -0.00643  -0.00638  -1.05908
    D4       -1.05994   0.00056   0.00000   0.00569   0.00564  -1.05430
    D5        3.14154   0.00000   0.00000   0.00044   0.00044  -3.14120
    D6        1.05979  -0.00053   0.00000  -0.00460  -0.00456   1.05523
         Item               Value     Threshold  Converged?
 Maximum Force            0.023879     0.000450     NO 
 RMS     Force            0.006800     0.000300     NO 
 Maximum Displacement     0.070920     0.001800     NO 
 RMS     Displacement     0.024248     0.001200     NO 
 Predicted change in Energy=-1.722307D-03
 GradGradGradGradGradGradGradGradGradGradGradGradGradGradGradGradGradGrad

 Leave Link  103 at Tue Apr  7 09:39:00 2020, MaxMem=13421772800 cpu:       0.1
 (Enter /opt/g09gh/gaussian/g09/l202.exe)
                          Input orientation:                          
 ---------------------------------------------------------------------
 Center     Atomic      Atomic             Coordinates (Angstroms)
 Number     Number       Type             X           Y           Z
 ---------------------------------------------------------------------
      1         15           0        0.515686    0.000558   -0.079010
      2          8           0       -0.927058   -0.003908    0.785249
      3          8           0        1.524471   -0.005996    1.069583
      4          8           0        0.486656    1.296243   -0.898079
      5          8           0        0.486076   -1.285933   -0.912561
      6          6           0       -2.114560   -0.000278    0.033295
      7          1           0       -2.177691    0.893749   -0.601012
      8          1           0       -2.960841   -0.003434    0.729461
      9          1           0       -2.177739   -0.888502   -0.609126
 ---------------------------------------------------------------------
                    Distance matrix (angstroms):
                    1          2          3          4          5
     1  P    0.000000
     2  O    1.681806   0.000000
     3  O    1.528711   2.467963   0.000000
     4  O    1.533140   2.553933   2.577709   0.000000
     5  O    1.533214   2.554036   2.577868   2.582217   0.000000
     6  C    2.632642   1.405564   3.783711   3.052007   3.051370
     7  H    2.885231   2.071616   4.160100   2.710902   3.455971
     8  H    3.569297   2.034548   4.498190   4.027813   4.027688
     9  H    2.885479   2.071471   4.159717   3.457687   2.710339
                    6          7          8          9
     6  C    0.000000
     7  H    1.098005   0.000000
     8  H    1.095832   1.785615   0.000000
     9  H    1.098016   1.782270   1.785611   0.000000
 Stoichiometry    CH3O4P(2-)
 Framework group  C1[X(CH3O4P)]
 Deg. of freedom    21
 Full point group                 C1      NOp   1
 Largest Abelian subgroup         C1      NOp   1
 Largest concise Abelian subgroup C1      NOp   1
                         Standard orientation:                         
 ---------------------------------------------------------------------
 Center     Atomic      Atomic             Coordinates (Angstroms)
 Number     Number       Type             X           Y           Z
 ---------------------------------------------------------------------
      1         15           0       -0.510890   -0.055279    0.000300
      2          8           0        0.938353    0.798036   -0.004517
      3          8           0       -1.510954    1.100909   -0.007234
      4          8           0       -0.488278   -0.873638    1.296562
      5          8           0       -0.487369   -0.889932   -1.285603
      6          6           0        2.120130    0.037121   -0.000153
      7          1           0        2.178308   -0.597020    0.894328
      8          1           0        2.971655    0.726861   -0.003648
      9          1           0        2.178598   -0.606382   -0.887917
 ---------------------------------------------------------------------
 Rotational constants (GHZ):      4.5635267      2.6174092      2.6053971
 Leave Link  202 at Tue Apr  7 09:39:00 2020, MaxMem=13421772800 cpu:       0.0
 (Enter /opt/g09gh/gaussian/g09/l301.exe)
 Standard basis: 6-31G(d) (6D, 7F)
 Ernie: Thresh=  0.10000D-02 Tol=  0.10000D-05 Strict=F.
 There are   100 symmetry adapted basis functions of A   symmetry.
 Integral buffers will be    131072 words long.
 Raffenetti 2 integral format.
 Two-electron integral symmetry is turned on.
   100 basis functions,   204 primitive gaussians,   100 cartesian basis functions
    29 alpha electrons       29 beta electrons
       nuclear repulsion energy       335.4065464804 Hartrees.
 IExCor= 4639 DFT=T Ex+Corr=wB97XD ExCW=0 ScaHFX=  1.000000
 ScaDFX=  1.000000  1.000000  1.000000  1.000000 ScalE2=  1.000000  1.000000
 IRadAn=      0 IRanWt=     -1 IRanGd=            0 ICorTp=0
  HFx wShort=  0.000000 wLong=  0.200000 cFull=  0.222036 cShort=  0.000000 cLong=  0.777964
  DFx wShort=  0.000000 wLong=  0.200000 cFull=  0.000000 cShort=  0.000000 cLong=  1.000000
 NAtoms=    9 NActive=    9 NUniq=    9 SFac= 7.50D-01 NAtFMM=   80 NAOKFM=F Big=F
 R6Disp: Dispersion energy =        -0.0024717416 Hartrees.
 Nuclear repulsion after empirical dispersion term =      335.4040747388 Hartrees.
 ------------------------------------------------------------------------------
 Polarizable Continuum Model (PCM)
 =================================
 Model                : PCM.
 Atomic radii         : UFF (Universal Force Field).
 Polarization charges : Total charges.
 Charge compensation  : None.
 Solution method      : Matrix inversion.
 Cavity type          : Scaled VdW (van der Waals Surface) (Alpha=1.100).
 Cavity algorithm     : GePol (No added spheres)
                        Default sphere list used, NSphG=    9.
                        Lebedev-Laikov grids with approx.  5.0 points / Ang**2.
                        Smoothing algorithm: Karplus/York (Gamma=1.0000).
                        Polarization charges: spherical gaussians, with
                                              point-specific exponents (IZeta= 3).
                        Self-potential: point-specific (ISelfS= 7).
                        Self-field    : sphere-specific E.n sum rule (ISelfD= 2).
 1st derivatives      : Analytical E(r).r(x)/FMM algorithm (CHGder, D1EAlg=3).
                        Cavity 1st derivative terms included.
 Solvent              : Water, Eps=  78.355300 Eps(inf)=   1.777849
 ------------------------------------------------------------------------------
 Spheres list:
 ISph  on   Nord    Re0     Alpha      Xe            Ye            Ze
    1   P      1    2.074   1.100     -0.510890     -0.055279      0.000300
    2   O      2    1.750   1.100      0.938353      0.798036     -0.004517
    3   O      3    1.750   1.100     -1.510954      1.100909     -0.007234
    4   O      4    1.750   1.100     -0.488278     -0.873638      1.296562
    5   O      5    1.750   1.100     -0.487369     -0.889932     -1.285603
    6   C      6    1.926   1.100      2.120130      0.037121     -0.000153
    7   H      7    1.443   1.100      2.178308     -0.597020      0.894328
    8   H      8    1.443   1.100      2.971655      0.726861     -0.003648
    9   H      9    1.443   1.100      2.178598     -0.606382     -0.887917
 ------------------------------------------------------------------------------
 GePol: Number of generator spheres                  =       9
 GePol: Total number of spheres                      =       9
 GePol: Number of exposed spheres                    =       9 (100.00%)
 GePol: Number of points                             =    1071
 GePol: Average weight of points                     =       0.13
 GePol: Minimum weight of points                     =   0.22D-11
 GePol: Maximum weight of points                     =    0.20577
 GePol: Number of points with low weight             =      54
 GePol: Fraction of low-weight points (<1% of avg)   =       5.04%
 GePol: Cavity surface area                          =    139.743 Ang**2
 GePol: Cavity volume                                =    127.174 Ang**3
 Leave Link  301 at Tue Apr  7 09:39:01 2020, MaxMem=13421772800 cpu:       0.6
 (Enter /opt/g09gh/gaussian/g09/l302.exe)
 NPDir=0 NMtPBC=     1 NCelOv=     1 NCel=       1 NClECP=     1 NCelD=      1
         NCelK=      1 NCelE2=     1 NClLst=     1 CellRange=     0.0.
 One-electron integrals computed using PRISM.
 NBasis=   100 RedAO= T  NBF=   100
 NBsUse=   100 1.00D-06 NBFU=   100
 Precomputing XC quadrature grid using
 IXCGrd= 2 IRadAn=           0 IRanWt=          -1 IRanGd=           0 AccXCQ= 1.00D-10.
 NRdTot=     561 NPtTot=       71368 NUsed=       75425 NTot=       75457
 NSgBfM=   100   100   100   100   100 NAtAll=     9     9.
 Leave Link  302 at Tue Apr  7 09:39:01 2020, MaxMem=13421772800 cpu:       1.2
 (Enter /opt/g09gh/gaussian/g09/l303.exe)
 DipDrv:  MaxL=1.
 Leave Link  303 at Tue Apr  7 09:39:01 2020, MaxMem=13421772800 cpu:       0.3
 (Enter /opt/g09gh/gaussian/g09/l401.exe)
 Initial guess read from the read-write file.
 B after Tr=     0.000000    0.000000    0.000000
         Rot=    1.000000    0.000000    0.000000    0.000000 Ang=   0.00 deg.
 Guess basis will be translated and rotated to current coordinates.
 Initial guess orbital symmetries:
       Occupied  (A) (A) (A) (A) (A) (A) (A) (A) (A) (A) (A) (A)
                 (A) (A) (A) (A) (A) (A) (A) (A) (A) (A) (A) (A)
                 (A) (A) (A) (A) (A)
       Virtual   (A) (A) (A) (A) (A) (A) (A) (A) (A) (A) (A) (A)
                 (A) (A) (A) (A) (A) (A) (A) (A) (A) (A) (A) (A)
                 (A) (A) (A) (A) (A) (A) (A) (A) (A) (A) (A) (A)
                 (A) (A) (A) (A) (A) (A) (A) (A) (A) (A) (A) (A)
                 (A) (A) (A) (A) (A) (A) (A) (A) (A) (A) (A) (A)
                 (A) (A) (A) (A) (A) (A) (A) (A) (A) (A) (A)
 The electronic state of the initial guess is 1-A.
 Leave Link  401 at Tue Apr  7 09:39:01 2020, MaxMem=13421772800 cpu:       0.9
 (Enter /opt/g09gh/gaussian/g09/l502.exe)
 Closed shell SCF:
 Requested convergence on RMS density matrix=1.00D-08 within 128 cycles.
 Requested convergence on MAX density matrix=1.00D-06.
 Requested convergence on             energy=1.00D-06.
 No special actions if energy rises.
 Using DIIS extrapolation, IDIIS=  1040.
 Integral symmetry usage will be decided dynamically.
        75331 words used for storage of precomputed grid.
 IEnd=      125026 IEndB=      125026 NGot= 13421772800 MDV= 13421674515
 LenX= 13421674515 LenY= 13421664074
 Fock matrices will be formed incrementally for  20 cycles.

 Cycle   1  Pass 1  IDiag  1:
 FoFJK:  IHMeth= 1 ICntrl=     0 DoSepK=T KAlg= 1 I1Cent= 0 FoldK=F
 FoFCou: FMM=F IPFlag=           0 FMFlag=      100000 FMFlg1=           0
         NFxFlg=           0 DoJE=T BraDBF=F KetDBF=F FulRan=T
         Omega=  0.000000  0.000000  1.000000  0.000000  0.000000 ICntrl=     500 IOpCl=  0
         NMat0=    1 NMatS0=    1 NMatT0=    0 NMatD0=    1 NMtDS0=    0 NMtDT0=    0
         I1Cent=           0 NGrid=           0.
 Symmetry not used in FoFCou.
 E= -677.988987396349    
 DIIS: error= 5.75D-02 at cycle   1 NSaved=   1.
 NSaved= 1 IEnMin= 1 EnMin= -677.988987396349     IErMin= 1 ErrMin= 5.75D-02
 ErrMax= 5.75D-02 EMaxC= 1.00D-01 BMatC= 1.38D+00 BMatP= 1.38D+00
 IDIUse=3 WtCom= 4.25D-01 WtEn= 5.75D-01
 Coeff-Com:  0.100D+01
 Coeff-En:   0.100D+01
 Coeff:      0.100D+01
 Gap=     0.653 Goal=   None    Shift=    0.000
 GapD=    0.653 DampG=2.000 DampE=0.500 DampFc=1.0000 IDamp=-1.
 RMSDP=3.32D-02 MaxDP=4.47D-01              OVMax= 6.33D-01

 Cycle   2  Pass 1  IDiag  1:
 RMSU=  1.97D-02    CP:  6.60D-01
 FoFJK:  IHMeth= 1 ICntrl=     0 DoSepK=T KAlg= 1 I1Cent= 0 FoldK=F
 E= -681.713185903498     Delta-E=       -3.724198507148 Rises=F Damp=F
 DIIS: error= 5.59D-02 at cycle   2 NSaved=   2.
 NSaved= 2 IEnMin= 2 EnMin= -681.713185903498     IErMin= 2 ErrMin= 5.59D-02
 ErrMax= 5.59D-02 EMaxC= 1.00D-01 BMatC= 7.49D-01 BMatP= 1.38D+00
 IDIUse=3 WtCom= 4.41D-01 WtEn= 5.59D-01
 Coeff-Com:  0.388D+00 0.612D+00
 Coeff-En:   0.000D+00 0.100D+01
 Coeff:      0.171D+00 0.829D+00
 Gap=     0.563 Goal=   None    Shift=    0.000
 RMSDP=1.19D-02 MaxDP=2.37D-01 DE=-3.72D+00 OVMax= 2.59D-01

 Cycle   3  Pass 1  IDiag  1:
 RMSU=  8.10D-03    CP:  6.45D-01  8.84D-01
 FoFJK:  IHMeth= 1 ICntrl=     0 DoSepK=T KAlg= 1 I1Cent= 0 FoldK=F
 E= -682.059829891194     Delta-E=       -0.346643987696 Rises=F Damp=F
 DIIS: error= 4.36D-02 at cycle   3 NSaved=   3.
 NSaved= 3 IEnMin= 3 EnMin= -682.059829891194     IErMin= 3 ErrMin= 4.36D-02
 ErrMax= 4.36D-02 EMaxC= 1.00D-01 BMatC= 4.15D-01 BMatP= 7.49D-01
 IDIUse=3 WtCom= 5.64D-01 WtEn= 4.36D-01
 Coeff-Com: -0.553D-01 0.427D+00 0.628D+00
 Coeff-En:   0.000D+00 0.289D+00 0.711D+00
 Coeff:     -0.312D-01 0.367D+00 0.664D+00
 Gap=     0.586 Goal=   None    Shift=    0.000
 RMSDP=5.30D-03 MaxDP=1.07D-01 DE=-3.47D-01 OVMax= 1.08D-01

 Cycle   4  Pass 1  IDiag  1:
 RMSU=  2.28D-03    CP:  6.35D-01  9.51D-01  6.75D-01
 FoFJK:  IHMeth= 1 ICntrl=     0 DoSepK=T KAlg= 1 I1Cent= 0 FoldK=F
 E= -682.345664651165     Delta-E=       -0.285834759972 Rises=F Damp=F
 DIIS: error= 1.06D-02 at cycle   4 NSaved=   4.
 NSaved= 4 IEnMin= 4 EnMin= -682.345664651165     IErMin= 4 ErrMin= 1.06D-02
 ErrMax= 1.06D-02 EMaxC= 1.00D-01 BMatC= 2.58D-02 BMatP= 4.15D-01
 IDIUse=3 WtCom= 8.94D-01 WtEn= 1.06D-01
 Coeff-Com: -0.311D-01 0.126D+00 0.304D+00 0.601D+00
 Coeff-En:   0.000D+00 0.000D+00 0.000D+00 0.100D+01
 Coeff:     -0.278D-01 0.113D+00 0.272D+00 0.643D+00
 Gap=     0.466 Goal=   None    Shift=    0.000
 RMSDP=1.49D-03 MaxDP=2.99D-02 DE=-2.86D-01 OVMax= 3.41D-02

 Cycle   5  Pass 1  IDiag  1:
 RMSU=  7.46D-04    CP:  6.34D-01  9.40D-01  7.54D-01  8.61D-01
 FoFJK:  IHMeth= 1 ICntrl=     0 DoSepK=T KAlg= 1 I1Cent= 0 FoldK=F
 E= -682.363011766573     Delta-E=       -0.017347115408 Rises=F Damp=F
 DIIS: error= 3.76D-03 at cycle   5 NSaved=   5.
 NSaved= 5 IEnMin= 5 EnMin= -682.363011766573     IErMin= 5 ErrMin= 3.76D-03
 ErrMax= 3.76D-03 EMaxC= 1.00D-01 BMatC= 2.50D-03 BMatP= 2.58D-02
 IDIUse=3 WtCom= 9.62D-01 WtEn= 3.76D-02
 Coeff-Com: -0.154D-02-0.163D-01-0.580D-02 0.253D+00 0.770D+00
 Coeff-En:   0.000D+00 0.000D+00 0.000D+00 0.000D+00 0.100D+01
 Coeff:     -0.148D-02-0.156D-01-0.558D-02 0.244D+00 0.779D+00
 Gap=     0.455 Goal=   None    Shift=    0.000
 RMSDP=5.26D-04 MaxDP=1.09D-02 DE=-1.73D-02 OVMax= 1.13D-02

 Cycle   6  Pass 1  IDiag  1:
 RMSU=  1.99D-04    CP:  6.33D-01  9.40D-01  7.53D-01  9.92D-01  8.87D-01
 FoFJK:  IHMeth= 1 ICntrl=     0 DoSepK=T KAlg= 1 I1Cent= 0 FoldK=F
 E= -682.364975069292     Delta-E=       -0.001963302719 Rises=F Damp=F
 DIIS: error= 1.12D-03 at cycle   6 NSaved=   6.
 NSaved= 6 IEnMin= 6 EnMin= -682.364975069292     IErMin= 6 ErrMin= 1.12D-03
 ErrMax= 1.12D-03 EMaxC= 1.00D-01 BMatC= 1.52D-04 BMatP= 2.50D-03
 IDIUse=3 WtCom= 9.89D-01 WtEn= 1.12D-02
 Coeff-Com: -0.108D-03-0.129D-01-0.189D-01 0.517D-01 0.310D+00 0.670D+00
 Coeff-En:   0.000D+00 0.000D+00 0.000D+00 0.000D+00 0.000D+00 0.100D+01
 Coeff:     -0.106D-03-0.127D-01-0.187D-01 0.511D-01 0.307D+00 0.674D+00
 Gap=     0.451 Goal=   None    Shift=    0.000
 RMSDP=1.39D-04 MaxDP=2.42D-03 DE=-1.96D-03 OVMax= 2.22D-03

 Cycle   7  Pass 1  IDiag  1:
 RMSU=  6.75D-05    CP:  6.33D-01  9.40D-01  7.57D-01  1.01D+00  9.61D-01
                    CP:  9.64D-01
 FoFJK:  IHMeth= 1 ICntrl=     0 DoSepK=T KAlg= 1 I1Cent= 0 FoldK=F
 E= -682.365099651866     Delta-E=       -0.000124582574 Rises=F Damp=F
 DIIS: error= 2.75D-04 at cycle   7 NSaved=   7.
 NSaved= 7 IEnMin= 7 EnMin= -682.365099651866     IErMin= 7 ErrMin= 2.75D-04
 ErrMax= 2.75D-04 EMaxC= 1.00D-01 BMatC= 1.12D-05 BMatP= 1.52D-04
 IDIUse=3 WtCom= 9.97D-01 WtEn= 2.75D-03
 Coeff-Com:  0.360D-03-0.128D-02-0.446D-02-0.211D-01-0.150D-01 0.214D+00
 Coeff-Com:  0.828D+00
 Coeff-En:   0.000D+00 0.000D+00 0.000D+00 0.000D+00 0.000D+00 0.000D+00
 Coeff-En:   0.100D+01
 Coeff:      0.359D-03-0.128D-02-0.445D-02-0.211D-01-0.150D-01 0.213D+00
 Coeff:      0.828D+00
 Gap=     0.452 Goal=   None    Shift=    0.000
 RMSDP=5.94D-05 MaxDP=9.24D-04 DE=-1.25D-04 OVMax= 1.01D-03

 Cycle   8  Pass 1  IDiag  1:
 RMSU=  1.73D-05    CP:  6.33D-01  9.40D-01  7.59D-01  1.01D+00  9.82D-01
                    CP:  1.09D+00  1.02D+00
 FoFJK:  IHMeth= 1 ICntrl=     0 DoSepK=T KAlg= 1 I1Cent= 0 FoldK=F
 E= -682.365112907239     Delta-E=       -0.000013255373 Rises=F Damp=F
 DIIS: error= 3.70D-05 at cycle   8 NSaved=   8.
 NSaved= 8 IEnMin= 8 EnMin= -682.365112907239     IErMin= 8 ErrMin= 3.70D-05
 ErrMax= 3.70D-05 EMaxC= 1.00D-01 BMatC= 4.17D-07 BMatP= 1.12D-05
 IDIUse=1 WtCom= 1.00D+00 WtEn= 0.00D+00
 Coeff-Com:  0.165D-03 0.756D-04-0.355D-03-0.588D-02-0.163D-01 0.408D-02
 Coeff-Com:  0.153D+00 0.866D+00
 Coeff:      0.165D-03 0.756D-04-0.355D-03-0.588D-02-0.163D-01 0.408D-02
 Coeff:      0.153D+00 0.866D+00
 Gap=     0.452 Goal=   None    Shift=    0.000
 RMSDP=1.69D-05 MaxDP=2.41D-04 DE=-1.33D-05 OVMax= 2.67D-04

 Cycle   9  Pass 1  IDiag  1:
 RMSU=  5.84D-06    CP:  6.33D-01  9.40D-01  7.59D-01  1.02D+00  9.87D-01
                    CP:  1.12D+00  1.10D+00  1.15D+00
 FoFJK:  IHMeth= 1 ICntrl=     0 DoSepK=T KAlg= 1 I1Cent= 0 FoldK=F
 E= -682.365113461358     Delta-E=       -0.000000554119 Rises=F Damp=F
 DIIS: error= 4.14D-05 at cycle   9 NSaved=   9.
 NSaved= 9 IEnMin= 9 EnMin= -682.365113461358     IErMin= 8 ErrMin= 3.70D-05
 ErrMax= 4.14D-05 EMaxC= 1.00D-01 BMatC= 1.98D-07 BMatP= 4.17D-07
 IDIUse=1 WtCom= 1.00D+00 WtEn= 0.00D+00
 Coeff-Com: -0.171D-04 0.273D-03 0.592D-03-0.144D-04-0.705D-02-0.300D-01
 Coeff-Com: -0.379D-01 0.447D+00 0.627D+00
 Coeff:     -0.171D-04 0.273D-03 0.592D-03-0.144D-04-0.705D-02-0.300D-01
 Coeff:     -0.379D-01 0.447D+00 0.627D+00
 Gap=     0.452 Goal=   None    Shift=    0.000
 RMSDP=6.26D-06 MaxDP=7.58D-05 DE=-5.54D-07 OVMax= 1.06D-04

 Cycle  10  Pass 1  IDiag  1:
 RMSU=  1.97D-06    CP:  6.33D-01  9.40D-01  7.59D-01  1.02D+00  9.88D-01
                    CP:  1.13D+00  1.12D+00  1.29D+00  8.57D-01
 FoFJK:  IHMeth= 1 ICntrl=     0 DoSepK=T KAlg= 1 I1Cent= 0 FoldK=F
 E= -682.365113639643     Delta-E=       -0.000000178284 Rises=F Damp=F
 DIIS: error= 4.05D-06 at cycle  10 NSaved=  10.
 NSaved=10 IEnMin=10 EnMin= -682.365113639643     IErMin=10 ErrMin= 4.05D-06
 ErrMax= 4.05D-06 EMaxC= 1.00D-01 BMatC= 3.39D-09 BMatP= 1.98D-07
 IDIUse=1 WtCom= 1.00D+00 WtEn= 0.00D+00
 Coeff-Com: -0.654D-05 0.152D-04 0.662D-04 0.555D-03 0.864D-03-0.345D-02
 Coeff-Com: -0.185D-01-0.320D-01 0.691D-01 0.983D+00
 Coeff:     -0.654D-05 0.152D-04 0.662D-04 0.555D-03 0.864D-03-0.345D-02
 Coeff:     -0.185D-01-0.320D-01 0.691D-01 0.983D+00
 Gap=     0.452 Goal=   None    Shift=    0.000
 RMSDP=2.16D-06 MaxDP=2.99D-05 DE=-1.78D-07 OVMax= 3.70D-05

 Cycle  11  Pass 1  IDiag  1:
 RMSU=  3.88D-07    CP:  6.33D-01  9.40D-01  7.59D-01  1.02D+00  9.88D-01
                    CP:  1.13D+00  1.13D+00  1.34D+00  9.76D-01  1.25D+00
 FoFJK:  IHMeth= 1 ICntrl=     0 DoSepK=T KAlg= 1 I1Cent= 0 FoldK=F
 E= -682.365113646759     Delta-E=       -0.000000007116 Rises=F Damp=F
 DIIS: error= 9.54D-07 at cycle  11 NSaved=  11.
 NSaved=11 IEnMin=11 EnMin= -682.365113646759     IErMin=11 ErrMin= 9.54D-07
 ErrMax= 9.54D-07 EMaxC= 1.00D-01 BMatC= 1.85D-10 BMatP= 3.39D-09
 IDIUse=1 WtCom= 1.00D+00 WtEn= 0.00D+00
 Coeff-Com: -0.344D-07-0.102D-04-0.153D-04 0.722D-04 0.454D-03 0.113D-02
 Coeff-Com: -0.594D-03-0.246D-01-0.220D-01 0.104D+00 0.942D+00
 Coeff:     -0.344D-07-0.102D-04-0.153D-04 0.722D-04 0.454D-03 0.113D-02
 Coeff:     -0.594D-03-0.246D-01-0.220D-01 0.104D+00 0.942D+00
 Gap=     0.452 Goal=   None    Shift=    0.000
 RMSDP=5.01D-07 MaxDP=7.08D-06 DE=-7.12D-09 OVMax= 9.25D-06

 Cycle  12  Pass 1  IDiag  1:
 RMSU=  1.39D-07    CP:  6.33D-01  9.40D-01  7.59D-01  1.02D+00  9.88D-01
                    CP:  1.13D+00  1.13D+00  1.35D+00  1.00D+00  1.35D+00
                    CP:  1.19D+00
 FoFJK:  IHMeth= 1 ICntrl=     0 DoSepK=T KAlg= 1 I1Cent= 0 FoldK=F
 E= -682.365113647068     Delta-E=       -0.000000000309 Rises=F Damp=F
 DIIS: error= 9.73D-07 at cycle  12 NSaved=  12.
 NSaved=12 IEnMin=12 EnMin= -682.365113647068     IErMin=11 ErrMin= 9.54D-07
 ErrMax= 9.73D-07 EMaxC= 1.00D-01 BMatC= 1.08D-10 BMatP= 1.85D-10
 IDIUse=1 WtCom= 1.00D+00 WtEn= 0.00D+00
 Coeff-Com:  0.226D-06-0.685D-05-0.132D-04-0.113D-04 0.163D-03 0.942D-03
 Coeff-Com:  0.143D-02-0.982D-02-0.187D-01-0.436D-01 0.498D+00 0.572D+00
 Coeff:      0.226D-06-0.685D-05-0.132D-04-0.113D-04 0.163D-03 0.942D-03
 Coeff:      0.143D-02-0.982D-02-0.187D-01-0.436D-01 0.498D+00 0.572D+00
 Gap=     0.452 Goal=   None    Shift=    0.000
 RMSDP=1.38D-07 MaxDP=1.87D-06 DE=-3.09D-10 OVMax= 2.86D-06

 Cycle  13  Pass 1  IDiag  1:
 RMSU=  4.60D-08    CP:  6.33D-01  9.40D-01  7.59D-01  1.02D+00  9.88D-01
                    CP:  1.13D+00  1.13D+00  1.35D+00  1.01D+00  1.37D+00
                    CP:  1.31D+00  8.07D-01
 FoFJK:  IHMeth= 1 ICntrl=     0 DoSepK=T KAlg= 1 I1Cent= 0 FoldK=F
 E= -682.365113647156     Delta-E=       -0.000000000088 Rises=F Damp=F
 DIIS: error= 1.14D-07 at cycle  13 NSaved=  13.
 NSaved=13 IEnMin=13 EnMin= -682.365113647156     IErMin=13 ErrMin= 1.14D-07
 ErrMax= 1.14D-07 EMaxC= 1.00D-01 BMatC= 3.14D-12 BMatP= 1.08D-10
 IDIUse=1 WtCom= 1.00D+00 WtEn= 0.00D+00
 Coeff-Com: -0.364D-07-0.518D-06-0.702D-06-0.855D-05-0.195D-04 0.479D-04
 Coeff-Com:  0.300D-03 0.919D-03-0.122D-02-0.203D-01 0.381D-02 0.127D+00
 Coeff-Com:  0.890D+00
 Coeff:     -0.364D-07-0.518D-06-0.702D-06-0.855D-05-0.195D-04 0.479D-04
 Coeff:      0.300D-03 0.919D-03-0.122D-02-0.203D-01 0.381D-02 0.127D+00
 Coeff:      0.890D+00
 Gap=     0.452 Goal=   None    Shift=    0.000
 RMSDP=4.99D-08 MaxDP=8.17D-07 DE=-8.84D-11 OVMax= 9.62D-07

 Cycle  14  Pass 1  IDiag  1:
 RMSU=  1.56D-08    CP:  6.33D-01  9.40D-01  7.59D-01  1.02D+00  9.88D-01
                    CP:  1.13D+00  1.13D+00  1.35D+00  1.01D+00  1.38D+00
                    CP:  1.35D+00  9.06D-01  1.13D+00
 FoFJK:  IHMeth= 1 ICntrl=     0 DoSepK=T KAlg= 1 I1Cent= 0 FoldK=F
 E= -682.365113647160     Delta-E=       -0.000000000004 Rises=F Damp=F
 DIIS: error= 4.04D-08 at cycle  14 NSaved=  14.
 NSaved=14 IEnMin=14 EnMin= -682.365113647160     IErMin=14 ErrMin= 4.04D-08
 ErrMax= 4.04D-08 EMaxC= 1.00D-01 BMatC= 2.05D-13 BMatP= 3.14D-12
 IDIUse=1 WtCom= 1.00D+00 WtEn= 0.00D+00
 Coeff-Com:  0.678D-07 0.318D-06 0.544D-06-0.132D-05-0.168D-04-0.578D-04
 Coeff-Com: -0.343D-04 0.895D-03 0.115D-02-0.149D-02-0.372D-01-0.211D-01
 Coeff-Com:  0.173D+00 0.885D+00
 Coeff:      0.678D-07 0.318D-06 0.544D-06-0.132D-05-0.168D-04-0.578D-04
 Coeff:     -0.343D-04 0.895D-03 0.115D-02-0.149D-02-0.372D-01-0.211D-01
 Coeff:      0.173D+00 0.885D+00
 Gap=     0.452 Goal=   None    Shift=    0.000
 RMSDP=1.66D-08 MaxDP=2.86D-07 DE=-3.52D-12 OVMax= 3.11D-07

 Cycle  15  Pass 1  IDiag  1:
 RMSU=  3.47D-09    CP:  6.33D-01  9.40D-01  7.59D-01  1.02D+00  9.88D-01
                    CP:  1.13D+00  1.13D+00  1.35D+00  1.01D+00  1.38D+00
                    CP:  1.36D+00  9.40D-01  1.25D+00  1.08D+00
 FoFJK:  IHMeth= 1 ICntrl=     0 DoSepK=T KAlg= 1 I1Cent= 0 FoldK=F
 E= -682.365113647164     Delta-E=       -0.000000000004 Rises=F Damp=F
 DIIS: error= 7.32D-09 at cycle  15 NSaved=  15.
 NSaved=15 IEnMin=15 EnMin= -682.365113647164     IErMin=15 ErrMin= 7.32D-09
 ErrMax= 7.32D-09 EMaxC= 1.00D-01 BMatC= 8.56D-15 BMatP= 2.05D-13
 IDIUse=1 WtCom= 1.00D+00 WtEn= 0.00D+00
 Coeff-Com: -0.113D-07 0.154D-08 0.302D-07 0.871D-06 0.189D-05-0.347D-05
 Coeff-Com: -0.179D-04-0.571D-04 0.742D-04 0.118D-02 0.233D-05-0.909D-02
 Coeff-Com: -0.552D-01 0.561D-02 0.106D+01
 Coeff:     -0.113D-07 0.154D-08 0.302D-07 0.871D-06 0.189D-05-0.347D-05
 Coeff:     -0.179D-04-0.571D-04 0.742D-04 0.118D-02 0.233D-05-0.909D-02
 Coeff:     -0.552D-01 0.561D-02 0.106D+01
 Gap=     0.452 Goal=   None    Shift=    0.000
 RMSDP=4.73D-09 MaxDP=8.63D-08 DE=-4.21D-12 OVMax= 1.03D-07

 Error on total polarization charges =  0.00770
 SCF Done:  E(RwB97XD) =  -682.365113647     A.U. after   15 cycles
             Convg  =    0.4728D-08             -V/T =  2.0061
 KE= 6.782337725691D+02 PE=-2.311952074295D+03 EE= 6.159491133401D+02
 Leave Link  502 at Tue Apr  7 09:39:12 2020, MaxMem=13421772800 cpu:      86.5
 (Enter /opt/g09gh/gaussian/g09/l701.exe)
 Compute integral first derivatives.
 ... and contract with generalized density number  0.
 R6Disp: Adding dispersion energy 1st derivatives to the gradient.
 D1PCM: PCM CHGder 1st derivatives, ID1Alg=3 FixD1E=F DoIter=F DoCFld=F I1PDM=0.
 GePol: Maximum number of non-zero 1st derivatives   =     236
 Leave Link  701 at Tue Apr  7 09:39:12 2020, MaxMem=13421772800 cpu:       3.6
 (Enter /opt/g09gh/gaussian/g09/l702.exe)
 L702 exits ... SP integral derivatives will be done elsewhere.
 Leave Link  702 at Tue Apr  7 09:39:12 2020, MaxMem=13421772800 cpu:       0.3
 (Enter /opt/g09gh/gaussian/g09/l703.exe)
 Compute integral first derivatives, UseDBF=F ICtDFT=           0.
 Integral derivatives from FoFDir, PRISM(SPDF).
 Calling FoFJK, ICntrl=      2127 FMM=F ISym2X=0 I1Cent= 0 IOpClX= 0 NMat=1 NMatS=1 NMatT=0.
 FoFJK:  IHMeth= 1 ICntrl=  2127 DoSepK=T KAlg= 1 I1Cent= 0 FoldK=F
 FoFCou: FMM=F IPFlag=           0 FMFlag=      100000 FMFlg1=         800
         NFxFlg=           0 DoJE=F BraDBF=F KetDBF=F FulRan=T
         Omega=  0.000000  0.000000  1.000000  0.000000  0.000000 ICntrl=    2527 IOpCl=  0
         NMat0=    1 NMatS0=    1 NMatT0=    0 NMatD0=    1 NMtDS0=    0 NMtDT0=    0
         I1Cent=           0 NGrid=           0.
 Symmetry not used in FoFCou.
 Leave Link  703 at Tue Apr  7 09:39:13 2020, MaxMem=13421772800 cpu:       8.3
 (Enter /opt/g09gh/gaussian/g09/l716.exe)
 Dipole        = 2.96545279D+00 1.87015968D-01-1.18638747D-03
 ***** Axes restored to original set *****
 -------------------------------------------------------------------
 Center     Atomic                   Forces (Hartrees/Bohr)
 Number     Number              X              Y              Z
 -------------------------------------------------------------------
      1       15           0.010499871   -0.000032426   -0.004366879
      2        8          -0.012967938    0.000017198    0.005051072
      3        8           0.001686474   -0.000084843   -0.000466178
      4        8          -0.000351596   -0.001281699   -0.000294820
      5        8          -0.000433442    0.001433891   -0.000411370
      6        6           0.005108583   -0.000076814    0.003759450
      7        1          -0.001063888    0.000267203   -0.001343238
      8        1          -0.001425576    0.000011063   -0.000577608
      9        1          -0.001052488   -0.000253573   -0.001350429
 -------------------------------------------------------------------
 Cartesian Forces:  Max     0.012967938 RMS     0.003746309
 Leave Link  716 at Tue Apr  7 09:39:14 2020, MaxMem=13421772800 cpu:       0.3
 (Enter /opt/g09gh/gaussian/g09/l103.exe)

 GradGradGradGradGradGradGradGradGradGradGradGradGradGradGradGradGradGrad
 Berny optimization.
 Using GEDIIS/GDIIS optimizer.
 Internal  Forces:  Max     0.012597925 RMS     0.002787309
 Search for a local minimum.
 Step number   2 out of a maximum of  100
 All quantities printed in internal units (Hartrees-Bohrs-Radians)
 RMS Force = .27873D-02 SwitMx=.10000D-02 MixMth= 1
 Mixed Optimization -- RFO/linear search
 Update second derivatives using D2CorX and points    1    2
 DE= -1.99D-03 DEPred=-1.72D-03 R= 1.16D+00
 SS=  1.41D+00  RLast= 1.03D-01 DXNew= 5.0454D-01 3.1034D-01
 Trust test= 1.16D+00 RLast= 1.03D-01 DXMaxT set to 3.10D-01
 Use linear search instead of GDIIS.
     Eigenvalues ---    0.01444   0.02722   0.10051   0.10427   0.14362
     Eigenvalues ---    0.16000   0.16139   0.17971   0.18145   0.23231
     Eigenvalues ---    0.25000   0.25000   0.29187   0.32140   0.34486
     Eigenvalues ---    0.34505   0.35255   0.43703   0.68693   0.68703
     Eigenvalues ---    0.721781000.000001000.000001000.000001000.00000
     Eigenvalues --- 1000.000001000.00000
 RFO step:  Lambda=-7.57167831D-04 EMin= 1.44442739D-02
 Quartic linear search produced a step of  0.22363.
 Iteration  1 RMS(Cart)=  0.01718598 RMS(Int)=  0.00020419
 Iteration  2 RMS(Cart)=  0.00023405 RMS(Int)=  0.00004796
 Iteration  3 RMS(Cart)=  0.00000002 RMS(Int)=  0.00004796
 Variable       Old X    -DE/DX   Delta X   Delta X   Delta X     New X
                                 (Linear)    (Quad)   (Total)
    R1        3.17815   0.01260   0.01252   0.03641   0.04893   3.22708
    R2        2.88884   0.00077   0.00127   0.00138   0.00264   2.89149
    R3        2.89721  -0.00092   0.00309  -0.00164   0.00145   2.89866
    R4        2.89735  -0.00098   0.00306  -0.00175   0.00131   2.89866
    R5        2.65613  -0.00155  -0.00555  -0.00447  -0.01002   2.64612
    R6        2.07493   0.00106   0.00221   0.00377   0.00598   2.08091
    R7        2.07082   0.00073   0.00134   0.00258   0.00392   2.07474
    R8        2.07495   0.00107   0.00216   0.00379   0.00595   2.08090
    A1        1.75175   0.00437  -0.01251   0.02288   0.01031   1.76207
    A2        1.83438  -0.00057   0.00160  -0.00380  -0.00225   1.83213
    A3        1.83443  -0.00064   0.00164  -0.00412  -0.00253   1.83190
    A4        2.00151  -0.00016   0.00273   0.00161   0.00427   2.00578
    A5        2.00163  -0.00012   0.00281   0.00179   0.00454   2.00617
    A6        2.00238  -0.00199   0.00150  -0.01392  -0.01249   1.98989
    A7        2.03738  -0.00192  -0.00791  -0.00947  -0.01738   2.02000
    A8        1.93878   0.00127   0.00384   0.00937   0.01313   1.95191
    A9        1.88871   0.00163  -0.00162   0.01326   0.01154   1.90025
   A10        1.93856   0.00116   0.00379   0.00846   0.01218   1.95074
   A11        1.90175  -0.00119  -0.00010  -0.00813  -0.00832   1.89342
   A12        1.89374  -0.00178  -0.00585  -0.01535  -0.02125   1.87249
   A13        1.90173  -0.00118  -0.00011  -0.00816  -0.00835   1.89337
    D1       -3.14098   0.00012   0.00013   0.00563   0.00577  -3.13521
    D2        1.06046  -0.00130   0.00180  -0.00418  -0.00238   1.05808
    D3       -1.05908   0.00156  -0.00143   0.01553   0.01411  -1.04497
    D4       -1.05430   0.00037   0.00126   0.00852   0.00981  -1.04448
    D5       -3.14120   0.00004   0.00010   0.00456   0.00465  -3.13655
    D6        1.05523  -0.00024  -0.00102   0.00117   0.00012   1.05535
         Item               Value     Threshold  Converged?
 Maximum Force            0.012598     0.000450     NO 
 RMS     Force            0.002787     0.000300     NO 
 Maximum Displacement     0.043368     0.001800     NO 
 RMS     Displacement     0.017179     0.001200     NO 
 Predicted change in Energy=-4.416043D-04
 GradGradGradGradGradGradGradGradGradGradGradGradGradGradGradGradGradGrad

 Leave Link  103 at Tue Apr  7 09:39:14 2020, MaxMem=13421772800 cpu:       0.1
 (Enter /opt/g09gh/gaussian/g09/l202.exe)
                          Input orientation:                          
 ---------------------------------------------------------------------
 Center     Atomic      Atomic             Coordinates (Angstroms)
 Number     Number       Type             X           Y           Z
 ---------------------------------------------------------------------
      1         15           0        0.522785    0.001923   -0.074252
      2          8           0       -0.939751   -0.002293    0.807342
      3          8           0        1.547420   -0.009829    1.062066
      4          8           0        0.485488    1.295573   -0.897627
      5          8           0        0.479352   -1.277391   -0.919436
      6          6           0       -2.111692   -0.001371    0.040991
      7          1           0       -2.174459    0.884291   -0.610345
      8          1           0       -2.977530    0.000923    0.716057
      9          1           0       -2.176613   -0.889326   -0.606996
 ---------------------------------------------------------------------
                    Distance matrix (angstroms):
                    1          2          3          4          5
     1  P    0.000000
     2  O    1.707700   0.000000
     3  O    1.530109   2.500193   0.000000
     4  O    1.533907   2.573458   2.583055   0.000000
     5  O    1.533906   2.573226   2.583376   2.573064   0.000000
     6  C    2.636998   1.400264   3.798916   3.050968   3.043708
     7  H    2.888096   2.078551   4.177176   2.706843   3.436732
     8  H    3.588425   2.039824   4.538172   4.033929   4.032240
     9  H    2.892213   2.077741   4.174651   3.456159   2.702289
                    6          7          8          9
     6  C    0.000000
     7  H    1.101170   0.000000
     8  H    1.097905   1.784546   0.000000
     9  H    1.101167   1.773622   1.784512   0.000000
 Stoichiometry    CH3O4P(2-)
 Framework group  C1[X(CH3O4P)]
 Deg. of freedom    21
 Full point group                 C1      NOp   1
 Largest Abelian subgroup         C1      NOp   1
 Largest concise Abelian subgroup C1      NOp   1
                         Standard orientation:                         
 ---------------------------------------------------------------------
 Center     Atomic      Atomic             Coordinates (Angstroms)
 Number     Number       Type             X           Y           Z
 ---------------------------------------------------------------------
      1         15           0        0.515786   -0.052036    0.000384
      2          8           0       -0.955646    0.814624   -0.004604
      3          8           0        1.528793    1.094715    0.004072
      4          8           0        0.488665   -0.886407   -1.286456
      5          8           0        0.479175   -0.887022    1.286590
      6          6           0       -2.119728    0.036397   -0.000716
      7          1           0       -2.174636   -0.622838   -0.881040
      8          1           0       -2.992384    0.702570   -0.009726
      9          1           0       -2.179290   -0.604861    0.892485
 ---------------------------------------------------------------------
 Rotational constants (GHZ):      4.5604060      2.6022782      2.5790137
 Leave Link  202 at Tue Apr  7 09:39:14 2020, MaxMem=13421772800 cpu:       0.1
 (Enter /opt/g09gh/gaussian/g09/l301.exe)
 Standard basis: 6-31G(d) (6D, 7F)
 Ernie: Thresh=  0.10000D-02 Tol=  0.10000D-05 Strict=F.
 There are   100 symmetry adapted basis functions of A   symmetry.
 Integral buffers will be    131072 words long.
 Raffenetti 2 integral format.
 Two-electron integral symmetry is turned on.
   100 basis functions,   204 primitive gaussians,   100 cartesian basis functions
    29 alpha electrons       29 beta electrons
       nuclear repulsion energy       334.3430817036 Hartrees.
 IExCor= 4639 DFT=T Ex+Corr=wB97XD ExCW=0 ScaHFX=  1.000000
 ScaDFX=  1.000000  1.000000  1.000000  1.000000 ScalE2=  1.000000  1.000000
 IRadAn=      0 IRanWt=     -1 IRanGd=            0 ICorTp=0
  HFx wShort=  0.000000 wLong=  0.200000 cFull=  0.222036 cShort=  0.000000 cLong=  0.777964
  DFx wShort=  0.000000 wLong=  0.200000 cFull=  0.000000 cShort=  0.000000 cLong=  1.000000
 NAtoms=    9 NActive=    9 NUniq=    9 SFac= 7.50D-01 NAtFMM=   80 NAOKFM=F Big=F
 R6Disp: Dispersion energy =        -0.0024798042 Hartrees.
 Nuclear repulsion after empirical dispersion term =      334.3406018995 Hartrees.
 ------------------------------------------------------------------------------
 Polarizable Continuum Model (PCM)
 =================================
 Model                : PCM.
 Atomic radii         : UFF (Universal Force Field).
 Polarization charges : Total charges.
 Charge compensation  : None.
 Solution method      : Matrix inversion.
 Cavity type          : Scaled VdW (van der Waals Surface) (Alpha=1.100).
 Cavity algorithm     : GePol (No added spheres)
                        Default sphere list used, NSphG=    9.
                        Lebedev-Laikov grids with approx.  5.0 points / Ang**2.
                        Smoothing algorithm: Karplus/York (Gamma=1.0000).
                        Polarization charges: spherical gaussians, with
                                              point-specific exponents (IZeta= 3).
                        Self-potential: point-specific (ISelfS= 7).
                        Self-field    : sphere-specific E.n sum rule (ISelfD= 2).
[...]
 Coeff:     -0.702D-01 0.833D-01 0.101D+01
 Gap=     0.454 Goal=   None    Shift=    0.000
 RMSDP=7.80D-09 MaxDP=1.44D-07 DE= 1.14D-13 OVMax= 1.83D-07

 Error on total polarization charges =  0.00768
 SCF Done:  E(RwB97XD) =  -682.365619003     A.U. after   15 cycles
             Convg  =    0.7802D-08             -V/T =  2.0061
 KE= 6.782002831090D+02 PE=-2.309879877061D+03 EE= 6.149072339210D+02
 Leave Link  502 at Tue Apr  7 09:40:55 2020, MaxMem=13421772800 cpu:      85.9
 (Enter /opt/g09gh/gaussian/g09/l701.exe)
 Compute integral first derivatives.
 ... and contract with generalized density number  0.
 R6Disp: Adding dispersion energy 1st derivatives to the gradient.
 D1PCM: PCM CHGder 1st derivatives, ID1Alg=3 FixD1E=F DoIter=F DoCFld=F I1PDM=0.
 GePol: Maximum number of non-zero 1st derivatives   =     233
 Leave Link  701 at Tue Apr  7 09:40:56 2020, MaxMem=13421772800 cpu:       3.5
 (Enter /opt/g09gh/gaussian/g09/l702.exe)
 L702 exits ... SP integral derivatives will be done elsewhere.
 Leave Link  702 at Tue Apr  7 09:40:56 2020, MaxMem=13421772800 cpu:       0.1
 (Enter /opt/g09gh/gaussian/g09/l703.exe)
 Compute integral first derivatives, UseDBF=F ICtDFT=           0.
 Integral derivatives from FoFDir, PRISM(SPDF).
 Calling FoFJK, ICntrl=      2127 FMM=F ISym2X=0 I1Cent= 0 IOpClX= 0 NMat=1 NMatS=1 NMatT=0.
 FoFJK:  IHMeth= 1 ICntrl=  2127 DoSepK=T KAlg= 1 I1Cent= 0 FoldK=F
 FoFCou: FMM=F IPFlag=           0 FMFlag=      100000 FMFlg1=         800
         NFxFlg=           0 DoJE=F BraDBF=F KetDBF=F FulRan=T
         Omega=  0.000000  0.000000  1.000000  0.000000  0.000000 ICntrl=    2527 IOpCl=  0
         NMat0=    1 NMatS0=    1 NMatT0=    0 NMatD0=    1 NMtDS0=    0 NMtDT0=    0
         I1Cent=           0 NGrid=           0.
 Symmetry not used in FoFCou.
 Leave Link  703 at Tue Apr  7 09:40:57 2020, MaxMem=13421772800 cpu:       8.1
 (Enter /opt/g09gh/gaussian/g09/l716.exe)
 Dipole        =-2.84467455D+00 1.60688374D-01-4.08433514D-03
 ***** Axes restored to original set *****
 -------------------------------------------------------------------
 Center     Atomic                   Forces (Hartrees/Bohr)
 Number     Number              X              Y              Z
 -------------------------------------------------------------------
      1       15           0.000016812    0.000027775    0.000155075
      2        8           0.000142925    0.000017810   -0.000070424
      3        8           0.000081901   -0.000052803    0.000165039
      4        8          -0.000084063    0.000157619   -0.000023781
      5        8          -0.000121950   -0.000028739   -0.000181728
      6        6          -0.000002987   -0.000116749   -0.000018069
      7        1          -0.000014838   -0.000004851   -0.000025778
      8        1           0.000017023    0.000004818    0.000007607
      9        1          -0.000034824   -0.000004881   -0.000007940
 -------------------------------------------------------------------
 Cartesian Forces:  Max     0.000181728 RMS     0.000082839
 Leave Link  716 at Tue Apr  7 09:40:57 2020, MaxMem=13421772800 cpu:       0.2
 (Enter /opt/g09gh/gaussian/g09/l103.exe)

 GradGradGradGradGradGradGradGradGradGradGradGradGradGradGradGradGradGrad
 Berny optimization.
 Using GEDIIS/GDIIS optimizer.
 Internal  Forces:  Max     0.000196049 RMS     0.000100677
 Search for a local minimum.
 Step number  11 out of a maximum of  100
 All quantities printed in internal units (Hartrees-Bohrs-Radians)
 RMS Force = .10068D-03 SwitMx=.10000D-02 MixMth= 2
 Mixed Optimization -- En-DIIS/RFO-DIIS
 Update second derivatives using D2CorX and points    1    2    3    4    5
                                                      6    8    7   10   11
                                                      9
 Use linear search instead of GDIIS.
 Quartic linear search produced a step of -0.83409.
 Iteration  1 RMS(Cart)=  0.00077641 RMS(Int)=  0.00000032
 Iteration  2 RMS(Cart)=  0.00000035 RMS(Int)=  0.00000001
 Variable       Old X    -DE/DX   Delta X   Delta X   Delta X     New X
                                 (Linear)    (Quad)   (Total)
    R1        3.24244  -0.00015  -0.00038   0.00000  -0.00038   3.24206
    R2        2.88633   0.00018   0.00013   0.00000   0.00013   2.88646
    R3        2.89254   0.00014   0.00039   0.00000   0.00039   2.89293
    R4        2.89254   0.00014   0.00037   0.00000   0.00037   2.89291
    R5        2.64453   0.00006   0.00005   0.00000   0.00005   2.64458
    R6        2.08030   0.00002   0.00000   0.00000   0.00000   2.08030
    R7        2.07520  -0.00001  -0.00004   0.00000  -0.00004   2.07516
    R8        2.08019   0.00000  -0.00004   0.00000  -0.00004   2.08014
    A1        1.75840  -0.00005   0.00025   0.00000   0.00025   1.75865
    A2        1.82669  -0.00015  -0.00036   0.00000  -0.00036   1.82632
    A3        1.82621  -0.00017  -0.00029   0.00000  -0.00029   1.82592
    A4        2.00544   0.00013   0.00038   0.00000   0.00038   2.00582
    A5        2.00610   0.00016   0.00039   0.00000   0.00039   2.00649
    A6        2.00117   0.00000  -0.00046   0.00000  -0.00046   2.00071
    A7        2.01979   0.00002   0.00028   0.00000   0.00028   2.02007
    A8        1.95135   0.00005   0.00010   0.00000   0.00010   1.95146
    A9        1.90238  -0.00004  -0.00032   0.00000  -0.00032   1.90206
   A10        1.95098   0.00003  -0.00012   0.00000  -0.00012   1.95086
   A11        1.89047  -0.00001   0.00005   0.00000   0.00005   1.89053
   A12        1.87631  -0.00003   0.00034   0.00000   0.00034   1.87666
   A13        1.89047  -0.00001  -0.00005   0.00000  -0.00005   1.89042
    D1       -3.12666   0.00011  -0.00079   0.00000  -0.00079  -3.12744
    D2        1.07054   0.00004  -0.00118   0.00000  -0.00118   1.06937
    D3       -1.04013   0.00020  -0.00036   0.00000  -0.00036  -1.04049
    D4       -1.03101   0.00008  -0.00082   0.00000  -0.00082  -1.03183
    D5       -3.12046   0.00009  -0.00074   0.00000  -0.00074  -3.12120
    D6        1.07352   0.00010  -0.00039   0.00000  -0.00039   1.07312
         Item               Value     Threshold  Converged?
 Maximum Force            0.000196     0.000450     YES
 RMS     Force            0.000101     0.000300     YES
 Maximum Displacement     0.001516     0.001800     YES
 RMS     Displacement     0.000776     0.001200     YES
 Predicted change in Energy=-6.353716D-07
 Optimization completed.
    -- Stationary point found.
                           ----------------------------
                           !   Optimized Parameters   !
                           ! (Angstroms and Degrees)  !
 --------------------------                            --------------------------
 ! Name  Definition              Value          Derivative Info.                !
 --------------------------------------------------------------------------------
 ! R1    R(1,2)                  1.7158         -DE/DX =   -0.0002              !
 ! R2    R(1,3)                  1.5274         -DE/DX =    0.0002              !
 ! R3    R(1,4)                  1.5307         -DE/DX =    0.0001              !
 ! R4    R(1,5)                  1.5307         -DE/DX =    0.0001              !
 ! R5    R(2,6)                  1.3994         -DE/DX =    0.0001              !
 ! R6    R(6,7)                  1.1008         -DE/DX =    0.0                 !
 ! R7    R(6,8)                  1.0981         -DE/DX =    0.0                 !
 ! R8    R(6,9)                  1.1008         -DE/DX =    0.0                 !
 ! A1    A(2,1,3)              100.7489         -DE/DX =    0.0                 !
 ! A2    A(2,1,4)              104.6613         -DE/DX =   -0.0001              !
 ! A3    A(2,1,5)              104.6344         -DE/DX =   -0.0002              !
 ! A4    A(3,1,4)              114.9032         -DE/DX =    0.0001              !
 ! A5    A(3,1,5)              114.9408         -DE/DX =    0.0002              !
 ! A6    A(4,1,5)              114.6585         -DE/DX =    0.0                 !
 ! A7    A(1,2,6)              115.7255         -DE/DX =    0.0                 !
 ! A8    A(2,6,7)              111.8043         -DE/DX =    0.0                 !
 ! A9    A(2,6,8)              108.9981         -DE/DX =    0.0                 !
 ! A10   A(2,6,9)              111.7828         -DE/DX =    0.0                 !
 ! A11   A(7,6,8)              108.3162         -DE/DX =    0.0                 !
 ! A12   A(7,6,9)              107.5048         -DE/DX =    0.0                 !
 ! A13   A(8,6,9)              108.316          -DE/DX =    0.0                 !
 ! D1    D(3,1,2,6)           -179.1444         -DE/DX =    0.0001              !
 ! D2    D(4,1,2,6)             61.3376         -DE/DX =    0.0                 !
 ! D3    D(5,1,2,6)            -59.5949         -DE/DX =    0.0002              !
 ! D4    D(1,2,6,7)            -59.0722         -DE/DX =    0.0001              !
 ! D5    D(1,2,6,8)           -178.7889         -DE/DX =    0.0001              !
 ! D6    D(1,2,6,9)             61.5081         -DE/DX =    0.0001              !
 --------------------------------------------------------------------------------
 GradGradGradGradGradGradGradGradGradGradGradGradGradGradGradGradGradGrad

 Largest change from initial coordinates is atom    4       1.508 Angstoms.
 Leave Link  103 at Tue Apr  7 09:40:57 2020, MaxMem=13421772800 cpu:       0.1
 (Enter /opt/g09gh/gaussian/g09/l202.exe)
                          Input orientation:                          
 ---------------------------------------------------------------------
 Center     Atomic      Atomic             Coordinates (Angstroms)
 Number     Number       Type             X           Y           Z
 ---------------------------------------------------------------------
      1         15           0        0.528415    0.004904   -0.079270
      2          8           0       -0.941003   -0.002001    0.806635
      3          8           0        1.547137   -0.016504    1.058551
      4          8           0        0.489057    1.305890   -0.884771
      5          8           0        0.476931   -1.270779   -0.923616
      6          6           0       -2.112136   -0.004324    0.040584
      7          1           0       -2.169753    0.873683   -0.620967
      8          1           0       -2.979631    0.013222    0.713691
      9          1           0       -2.184017   -0.901590   -0.593039
 ---------------------------------------------------------------------
                    Distance matrix (angstroms):
                    1          2          3          4          5
     1  P    0.000000
     2  O    1.715828   0.000000
     3  O    1.527380   2.500903   0.000000
     4  O    1.530668   2.572256   2.577743   0.000000
     5  O    1.530666   2.571789   2.578282   2.576990   0.000000
     6  C    2.643287   1.399426   3.798248   3.056002   3.039220
     7  H    2.885884   2.077185   4.174744   2.706597   3.419832
     8  H    3.596560   2.040802   4.539982   4.032104   4.034507
     9  H    2.905681   2.076880   4.175242   3.478994   2.706700
                    6          7          8          9
     6  C    0.000000
     7  H    1.100847   0.000000
     8  H    1.098147   1.782584   0.000000
     9  H    1.100787   1.775550   1.782533   0.000000
 Stoichiometry    CH3O4P(2-)
 Framework group  C1[X(CH3O4P)]
 Deg. of freedom    21
 Full point group                 C1      NOp   1
 Largest Abelian subgroup         C1      NOp   1
 Largest concise Abelian subgroup C1      NOp   1
                         Standard orientation:                         
 ---------------------------------------------------------------------
 Center     Atomic      Atomic             Coordinates (Angstroms)
 Number     Number       Type             X           Y           Z
 ---------------------------------------------------------------------
      1         15           0        0.520208   -0.055671    0.000872
      2          8           0       -0.959163    0.813464   -0.010498
      3          8           0        1.525890    1.093858    0.009565
      4          8           0        0.495004   -0.880276   -1.288445
      5          8           0        0.473356   -0.882034    1.288454
      6          6           0       -2.121548    0.034250   -0.001414
      7          1           0       -2.168274   -0.640526   -0.869952
      8          1           0       -2.996534    0.697120   -0.031921
      9          1           0       -2.189717   -0.587123    0.904665
 ---------------------------------------------------------------------
 Rotational constants (GHZ):      4.5689113      2.5966924      2.5805671
 Leave Link  202 at Tue Apr  7 09:40:57 2020, MaxMem=13421772800 cpu:       0.0
 (Enter /opt/g09gh/gaussian/g09/l601.exe)
 Copying SCF densities to generalized density rwf, IOpCl= 0 IROHF=0.

 **********************************************************************

            Population analysis using the SCF density.

 **********************************************************************

 Orbital symmetries:
       Occupied  (A) (A) (A) (A) (A) (A) (A) (A) (A) (A) (A) (A)
                 (A) (A) (A) (A) (A) (A) (A) (A) (A) (A) (A) (A)
                 (A) (A) (A) (A) (A)
       Virtual   (A) (A) (A) (A) (A) (A) (A) (A) (A) (A) (A) (A)
                 (A) (A) (A) (A) (A) (A) (A) (A) (A) (A) (A) (A)
                 (A) (A) (A) (A) (A) (A) (A) (A) (A) (A) (A) (A)
                 (A) (A) (A) (A) (A) (A) (A) (A) (A) (A) (A) (A)
                 (A) (A) (A) (A) (A) (A) (A) (A) (A) (A) (A) (A)
                 (A) (A) (A) (A) (A) (A) (A) (A) (A) (A) (A)
 The electronic state is 1-A.
 Alpha  occ. eigenvalues --  -77.25246 -19.20844 -19.12730 -19.12728 -19.12722
 Alpha  occ. eigenvalues --  -10.30286  -6.65941  -4.81068  -4.80711  -4.80700
 Alpha  occ. eigenvalues --   -1.06841  -0.98868  -0.92326  -0.92217  -0.73435
 Alpha  occ. eigenvalues --   -0.55808  -0.49409  -0.48995  -0.46175  -0.39880
 Alpha  occ. eigenvalues --   -0.39220  -0.36941  -0.31490  -0.30711  -0.30491
 Alpha  occ. eigenvalues --   -0.30214  -0.26793  -0.25982  -0.23536
 Alpha virt. eigenvalues --    0.21875   0.25281   0.27459   0.27511   0.28870
 Alpha virt. eigenvalues --    0.34900   0.36010   0.37079   0.47714   0.49427
 Alpha virt. eigenvalues --    0.55255   0.56026   0.66449   0.69201   0.74631
 Alpha virt. eigenvalues --    0.85153   0.88390   0.94442   0.94979   0.98759
 Alpha virt. eigenvalues --    0.99623   0.99910   1.04868   1.08910   1.14111
 Alpha virt. eigenvalues --    1.14375   1.19158   1.20975   1.22041   1.22295
 Alpha virt. eigenvalues --    1.26389   1.28987   1.33337   1.36867   1.39005
 Alpha virt. eigenvalues --    1.41386   1.53444   1.53670   1.64003   1.69877
 Alpha virt. eigenvalues --    1.75161   1.80456   1.93824   1.96793   1.99956
 Alpha virt. eigenvalues --    2.00499   2.01437   2.01552   2.02033   2.04685
 Alpha virt. eigenvalues --    2.13245   2.21024   2.24859   2.27119   2.30185
 Alpha virt. eigenvalues --    2.30383   2.48087   2.48227   2.50645   2.56098
 Alpha virt. eigenvalues --    2.64437   2.87506   2.93900   3.00326   3.02530
 Alpha virt. eigenvalues --    3.69394   3.88208   3.90719   4.07146   4.13991
 Alpha virt. eigenvalues --    4.37891
          Condensed to atoms (all electrons):
              1          2          3          4          5          6
     1  P   12.471052   0.172093   0.516776   0.502649   0.501361  -0.023829
     2  O    0.172093   8.429715  -0.042874  -0.038302  -0.038592   0.257066
     3  O    0.516776  -0.042874   8.415120  -0.047407  -0.047311   0.000644
     4  O    0.502649  -0.038302  -0.047407   8.431474  -0.048129  -0.006498
     5  O    0.501361  -0.038592  -0.047311  -0.048129   8.432863  -0.005012
     6  C   -0.023829   0.257066   0.000644  -0.006498  -0.005012   4.901583
     7  H   -0.001884  -0.043370  -0.000052   0.014017  -0.001155   0.356828
     8  H    0.000044  -0.039114  -0.000066   0.000064   0.000106   0.379796
     9  H   -0.002002  -0.043598  -0.000049  -0.000923   0.013398   0.358457
              7          8          9
     1  P   -0.001884   0.000044  -0.002002
     2  O   -0.043370  -0.039114  -0.043598
     3  O   -0.000052  -0.000066  -0.000049
     4  O    0.014017   0.000064  -0.000923
     5  O   -0.001155   0.000106   0.013398
     6  C    0.356828   0.379796   0.358457
     7  H    0.643156  -0.039419  -0.050289
     8  H   -0.039419   0.605180  -0.039619
     9  H   -0.050289  -0.039619   0.642242
 Mulliken atomic charges:
              1
     1  P    0.863740
     2  O   -0.613023
     3  O   -0.794782
     4  O   -0.806947
     5  O   -0.807529
     6  C   -0.219036
     7  H    0.122167
     8  H    0.133028
     9  H    0.122382
 Sum of Mulliken atomic charges =  -2.00000
 Mulliken charges with hydrogens summed into heavy atoms:
              1
     1  P    0.863740
     2  O   -0.613023
     3  O   -0.794782
     4  O   -0.806947
     5  O   -0.807529
     6  C    0.158540
 Sum of Mulliken charges with hydrogens summed into heavy atoms =  -2.00000
 Electronic spatial extent (au):  <R**2>=            610.1603
 Charge=             -2.0000 electrons
 Dipole moment (field-independent basis, Debye):
    X=             -7.2304    Y=              0.4084    Z=             -0.0104  Tot=              7.2420
 Quadrupole moment (field-independent basis, Debye-Ang):
   XX=            -53.2509   YY=            -56.8812   ZZ=            -57.3046
   XY=             -1.7128   XZ=              0.0398   YZ=             -0.0116
 Traceless Quadrupole moment (field-independent basis, Debye-Ang):
   XX=              2.5613   YY=             -1.0690   ZZ=             -1.4923
   XY=             -1.7128   XZ=              0.0398   YZ=             -0.0116
 Octapole moment (field-independent basis, Debye-Ang**2):
  XXX=            -16.8072  YYY=              0.3203  ZZZ=              0.0114  XYY=             -8.1883
  XXY=             -8.9629  XXZ=              0.0054  XZZ=             -6.3031  YZZ=             11.6986
  YYZ=             -0.0678  XYZ=             -0.1635
 Hexadecapole moment (field-independent basis, Debye-Ang**3):
 XXXX=           -439.7656 YYYY=           -190.1264 ZZZZ=           -198.5847 XXXY=            -19.5031
 XXXZ=              0.1310 YYYX=             -4.6837 YYYZ=             -0.0145 ZZZX=              0.1013
 ZZZY=             -0.0097 XXYY=           -113.3488 XXZZ=           -105.2301 YYZZ=            -68.8403
 XXYZ=             -0.2564 YYXZ=              0.0461 ZZXY=              5.6903
 N-N= 3.344067410285D+02 E-N=-2.309879876557D+03  KE= 6.782002831090D+02
 No NMR shielding tensors so no spin-rotation constants.
 Leave Link  601 at Tue Apr  7 09:40:57 2020, MaxMem=13421772800 cpu:       0.9
 (Enter /opt/g09gh/gaussian/g09/l9999.exe)
 1\1\GINC-NODE37\FOpt\RwB97XD\6-31G(d)\C1H3O4P1(2-)\BDW2292\07-Apr-2020
 \0\\#P opt=(maxcycle=400) wB97XD/6-31G* Guess=INDO MaxDisk=150GB SCRF=
 (PCM)\\MonoMethylPhosphate0H Gaussian OPT Calculation on node37.bme.ut
 exas.edu\\-2,1\P,0.528415402,0.004903789,-0.0792696278\O,-0.941002894,
 -0.002001493,0.8066347582\O,1.5471373813,-0.0165035595,1.0585514518\O,
 0.4890568782,1.3058895505,-0.8847708072\O,0.4769307105,-1.2707789965,-
 0.9236156239\C,-2.1121364642,-0.0043235761,0.040583852\H,-2.1697533351
 ,0.8736827678,-0.6209666028\H,-2.9796306264,0.0132215578,0.7136913854\
 H,-2.1840170523,-0.9015900401,-0.5930387858\\Version=EM64L-G09RevA.02\
 State=1-A\HF=-682.365619\RMSD=7.802e-09\RMSF=8.284e-05\Dipole=-2.84265
 76,-0.0092364,0.1929327\Quadrupole=1.8751158,-1.1097469,-0.7653689,0.0
 004517,-1.3039755,-0.0008424\PG=C01 [X(C1H3O4P1)]\\@


 MISERY NO LONGER LOVES COMPANY.  NOWADAYS IT INSISTS ON IT.

                                              -- BAKER'S LAW
 Job cpu time:  0 days  0 hours 16 minutes 42.6 seconds.
 File lengths (MBytes):  RWF=     51 Int=      0 D2E=      0 Chk=      3 Scr=      1
 Normal termination of Gaussian 09 at Tue Apr  7 09:40:57 2020.
