Generated by Psi4
        SP                        DF-MP2                      6-311G**
Number of atoms                            I               14
Charge                                     I                0
Multiplicity                               I                1
Number of electrons                        I               66
Number of alpha electrons                  I               33
Number of beta electrons                   I               33
Number of basis functions                  I              176
Number of independent functions            I              176
Atomic numbers                             I   N=          14
          15           8           8           8           8           6
           6           1           1           1           1           1
           1           1
Nuclear charges                            R   N=          14
  1.50000000e+01  8.00000000e+00  8.00000000e+00  8.00000000e+00  8.00000000e+00
  6.00000000e+00  6.00000000e+00  1.00000000e+00  1.00000000e+00  1.00000000e+00
  1.00000000e+00  1.00000000e+00  1.00000000e+00  1.00000000e+00
Current cartesian coordinates              R   N=          42
 -7.56909311e-02  9.09696829e-01  1.43360416e-01  1.92328644e+00 -8.87043479e-01
  1.51998240e+00 -1.83619119e+00 -9.84158068e-01 -1.43794506e+00  1.48496386e+00
  2.17059511e+00 -2.13536515e+00 -1.33983583e+00  2.66880038e+00  1.87751430e+00
  3.41146218e+00 -2.61887790e+00  8.09000681e-02 -3.57289607e+00 -2.51425038e+00
 -4.35195526e-02  2.20449408e+00 -3.91043178e+00 -9.93253696e-01  4.53892909e+00
 -3.68339144e+00  1.43742919e+00  4.65402776e+00 -1.59687465e+00 -1.21592544e+00
 -4.83549126e+00 -1.32977628e+00  1.08378214e+00 -2.55759158e+00 -3.82289680e+00
  1.19808674e+00 -4.65756797e+00 -3.57896909e+00 -1.43414907e+00  1.21604366e+00
  3.97626598e+00 -2.13669990e+00
Integer atomic weights                     I   N=          14
          30          15          15          15          15          12
          12           1           1           1           1           1
           1           1
Real atomic weights                        R   N=          14
  3.09737620e+01  1.59949146e+01  1.59949146e+01  1.59949146e+01  1.59949146e+01
  1.20000000e+01  1.20000000e+01  1.00782503e+00  1.00782503e+00  1.00782503e+00
  1.00782503e+00  1.00782503e+00  1.00782503e+00  1.00782503e+00
Number of primitive shells                 I              167
Number of contracted shells                I               88
Pure/Cartesian d shells                    I                0
Pure/Cartesian f shells                    I                0
Highest angular momentum                   I                2
Largest degree of contraction              I                6
Shell types                                I   N=          88
           0           0           0           0           0           0
           1           1           1           1           1          -2
           0           0           1           0           1           0
           1          -2           0           0           1           0
           1           0           1          -2           0           0
           1           0           1           0           1          -2
           0           0           1           0           1           0
           1          -2           0           0           1           0
           1           0           1          -2           0           0
           1           0           1           0           1          -2
           0           0           0           1           0           0
           0           1           0           0           0           1
           0           0           0           1           0           0
           0           1           0           0           0           1
           0           0           0           1
Number of primitives per shell             I   N=          88
           6           3           1           1           1           1
           4           2           1           1           1           1
           6           3           3           1           1           1
           1           1           6           3           3           1
           1           1           1           1           6           3
           3           1           1           1           1           1
           6           3           3           1           1           1
           1           1           6           3           3           1
           1           1           1           1           6           3
           3           1           1           1           1           1
           3           1           1           1           3           1
           1           1           3           1           1           1
           3           1           1           1           3           1
           1           1           3           1           1           1
           3           1           1           1
Shell to atom map                          I   N=          88
           1           1           1           1           1           1
           1           1           1           1           1           1
           2           2           2           2           2           2
           2           2           3           3           3           3
           3           3           3           3           4           4
           4           4           4           4           4           4
           5           5           5           5           5           5
           5           5           6           6           6           6
           6           6           6           6           7           7
           7           7           7           7           7           7
           8           8           8           8           9           9
           9           9          10          10          10          10
          11          11          11          11          12          12
          12          12          13          13          13          13
          14          14          14          14
Primitive exponents                        R   N=         167
  7.74924000e+04  1.16058000e+04  2.64596000e+03  7.54976000e+02  2.48755000e+02
  9.11565000e+01  9.11565000e+01  3.62257000e+01  1.52113000e+01  4.79417000e+00
  1.80793000e+00  3.56816000e-01  1.14783000e-01  3.84843000e+02  9.05521000e+01
  2.91339000e+01  1.08862000e+01  4.35259000e+00  1.77706000e+00  6.97005000e-01
  2.53532000e-01  6.84930000e-02  5.50000000e-01  8.58850000e+03  1.29723000e+03
  2.99296000e+02  8.73771000e+01  2.56789000e+01  3.74004000e+00  4.21175000e+01
  9.62837000e+00  2.85332000e+00  4.21175000e+01  9.62837000e+00  2.85332000e+00
  9.05661000e-01  9.05661000e-01  2.55611000e-01  2.55611000e-01  1.29200000e+00
  8.58850000e+03  1.29723000e+03  2.99296000e+02  8.73771000e+01  2.56789000e+01
  3.74004000e+00  4.21175000e+01  9.62837000e+00  2.85332000e+00  4.21175000e+01
  9.62837000e+00  2.85332000e+00  9.05661000e-01  9.05661000e-01  2.55611000e-01
  2.55611000e-01  1.29200000e+00  8.58850000e+03  1.29723000e+03  2.99296000e+02
  8.73771000e+01  2.56789000e+01  3.74004000e+00  4.21175000e+01  9.62837000e+00
  2.85332000e+00  4.21175000e+01  9.62837000e+00  2.85332000e+00  9.05661000e-01
  9.05661000e-01  2.55611000e-01  2.55611000e-01  1.29200000e+00  8.58850000e+03
  1.29723000e+03  2.99296000e+02  8.73771000e+01  2.56789000e+01  3.74004000e+00
  4.21175000e+01  9.62837000e+00  2.85332000e+00  4.21175000e+01  9.62837000e+00
  2.85332000e+00  9.05661000e-01  9.05661000e-01  2.55611000e-01  2.55611000e-01
  1.29200000e+00  4.56324000e+03  6.82024000e+02  1.54973000e+02  4.44553000e+01
  1.30290000e+01  1.82773000e+00  2.09642000e+01  4.80331000e+00  1.45933000e+00
  2.09642000e+01  4.80331000e+00  1.45933000e+00  4.83456000e-01  4.83456000e-01
  1.45585000e-01  1.45585000e-01  6.26000000e-01  4.56324000e+03  6.82024000e+02
  1.54973000e+02  4.44553000e+01  1.30290000e+01  1.82773000e+00  2.09642000e+01
  4.80331000e+00  1.45933000e+00  2.09642000e+01  4.80331000e+00  1.45933000e+00
  4.83456000e-01  4.83456000e-01  1.45585000e-01  1.45585000e-01  6.26000000e-01
  3.38650000e+01  5.09479000e+00  1.15879000e+00  3.25840000e-01  1.02741000e-01
  7.50000000e-01  3.38650000e+01  5.09479000e+00  1.15879000e+00  3.25840000e-01
  1.02741000e-01  7.50000000e-01  3.38650000e+01  5.09479000e+00  1.15879000e+00
  3.25840000e-01  1.02741000e-01  7.50000000e-01  3.38650000e+01  5.09479000e+00
  1.15879000e+00  3.25840000e-01  1.02741000e-01  7.50000000e-01  3.38650000e+01
  5.09479000e+00  1.15879000e+00  3.25840000e-01  1.02741000e-01  7.50000000e-01
  3.38650000e+01  5.09479000e+00  1.15879000e+00  3.25840000e-01  1.02741000e-01
  7.50000000e-01  3.38650000e+01  5.09479000e+00  1.15879000e+00  3.25840000e-01
  1.02741000e-01  7.50000000e-01
Contraction coefficients                   R   N=         167
  7.81000147e-04  6.06800114e-03  3.11600059e-02  1.23431023e-01  3.78209071e-01
  5.63262106e-01  1.60255011e-01  6.27647045e-01  2.63849019e-01  1.00000000e+00
  1.00000000e+00  1.00000000e+00  1.00000000e+00  9.20599888e-03  6.98739915e-02
  2.92469964e-01  7.28102911e-01  6.28348873e-01  4.28043913e-01  1.00000000e+00
  1.00000000e+00  1.00000000e+00  1.00000000e+00  1.89515008e-03  1.43859006e-02
  7.07320031e-02  2.40001011e-01  5.94797026e-01  2.80802012e-01  1.13889012e-01
  9.20811101e-01 -3.27447036e-03  3.65113974e-02  2.37152983e-01  8.19701941e-01
  1.00000000e+00  1.00000000e+00  1.00000000e+00  1.00000000e+00  1.00000000e+00
  1.89515008e-03  1.43859006e-02  7.07320031e-02  2.40001011e-01  5.94797026e-01
  2.80802012e-01  1.13889012e-01  9.20811101e-01 -3.27447036e-03  3.65113974e-02
  2.37152983e-01  8.19701941e-01  1.00000000e+00  1.00000000e+00  1.00000000e+00
  1.00000000e+00  1.00000000e+00  1.89515008e-03  1.43859006e-02  7.07320031e-02
  2.40001011e-01  5.94797026e-01  2.80802012e-01  1.13889012e-01  9.20811101e-01
 -3.27447036e-03  3.65113974e-02  2.37152983e-01  8.19701941e-01  1.00000000e+00
  1.00000000e+00  1.00000000e+00  1.00000000e+00  1.00000000e+00  1.89515008e-03
  1.43859006e-02  7.07320031e-02  2.40001011e-01  5.94797026e-01  2.80802012e-01
  1.13889012e-01  9.20811101e-01 -3.27447036e-03  3.65113974e-02  2.37152983e-01
  8.19701941e-01  1.00000000e+00  1.00000000e+00  1.00000000e+00  1.00000000e+00
  1.00000000e+00  1.96665025e-03  1.52306019e-02  7.61269097e-02  2.60801033e-01
  6.16462078e-01  2.21006028e-01  1.14660081e-01  9.19999648e-01 -3.03068213e-03
  4.02486927e-02  2.37593957e-01  8.15853851e-01  1.00000000e+00  1.00000000e+00
  1.00000000e+00  1.00000000e+00  1.00000000e+00  1.96665025e-03  1.52306019e-02
  7.61269097e-02  2.60801033e-01  6.16462078e-01  2.21006028e-01  1.14660081e-01
  9.19999648e-01 -3.03068213e-03  4.02486927e-02  2.37593957e-01  8.15853851e-01
  1.00000000e+00  1.00000000e+00  1.00000000e+00  1.00000000e+00  1.00000000e+00
  2.54938145e-02  1.90373109e-01  8.52161486e-01  1.00000000e+00  1.00000000e+00
  1.00000000e+00  2.54938145e-02  1.90373109e-01  8.52161486e-01  1.00000000e+00
  1.00000000e+00  1.00000000e+00  2.54938145e-02  1.90373109e-01  8.52161486e-01
  1.00000000e+00  1.00000000e+00  1.00000000e+00  2.54938145e-02  1.90373109e-01
  8.52161486e-01  1.00000000e+00  1.00000000e+00  1.00000000e+00  2.54938145e-02
  1.90373109e-01  8.52161486e-01  1.00000000e+00  1.00000000e+00  1.00000000e+00
  2.54938145e-02  1.90373109e-01  8.52161486e-01  1.00000000e+00  1.00000000e+00
  1.00000000e+00  2.54938145e-02  1.90373109e-01  8.52161486e-01  1.00000000e+00
  1.00000000e+00  1.00000000e+00
Coordinates of each shell                  R   N=         264
 -7.56909311e-02  9.09696829e-01  1.43360416e-01 -7.56909311e-02  9.09696829e-01
  1.43360416e-01 -7.56909311e-02  9.09696829e-01  1.43360416e-01 -7.56909311e-02
  9.09696829e-01  1.43360416e-01 -7.56909311e-02  9.09696829e-01  1.43360416e-01
 -7.56909311e-02  9.09696829e-01  1.43360416e-01 -7.56909311e-02  9.09696829e-01
  1.43360416e-01 -7.56909311e-02  9.09696829e-01  1.43360416e-01 -7.56909311e-02
  9.09696829e-01  1.43360416e-01 -7.56909311e-02  9.09696829e-01  1.43360416e-01
 -7.56909311e-02  9.09696829e-01  1.43360416e-01 -7.56909311e-02  9.09696829e-01
  1.43360416e-01  1.92328644e+00 -8.87043479e-01  1.51998240e+00  1.92328644e+00
 -8.87043479e-01  1.51998240e+00  1.92328644e+00 -8.87043479e-01  1.51998240e+00
  1.92328644e+00 -8.87043479e-01  1.51998240e+00  1.92328644e+00 -8.87043479e-01
  1.51998240e+00  1.92328644e+00 -8.87043479e-01  1.51998240e+00  1.92328644e+00
 -8.87043479e-01  1.51998240e+00  1.92328644e+00 -8.87043479e-01  1.51998240e+00
 -1.83619119e+00 -9.84158068e-01 -1.43794506e+00 -1.83619119e+00 -9.84158068e-01
 -1.43794506e+00 -1.83619119e+00 -9.84158068e-01 -1.43794506e+00 -1.83619119e+00
 -9.84158068e-01 -1.43794506e+00 -1.83619119e+00 -9.84158068e-01 -1.43794506e+00
 -1.83619119e+00 -9.84158068e-01 -1.43794506e+00 -1.83619119e+00 -9.84158068e-01
 -1.43794506e+00 -1.83619119e+00 -9.84158068e-01 -1.43794506e+00  1.48496386e+00
  2.17059511e+00 -2.13536515e+00  1.48496386e+00  2.17059511e+00 -2.13536515e+00
  1.48496386e+00  2.17059511e+00 -2.13536515e+00  1.48496386e+00  2.17059511e+00
 -2.13536515e+00  1.48496386e+00  2.17059511e+00 -2.13536515e+00  1.48496386e+00
  2.17059511e+00 -2.13536515e+00  1.48496386e+00  2.17059511e+00 -2.13536515e+00
  1.48496386e+00  2.17059511e+00 -2.13536515e+00 -1.33983583e+00  2.66880038e+00
  1.87751430e+00 -1.33983583e+00  2.66880038e+00  1.87751430e+00 -1.33983583e+00
  2.66880038e+00  1.87751430e+00 -1.33983583e+00  2.66880038e+00  1.87751430e+00
 -1.33983583e+00  2.66880038e+00  1.87751430e+00 -1.33983583e+00  2.66880038e+00
  1.87751430e+00 -1.33983583e+00  2.66880038e+00  1.87751430e+00 -1.33983583e+00
  2.66880038e+00  1.87751430e+00  3.41146218e+00 -2.61887790e+00  8.09000681e-02
  3.41146218e+00 -2.61887790e+00  8.09000681e-02  3.41146218e+00 -2.61887790e+00
  8.09000681e-02  3.41146218e+00 -2.61887790e+00  8.09000681e-02  3.41146218e+00
 -2.61887790e+00  8.09000681e-02  3.41146218e+00 -2.61887790e+00  8.09000681e-02
  3.41146218e+00 -2.61887790e+00  8.09000681e-02  3.41146218e+00 -2.61887790e+00
  8.09000681e-02 -3.57289607e+00 -2.51425038e+00 -4.35195526e-02 -3.57289607e+00
 -2.51425038e+00 -4.35195526e-02 -3.57289607e+00 -2.51425038e+00 -4.35195526e-02
 -3.57289607e+00 -2.51425038e+00 -4.35195526e-02 -3.57289607e+00 -2.51425038e+00
 -4.35195526e-02 -3.57289607e+00 -2.51425038e+00 -4.35195526e-02 -3.57289607e+00
 -2.51425038e+00 -4.35195526e-02 -3.57289607e+00 -2.51425038e+00 -4.35195526e-02
  2.20449408e+00 -3.91043178e+00 -9.93253696e-01  2.20449408e+00 -3.91043178e+00
 -9.93253696e-01  2.20449408e+00 -3.91043178e+00 -9.93253696e-01  2.20449408e+00
 -3.91043178e+00 -9.93253696e-01  4.53892909e+00 -3.68339144e+00  1.43742919e+00
  4.53892909e+00 -3.68339144e+00  1.43742919e+00  4.53892909e+00 -3.68339144e+00
  1.43742919e+00  4.53892909e+00 -3.68339144e+00  1.43742919e+00  4.65402776e+00
 -1.59687465e+00 -1.21592544e+00  4.65402776e+00 -1.59687465e+00 -1.21592544e+00
  4.65402776e+00 -1.59687465e+00 -1.21592544e+00  4.65402776e+00 -1.59687465e+00
 -1.21592544e+00 -4.83549126e+00 -1.32977628e+00  1.08378214e+00 -4.83549126e+00
 -1.32977628e+00  1.08378214e+00 -4.83549126e+00 -1.32977628e+00  1.08378214e+00
 -4.83549126e+00 -1.32977628e+00  1.08378214e+00 -2.55759158e+00 -3.82289680e+00
  1.19808674e+00 -2.55759158e+00 -3.82289680e+00  1.19808674e+00 -2.55759158e+00
 -3.82289680e+00  1.19808674e+00 -2.55759158e+00 -3.82289680e+00  1.19808674e+00
 -4.65756797e+00 -3.57896909e+00 -1.43414907e+00 -4.65756797e+00 -3.57896909e+00
 -1.43414907e+00 -4.65756797e+00 -3.57896909e+00 -1.43414907e+00 -4.65756797e+00
 -3.57896909e+00 -1.43414907e+00  1.21604366e+00  3.97626598e+00 -2.13669990e+00
  1.21604366e+00  3.97626598e+00 -2.13669990e+00  1.21604366e+00  3.97626598e+00
 -2.13669990e+00  1.21604366e+00  3.97626598e+00 -2.13669990e+00
Total Energy                               R     -7.214009706231714e+02
Alpha Orbital Energies                     R   N=         176
 -8.01123406e+01 -2.06053796e+01 -2.05960860e+01 -2.05955208e+01 -2.05123938e+01
 -1.13010093e+01 -1.13008540e+01 -7.63560098e+00 -5.53391231e+00 -5.53347178e+00
 -5.53340471e+00 -1.46451473e+00 -1.39272654e+00 -1.39170872e+00 -1.30547671e+00
 -9.79669307e-01 -9.61301342e-01 -8.25587016e-01 -7.38082577e-01 -7.20121801e-01
 -6.87463442e-01 -6.59555429e-01 -6.45145652e-01 -6.40356847e-01 -6.33221374e-01
 -5.74872938e-01 -5.64271028e-01 -5.42771180e-01 -5.17308189e-01 -4.99728837e-01
 -4.89359927e-01 -4.71379734e-01 -4.64279170e-01  1.41528848e-01  1.56671398e-01
  1.72758394e-01  2.06665600e-01  2.18176592e-01  2.22556806e-01  2.26907314e-01
  2.45673088e-01  2.66206160e-01  2.87672499e-01  2.98573371e-01  3.27934312e-01
  3.81093139e-01  3.97502870e-01  3.99780827e-01  4.26413555e-01  4.58342722e-01
  4.67614651e-01  4.80918346e-01  5.12039120e-01  5.95771393e-01  6.09510168e-01
  6.51357240e-01  6.78378865e-01  7.48513871e-01  7.62073220e-01  7.64949075e-01
  7.70531065e-01  7.82112772e-01  7.87146879e-01  8.59676129e-01  8.75868425e-01
  8.88265744e-01  9.43514739e-01  9.64055230e-01  1.01518166e+00  1.01844378e+00
  1.02365919e+00  1.06372110e+00  1.10752791e+00  1.18113343e+00  1.18936498e+00
  1.19902525e+00  1.21124531e+00  1.25138073e+00  1.28730951e+00  1.31443643e+00
  1.32308412e+00  1.38675280e+00  1.43078049e+00  1.46414833e+00  1.49450516e+00
  1.50886484e+00  1.52503802e+00  1.62887192e+00  1.65107179e+00  1.67906688e+00
  1.68712247e+00  1.70514042e+00  1.71305754e+00  1.72739880e+00  1.73775115e+00
  1.74538650e+00  1.78037506e+00  1.82234731e+00  1.84404575e+00  1.88010149e+00
  1.91064352e+00  1.91983699e+00  1.93187411e+00  1.94838716e+00  1.97206166e+00
  2.08313005e+00  2.16513744e+00  2.24359675e+00  2.26292671e+00  2.26669400e+00
  2.36518075e+00  2.37324281e+00  2.38823455e+00  2.40523619e+00  2.62755026e+00
  2.64629535e+00  2.68319341e+00  2.70992397e+00  2.72581241e+00  2.78114986e+00
  2.79678597e+00  2.79997774e+00  2.81797799e+00  2.82650050e+00  2.84445854e+00
  3.06142223e+00  3.12997331e+00  3.15308691e+00  3.19968275e+00  3.22709977e+00
  3.23356286e+00  3.24535211e+00  3.27361070e+00  3.30978428e+00  3.32461427e+00
  3.39673671e+00  3.42819888e+00  3.44953125e+00  3.48894496e+00  3.50072760e+00
  3.51873615e+00  3.52975940e+00  3.61679549e+00  3.76879890e+00  3.80462625e+00
  3.94774838e+00  4.12373681e+00  4.15405893e+00  4.17189865e+00  4.17824176e+00
  4.20101588e+00  4.36845596e+00  4.41809417e+00  5.33575352e+00  5.35846495e+00
  5.40174608e+00  5.42649511e+00  5.44837814e+00  5.45700451e+00  5.56153456e+00
  5.59054994e+00  5.76918447e+00  5.97228507e+00  5.99438174e+00  6.02239525e+00
  7.65466288e+00  1.48014281e+01  1.48647742e+01  1.50669297e+01  2.49846757e+01
  2.49914108e+01  5.14790116e+01  5.15110316e+01  5.15230789e+01  5.16093101e+01
  1.66178030e+02
Alpha MO coefficients                      R   N=       30976
  4.19271830e-01  6.46641958e-01  1.07542965e-02 -1.06750103e-03  4.58706570e-04
 -1.34921234e-04  3.51933692e-05 -4.31535357e-05 -4.70991454e-05 -1.15890722e-05
  1.55159127e-05  1.57268234e-05  7.14391874e-06 -1.41561329e-05 -1.08702412e-05
 -5.71758048e-06  1.62936259e-05  1.01970089e-05  3.69936157e-06  5.66546408e-05
  9.84620614e-07 -1.24322294e-06 -5.07916674e-06  6.93140359e-06 -2.69673085e-06
 -5.74470214e-06  4.65033001e-07  5.59885695e-08 -3.60285027e-06  2.97585080e-06
 -1.04484549e-06  1.51817406e-05  1.17201080e-05 -9.46352327e-06  2.35060801e-06
 -6.08438219e-05  7.46319746e-06 -9.46060866e-06  4.33414389e-05  1.29318175e-06
 -8.78019226e-06  7.22243436e-06 -8.83272479e-07  1.40351664e-05  5.26081305e-07
 -3.16982937e-07  3.12797364e-06  3.40521719e-06  7.19208211e-07  1.74547423e-05
 -1.01812487e-05 -1.08975976e-05 -1.06867372e-06 -6.33068678e-05  1.16037506e-06
 -6.02573573e-06 -5.02461012e-05 -4.64743315e-09 -7.36955068e-06 -8.97197379e-06
  4.96698288e-07 -1.35483754e-05  3.62830903e-07  3.70565847e-07 -2.90717894e-06
 -1.42623701e-06  3.27903325e-06  1.19335143e-05  9.07947554e-06  3.22438322e-06
 -9.70557690e-06 -4.77225768e-05  2.08162396e-05 -1.80819731e-07 -3.50060407e-05
 -5.27517937e-06  1.43177349e-05  8.59895089e-06  9.87572468e-07 -4.58630558e-06
  5.78786036e-08  1.84592250e-06  2.21685158e-06 -3.95431334e-06 -2.79224976e-06
  8.06875712e-06 -1.22197879e-05  2.00456469e-05  1.58710947e-05 -6.33084430e-05
 -2.18329821e-05  1.98112321e-05  3.17419664e-05 -2.05846472e-06  1.09034311e-05
 -1.48497210e-05  3.20233350e-06  1.03709005e-05 -1.93401608e-07  4.70935596e-07
  1.37924414e-06 -1.71360750e-06  4.81668340e-07 -1.05995289e-05 -3.82744218e-06
  5.94696801e-06 -1.88680840e-06  7.39839022e-05 -3.90780292e-05  3.74818749e-05
 -2.40089444e-05 -6.44290436e-06 -2.07396194e-06  8.28129504e-07 -3.28037111e-07
 -2.97318748e-06 -4.81017995e-08  9.20036829e-09 -2.13378772e-06 -1.98226946e-06
 -1.77849035e-07 -7.61416554e-06  8.32786942e-06  8.00502213e-06  3.36113811e-07
  7.05821520e-05  3.86378101e-05  3.66938504e-05  2.06313837e-05 -6.75908468e-06
 -1.94087589e-06 -2.56589783e-06  3.57262548e-07  3.67380374e-06  1.67094885e-06
 -2.10923334e-05  3.93047853e-06 -3.21965229e-07 -3.59020295e-06  1.45000401e-06
  1.42263149e-07  8.87833873e-06  1.11286180e-05  2.22114783e-07 -2.44650785e-07
 -1.99965654e-06  2.16821575e-06 -2.37702088e-05 -8.49074862e-07  5.36126954e-06
 -2.71780992e-07  5.92870780e-07  1.98104014e-06 -2.05000084e-05  2.65191740e-06
 -3.57493750e-06 -3.22414184e-07 -1.55523357e-06  1.72544026e-06 -2.04891381e-05
  9.78379679e-06 -4.72229730e-08 -2.96606622e-06 -1.29976913e-06 -3.40947564e-08
  1.10204903e-05  7.92383339e-06  1.37234397e-07  3.03280811e-07  2.75202607e-06
 -1.03155284e-06  2.45042259e-05 -1.47014736e-05 -4.24613436e-06 -7.65919127e-06
  7.83309414e-06  3.01340796e-06  6.73226934e-06 -2.67070897e-06 -7.47255577e-05
  6.55170293e-05  5.33437560e-04 -5.00639025e-06 -4.01832690e-06  7.62880675e-06
 -2.24492462e-05 -2.09992329e-05  3.24885209e-05  3.04804364e-05  3.50718746e-05
 -4.01007672e-05  1.15207854e-04  8.64567396e-05 -1.84948622e-04  1.71293783e-04
 -9.53767345e-05 -1.72359127e-04  4.06292212e-05 -6.35284833e-05 -7.42010311e-05
  7.01110214e-06  5.39776327e-05 -4.11100362e-04 -3.53800299e-04  1.88948617e-06
 -4.46259270e-06  2.56654912e-06  2.12596394e-05 -5.60600672e-06  1.90462153e-06
  6.85748108e-06 -1.21368456e-04  1.62409718e-05 -4.51441870e-05  3.74399346e-05
 -1.50438561e-06  5.54727220e-07  1.83597535e-06  3.72459270e-06 -2.02179924e-06
 -4.06129139e-04 -3.49953428e-04 -3.33560618e-06 -9.44938246e-07 -8.75402340e-07
  2.62958366e-05  2.73793603e-06 -1.01414081e-05  7.33993581e-08 -1.65398327e-04
 -6.18960318e-05 -2.22357859e-05  1.24749428e-06  4.26408720e-06  2.24040447e-06
  4.20196324e-06  4.05122577e-08 -2.16456022e-06  5.51445111e-01  4.71654009e-01
 -8.75696095e-04  8.07778970e-04  1.01786164e-03  5.65933503e-03  2.77064444e-04
 -3.38717806e-04 -3.04830670e-04 -7.13215463e-04  6.23470651e-07  1.83050795e-04
 -3.62993538e-05  2.17404019e-05  4.81997822e-05  4.24568772e-05  6.93291223e-05
 -4.94202819e-06 -5.27087850e-05 -4.63595607e-05 -9.31602902e-06  2.78282843e-06
  1.27673524e-05  1.11138973e-05  2.21146322e-05 -1.51062331e-05 -2.89156442e-05
 -1.92284239e-05 -6.94626763e-05  1.12664053e-05  8.94843873e-05 -3.42159624e-06
  4.47464197e-06  3.18937281e-06 -3.89720019e-06 -2.36383090e-06  2.68385761e-07
 -3.92608735e-07  8.69203207e-07  7.66076283e-07 -3.84478227e-06  1.52821149e-05
 -1.71908457e-05 -4.85646443e-06  1.43500790e-05 -9.18450820e-05  2.50609000e-05
 -3.98018954e-05 -5.47598388e-06 -1.98927693e-06 -3.58465984e-07  1.38966927e-05
 -2.44050090e-06  1.33691990e-06 -2.86471778e-08 -1.13390451e-06 -2.65504795e-06
 -1.32817566e-06  2.85789420e-07  5.87431277e-06  1.47530998e-05  7.15107473e-06
  2.35612110e-06 -5.46966129e-05  7.28300824e-06 -6.75755744e-07  8.71199892e-06
 -2.07989254e-06 -6.36617442e-06 -6.11431389e-06  1.63099197e-06  4.03547247e-07
  2.80108705e-06 -3.25778078e-06 -5.34887569e-05  9.16944468e-07 -1.14781069e-05
 -1.08203613e-06 -3.77324281e-07  1.39399801e-05 -5.45135165e-06 -3.82125854e-06
  2.61768072e-06 -3.18340843e-06 -1.68289312e-06  1.51488974e-05  9.56109698e-06
 -1.11994417e-05 -6.55470652e-06  9.31898755e-06  1.67498401e-06 -4.36174610e-06
  6.27727760e-05  3.00788644e-06  4.17689313e-07 -2.26207615e-06  2.90058931e-06
 -1.03426562e-05  1.08288078e-05 -3.27850210e-06 -3.95368139e-06  8.52086800e-09
 -3.30241446e-06  3.32741248e-05 -1.69988699e-05  4.08733835e-06  3.74359817e-06
  5.99729678e-06  1.83266937e-04  7.86882093e-05  4.09418971e-05 -1.29988029e-05
 -7.36062658e-05  3.11967327e-05 -2.96698523e-06 -7.11281068e-06  5.95453870e-06
  6.68124085e-05 -4.92796580e-05 -5.00871289e-04 -5.73666392e-06 -6.73867776e-06
 -5.39807335e-06 -2.78015079e-05 -2.63590899e-05 -1.98789606e-05  4.49440634e-05
  3.03429990e-05  2.95546194e-05  1.06484784e-04  1.42984118e-04  8.75201961e-05
 -2.82896703e-06  1.06199927e-04  1.45645108e-04  3.21852908e-05 -5.23039396e-05
 -5.01399175e-05  3.71430297e-06 -6.87470624e-05  8.32969898e-03  7.12640829e-03
 -8.57846357e-06 -8.25039362e-07 -2.47007650e-05  5.96391470e-05  3.48351722e-06
 -1.41212995e-06  3.32451487e-06  1.13689910e-04 -6.57522384e-05  2.80583145e-06
 -4.78185481e-05  1.41672798e-06  5.24257834e-06  7.04936444e-07  5.14477996e-06
  2.29719260e-06 -5.51386046e-01 -4.71596683e-01  7.71007671e-05 -4.38052655e-05
 -1.53721694e-03 -5.69028114e-03 -7.74072903e-05 -3.19115759e-05  5.32781806e-04
  8.33289370e-04  1.32936096e-05  7.08549489e-06 -4.86758901e-05 -8.54934021e-06
 -4.15798822e-05 -2.73797506e-05  6.83078418e-06  1.18685380e-04 -4.01852319e-04
 -3.40464819e-04 -2.54152578e-06 -5.49904415e-06  2.94547977e-07 -3.62736937e-05
 -3.09304207e-06  9.14802439e-06 -1.15806746e-06  1.52735717e-04 -2.98380179e-05
 -4.93384259e-05  9.50948197e-06 -5.01149375e-06  2.07078704e-06  5.57394848e-07
 -1.89668724e-06  2.30641096e-07  5.28601726e-05  4.73667477e-05 -1.76302626e-06
 -8.74791075e-06 -7.99641655e-06 -2.05516436e-05 -1.51316869e-06  1.72867406e-05
  1.76706352e-05  6.30321963e-05 -1.68559445e-05 -6.86093120e-05 -6.92953361e-05
  1.91316983e-06  2.59079423e-06  4.43266503e-06 -2.88345074e-06  4.31546519e-06
 -3.90124874e-07  1.12987051e-07  1.80177678e-07  1.28519740e-06  3.45742202e-06
 -1.02474701e-05 -2.93464520e-06 -1.11897457e-05 -1.15854569e-05  4.82842338e-05
 -1.54768304e-05  3.11554633e-05 -2.91580662e-06  1.36222045e-06  9.50408945e-06
 -5.17774700e-07 -1.34286517e-06  1.70331122e-06  2.41796896e-06  2.60695127e-05
 -1.55874615e-05 -1.22414507e-05  3.07113275e-05 -8.33369483e-05 -1.44360728e-04
 -1.30803346e-04  4.51807806e-05 -2.68378038e-04 -4.45476120e-05 -2.74860521e-05
  1.53550276e-04  4.42234239e-05  5.25774490e-05  5.12889091e-05 -7.55778950e-06
 -6.57580844e-05  4.40439067e-09 -7.14241573e-06  1.56668669e-05 -7.66385659e-06
 -6.20069765e-06 -2.94718943e-06 -2.20798681e-06  2.52152798e-06 -1.74131248e-06
 -6.79660638e-07 -1.93252481e-06  1.47055942e-06  1.88438847e-07 -1.05217932e-05
  2.46162739e-05 -4.41029352e-06  8.11622571e-07 -2.78919896e-07 -7.33909427e-06
  4.68509829e-05 -2.83302910e-05  4.56909159e-06  1.74679224e-05 -1.81914159e-05
 -6.89421447e-06  4.81772415e-05 -3.96652108e-06  1.91192066e-05  4.67594387e-06
 -1.81081637e-05 -2.04527228e-05  6.43442010e-05  4.93274332e-05 -9.88222282e-06
 -9.46877506e-06 -1.41031922e-05 -3.30259122e-06 -3.80298717e-06  2.47612377e-05
 -3.99847627e-06  5.32210214e-06 -8.04869732e-07  3.08922626e-06  7.55076770e-06
 -7.29899353e-06 -6.67571375e-05  2.96188587e-05  5.81890062e-04 -7.21250707e-06
  7.23105293e-06 -3.45361748e-06 -2.80266076e-05  2.38453905e-05 -1.95433602e-05
  3.59911952e-05 -2.22449058e-05  4.75722941e-05  1.47506335e-04 -1.58372919e-04
  9.54656708e-06  3.75110611e-05 -1.91232597e-04  1.07475691e-04 -3.75214113e-05
  3.94556737e-05 -3.81367204e-05  7.73354396e-06 -6.87903976e-05  5.51384092e-01
  4.71593731e-01 -1.74557040e-04 -1.07270465e-04 -1.51219258e-03  5.70966606e-03
  9.63782246e-06  8.38697551e-05  5.28791418e-04 -8.73138896e-04  1.59736636e-05
 -5.16481268e-06 -4.90790867e-05  9.50149912e-06  3.17500805e-05 -4.56748403e-05
  6.37986162e-06  1.12661767e-04  8.33131955e-03  7.12389968e-03 -8.97014211e-06
  3.07508289e-07  2.17322679e-05  1.08132379e-04  1.38440932e-05  1.17495462e-06
 -1.64105438e-05 -1.16043175e-04 -1.18361185e-04 -1.88948430e-05 -2.00076725e-05
  1.29617410e-07 -7.44923466e-06  1.46518981e-06 -7.06884665e-06 -1.25785594e-06
  4.19064014e-04  3.55608890e-04 -2.40722041e-06  4.33558615e-06 -3.38212108e-06
  3.36602624e-05  4.68149024e-06 -4.90729248e-06 -7.34844233e-07 -1.28545909e-04
 -1.03368848e-05  8.28020934e-05 -6.70846650e-05 -4.41033055e-06 -3.12286667e-06
  5.69909546e-06  3.98321241e-06  1.06535709e-07 -4.81374979e-05 -4.53237512e-05
 -5.01193463e-06  7.98408486e-06 -2.16723338e-06  3.72772415e-05  7.56393898e-06
 -1.85723573e-05  3.58775581e-06 -1.10993166e-04 -3.76402087e-05  6.99726195e-05
 -1.80018956e-05  1.11212126e-06 -1.18366195e-06  1.33445435e-06  5.47721980e-07
  7.49423546e-07 -2.48263527e-06 -2.57019619e-05 -1.17819731e-05  1.80823385e-05
  3.08673792e-05  8.45868628e-05 -1.31820824e-04  1.33140509e-04  4.95796403e-05
  2.63297794e-04 -1.91368866e-05  4.24032759e-05  1.53828814e-04 -4.17845246e-05
 -5.19735040e-05  5.38238160e-05 -6.89799322e-06 -6.24955337e-05  3.24229696e-07
 -1.67648897e-06 -1.70704464e-06  3.87022153e-07 -8.04222102e-07  2.25999071e-05
  1.24913849e-05  4.12080051e-06 -2.55573538e-06 -1.25285617e-04 -6.15945475e-05
 -8.53885009e-05 -3.84722023e-05 -2.68784879e-06 -1.68148991e-06  1.69768557e-06
  4.26655649e-06  3.39496747e-06  8.64938623e-06 -5.78661412e-05  4.76885456e-06
  1.76921913e-05 -1.01038275e-05 -2.02394013e-05  2.01729613e-05 -6.69428457e-05