
    -----------------------------------------------------------------------
          Psi4: An Open-Source Ab Initio Electronic Structure Package
                               Psi4 1.3.2 release

                         Git: Rev {HEAD} ecbda83 


    R. M. Parrish, L. A. Burns, D. G. A. Smith, A. C. Simmonett,
    A. E. DePrince III, E. G. Hohenstein, U. Bozkaya, A. Yu. Sokolov,
    R. Di Remigio, R. M. Richard, J. F. Gonthier, A. M. James,
    H. R. McAlexander, A. Kumar, M. Saitow, X. Wang, B. P. Pritchard,
    P. Verma, H. F. Schaefer III, K. Patkowski, R. A. King, E. F. Valeev,
    F. A. Evangelista, J. M. Turney, T. D. Crawford, and C. D. Sherrill,
    J. Chem. Theory Comput. 13(7) pp 3185--3197 (2017).
    (doi: 10.1021/acs.jctc.7b00174)


                         Additional Contributions by
    P. Kraus, H. Kruse, M. H. Lechner, M. C. Schieber, R. A. Shaw,
    A. Alenaizan, R. Galvelis, Z. L. Glick, S. Lehtola, and J. P. Misiewicz

    -----------------------------------------------------------------------


    Psi4 started on: Thursday, 02 April 2020 11:11AM

    Process ID: 34695
    Host:       node37.bme.utexas.edu
    PSIDATADIR: /home/bdw2292/miniconda3/envs/p4env/share/psi4
    Memory:     500.0 MiB
    Threads:    1
    
  ==> Input File <==

--------------------------------------------------------------------------
molecule { 
0 1
P           -0.040053915798     0.481390830517     0.075863064899
O            1.017759352588    -0.469403193978     0.804340045219
O           -0.971670532386    -0.520794021072    -0.760927758583
O            0.785809032769     1.148629468357    -1.129986576392
O           -0.709010585673     1.412268340758     0.993537780630
C            1.805268039169    -1.385850501055     0.042810472401
C           -1.890695175263    -1.330484001492    -0.023029555472
H            1.166568027841    -2.069311383187    -0.525607220227
H            2.401897836675    -1.949166808794     0.760654766671
H            2.462805427040    -0.845029671474    -0.643440031563
H           -2.558831779163    -0.703687304393     0.573512810756
H           -1.353419178310    -2.022989863731     0.634000199333
H           -2.464678828157    -1.893908881889    -0.758919003778
H            0.643502594299     2.104149340544    -1.130692890892
}
memory 20GB
set_num_threads(4)
psi4_io.set_default_path("/scratch/bdw2292")
set freeze_core True
set PROPERTIES_ORIGIN ["COM"]
E, wfn = properties('mp2/6-311++G(2d,2p)',properties=['dipole'],return_wfn=True)
oeprop(wfn,"GRID_ESP","WIBERG_LOWDIN_INDICES")
clean()
--------------------------------------------------------------------------

  Memory set to  18.626 GiB by Python driver.
  Threads set to 4 by Python driver.
    SCF Algorithm Type (re)set to DF.

*** tstart() called on node37.bme.utexas.edu
*** at Thu Apr  2 11:11:16 2020

   => Loading Basis Set <=

    Name: 6-311++G(2D,2P)
    Role: ORBITAL
    Keyword: BASIS
    atoms 1    entry P          line   409 file /home/bdw2292/miniconda3/envs/p4env/share/psi4/basis/6-311ppg_2d_2p_.gbs 
    atoms 2-5  entry O          line   176 file /home/bdw2292/miniconda3/envs/p4env/share/psi4/basis/6-311ppg_2d_2p_.gbs 
    atoms 6-7  entry C          line   130 file /home/bdw2292/miniconda3/envs/p4env/share/psi4/basis/6-311ppg_2d_2p_.gbs 
    atoms 8-14 entry H          line    45 file /home/bdw2292/miniconda3/envs/p4env/share/psi4/basis/6-311ppg_2d_2p_.gbs 


         ---------------------------------------------------------
                                   SCF
               by Justin Turney, Rob Parrish, Andy Simmonett
                          and Daniel G. A. Smith
                              RHF Reference
                        4 Threads,  19073 MiB Core
         ---------------------------------------------------------

  ==> Geometry <==

    Molecular point group: c1
    Full point group: C1

    Geometry (in Angstrom), charge = 0, multiplicity = 1:

       Center              X                  Y                   Z               Mass       
    ------------   -----------------  -----------------  -----------------  -----------------
         P           -0.040053915798     0.481390830517     0.075863064899    30.973761998420
         O            1.017759352588    -0.469403193978     0.804340045219    15.994914619570
         O           -0.971670532386    -0.520794021072    -0.760927758583    15.994914619570
         O            0.785809032769     1.148629468357    -1.129986576392    15.994914619570
         O           -0.709010585673     1.412268340758     0.993537780630    15.994914619570
         C            1.805268039169    -1.385850501055     0.042810472401    12.000000000000
         C           -1.890695175263    -1.330484001492    -0.023029555472    12.000000000000
         H            1.166568027841    -2.069311383187    -0.525607220227     1.007825032230
         H            2.401897836675    -1.949166808794     0.760654766671     1.007825032230
         H            2.462805427040    -0.845029671474    -0.643440031563     1.007825032230
         H           -2.558831779163    -0.703687304393     0.573512810756     1.007825032230
         H           -1.353419178310    -2.022989863731     0.634000199333     1.007825032230
         H           -2.464678828157    -1.893908881889    -0.758919003778     1.007825032230
         H            0.643502594299     2.104149340544    -1.130692890892     1.007825032230

  Running in c1 symmetry.

  Rotational constants: A =      0.08698  B =      0.07668  C =      0.05737 [cm^-1]
  Rotational constants: A =   2607.66924  B =   2298.88001  C =   1719.96910 [MHz]
  Nuclear repulsion =  454.147966252143306

  Charge       = 0
  Multiplicity = 1
  Electrons    = 66
  Nalpha       = 33
  Nbeta        = 33

  ==> Algorithm <==

  SCF Algorithm Type is DF.
  DIIS enabled.
  MOM disabled.
  Fractional occupation disabled.
  Guess Type is SAD.
  Energy threshold   = 1.00e-10
  Density threshold  = 1.00e-10
  Integral threshold = 0.00e+00

  ==> Primary Basis <==

  Basis Set: 6-311++G(2D,2P)
    Blend: 6-311++G(2D,2P)
    Number of shells: 123
    Number of basis function: 267
    Number of Cartesian functions: 281
    Spherical Harmonics?: true
    Max angular momentum: 2

   => Loading Basis Set <=

    Name: (6-311++G(2D,2P) AUX)
    Role: JKFIT
    Keyword: DF_BASIS_SCF
    atoms 1    entry P          line   644 file /home/bdw2292/miniconda3/envs/p4env/share/psi4/basis/aug-cc-pvtz-jkfit.gbs 
    atoms 2-5  entry O          line   286 file /home/bdw2292/miniconda3/envs/p4env/share/psi4/basis/aug-cc-pvtz-jkfit.gbs 
    atoms 6-7  entry C          line   162 file /home/bdw2292/miniconda3/envs/p4env/share/psi4/basis/aug-cc-pvtz-jkfit.gbs 
    atoms 8-14 entry H          line    70 file /home/bdw2292/miniconda3/envs/p4env/share/psi4/basis/aug-cc-pvtz-jkfit.gbs 

  ==> Pre-Iterations <==

   -------------------------------------------------------
    Irrep   Nso     Nmo     Nalpha   Nbeta   Ndocc  Nsocc
   -------------------------------------------------------
     A        267     267       0       0       0       0
   -------------------------------------------------------
    Total     267     267      33      33      33       0
   -------------------------------------------------------

  ==> Integral Setup <==

  DFHelper Memory: AOs need 0.568 GiB; user supplied 13.970 GiB. Using in-core AOs.

  ==> MemDFJK: Density-Fitted J/K Matrices <==

    J tasked:                   Yes
    K tasked:                   Yes
    wK tasked:                   No
    OpenMP threads:               4
    Memory [MiB]:             14305
    Algorithm:                 Core
    Schwarz Cutoff:           1E-12
    Mask sparsity (%):       6.4891
    Fitting Condition:        1E-10

   => Auxiliary Basis Set <=

  Basis Set: (6-311++G(2D,2P) AUX)
    Blend: AUG-CC-PVTZ-JKFIT
    Number of shells: 320
    Number of basis function: 1092
    Number of Cartesian functions: 1351
    Spherical Harmonics?: true
    Max angular momentum: 4

  Minimum eigenvalue in the overlap matrix is 1.3793948099E-04.
  Using Symmetric Orthogonalization.

  SCF Guess: Superposition of Atomic Densities via on-the-fly atomic UHF.

  ==> Iterations <==

                           Total Energy        Delta E     RMS |[F,P]|

   @DF-RHF iter SAD:  -719.34505404194715   -7.19345e+02   0.00000e+00 
   @DF-RHF iter   1:  -719.99161699626450   -6.46563e-01   2.89678e-03 DIIS
   @DF-RHF iter   2:  -720.16436486535179   -1.72748e-01   1.75949e-03 DIIS
   @DF-RHF iter   3:  -720.23731249176160   -7.29476e-02   2.63795e-04 DIIS
   @DF-RHF iter   4:  -720.23985561447421   -2.54312e-03   9.77607e-05 DIIS
   @DF-RHF iter   5:  -720.24018840529186   -3.32791e-04   2.79362e-05 DIIS
   @DF-RHF iter   6:  -720.24021660773997   -2.82024e-05   5.75335e-06 DIIS
   @DF-RHF iter   7:  -720.24021879185466   -2.18411e-06   1.61106e-06 DIIS
   @DF-RHF iter   8:  -720.24021894166299   -1.49808e-07   4.52487e-07 DIIS
   @DF-RHF iter   9:  -720.24021895675048   -1.50875e-08   1.66457e-07 DIIS
   @DF-RHF iter  10:  -720.24021895829299   -1.54250e-09   5.93053e-08 DIIS
   @DF-RHF iter  11:  -720.24021895849467   -2.01680e-10   1.51648e-08 DIIS
   @DF-RHF iter  12:  -720.24021895850933   -1.46656e-11   4.82876e-09 DIIS
   @DF-RHF iter  13:  -720.24021895851286   -3.52429e-12   1.35395e-09 DIIS
   @DF-RHF iter  14:  -720.24021895851308   -2.27374e-13   3.88482e-10 DIIS
   @DF-RHF iter  15:  -720.24021895851160    1.47793e-12   1.78531e-10 DIIS
   @DF-RHF iter  16:  -720.24021895851092    6.82121e-13   4.89679e-11 DIIS
  Energy and wave function converged.


  ==> Post-Iterations <==

    Orbital Energies [Eh]
    ---------------------

    Doubly Occupied:                                                      

       1A    -80.104305     2A    -20.609450     3A    -20.598760  
       4A    -20.598693     5A    -20.518457     6A    -11.299493  
       7A    -11.298293     8A     -7.624408     9A     -5.523465  
      10A     -5.523038    11A     -5.522398    12A     -1.461321  
      13A     -1.391618    14A     -1.390348    15A     -1.304574  
      16A     -0.977941    17A     -0.960131    18A     -0.824426  
      19A     -0.737536    20A     -0.719668    21A     -0.687044  
      22A     -0.660164    23A     -0.645765    24A     -0.640546  
      25A     -0.632742    26A     -0.577716    27A     -0.564387  
      28A     -0.542991    29A     -0.517996    30A     -0.499550  
      31A     -0.489182    32A     -0.473379    33A     -0.465611  

    Virtual:                                                              

      34A      0.036438    35A      0.049034    36A      0.055053  
      37A      0.064236    38A      0.079421    39A      0.084517  
      40A      0.094436    41A      0.104343    42A      0.116159  
      43A      0.124775    44A      0.141001    45A      0.151389  
      46A      0.153627    47A      0.165914    48A      0.171966  
      49A      0.178545    50A      0.186221    51A      0.198295  
      52A      0.201957    53A      0.239348    54A      0.251798  
      55A      0.266079    56A      0.272202    57A      0.278034  
      58A      0.289486    59A      0.297623    60A      0.312500  
      61A      0.319579    62A      0.324082    63A      0.328313  
      64A      0.342417    65A      0.350889    66A      0.355724  
      67A      0.378490    68A      0.380860    69A      0.395918  
      70A      0.397323    71A      0.401853    72A      0.413794  
      73A      0.421516    74A      0.426893    75A      0.433615  
      76A      0.442330    77A      0.449337    78A      0.464262  
      79A      0.472996    80A      0.498111    81A      0.514196  
      82A      0.530884    83A      0.533545    84A      0.574761  
      85A      0.585520    86A      0.618816    87A      0.630111  
      88A      0.640216    89A      0.677042    90A      0.688946  
      91A      0.705191    92A      0.722212    93A      0.727802  
      94A      0.738260    95A      0.744067    96A      0.761540  
      97A      0.772315    98A      0.787994    99A      0.815845  
     100A      0.875210   101A      0.879400   102A      0.902865  
     103A      0.928375   104A      0.943426   105A      0.960490  
     106A      0.998398   107A      1.018600   108A      1.041694  
     109A      1.067132   110A      1.073453   111A      1.097662  
     112A      1.136963   113A      1.164678   114A      1.176865  
     115A      1.192800   116A      1.203968   117A      1.226586  
     118A      1.254055   119A      1.254839   120A      1.273878  
     121A      1.281795   122A      1.299706   123A      1.314478  
     124A      1.329421   125A      1.360358   126A      1.377061  
     127A      1.381462   128A      1.397054   129A      1.421467  
     130A      1.442195   131A      1.448987   132A      1.451747  
     133A      1.472695   134A      1.489360   135A      1.516363  
     136A      1.527568   137A      1.548771   138A      1.558911  
     139A      1.564471   140A      1.581873   141A      1.591625  
     142A      1.615024   143A      1.654952   144A      1.662068  
     145A      1.665350   146A      1.686235   147A      1.701881  
     148A      1.751984   149A      1.778951   150A      1.802467  
     151A      1.838188   152A      1.858904   153A      1.879310  
     154A      1.913107   155A      1.948159   156A      1.964672  
     157A      1.976500   158A      2.042547   159A      2.054697  
     160A      2.088017   161A      2.103513   162A      2.155921  
     163A      2.183460   164A      2.295584   165A      2.302154  
     166A      2.312252   167A      2.339449   168A      2.362570  
     169A      2.401315   170A      2.464670   171A      2.514225  
     172A      2.540047   173A      2.576812   174A      2.699614  
     175A      2.730505   176A      2.809038   177A      2.864546  
     178A      2.907893   179A      2.956250   180A      2.972074  
     181A      3.013351   182A      3.112276   183A      3.138597  
     184A      3.188924   185A      3.203997   186A      3.341326  
     187A      3.379242   188A      3.486036   189A      3.537631  
     190A      3.568337   191A      3.583339   192A      3.672572  
     193A      3.689862   194A      3.721612   195A      3.726380  
     196A      3.784108   197A      3.803945   198A      3.954449  
     199A      3.954981   200A      3.987930   201A      3.994428  
     202A      4.027173   203A      4.056290   204A      4.151477  
     205A      4.157176   206A      4.167803   207A      4.277902  
     208A      4.312877   209A      4.332332   210A      4.360118  
     211A      4.369923   212A      4.451420   213A      4.463487  
     214A      4.478879   215A      4.491959   216A      4.502020  
     217A      4.544698   218A      4.567623   219A      4.759631  
     220A      4.778242   221A      5.408958   222A      5.411549  
     223A      5.432193   224A      5.434439   225A      5.563884  
     226A      5.586025   227A      5.596586   228A      5.612197  
     229A      5.616270   230A      5.640962   231A      5.700014  
     232A      5.751240   233A      5.867384   234A      6.077642  
     235A      6.100415   236A      6.326788   237A      7.323816  
     238A      7.360488   239A      7.374125   240A      7.394382  
     241A      7.400923   242A      7.447446   243A      7.490836  
     244A      7.534029   245A      7.548715   246A      7.578369  
     247A      7.600646   248A      7.627870   249A      7.684062  
     250A      7.758741   251A      7.818427   252A      7.887652  
     253A      7.975463   254A      7.981544   255A      8.039233  
     256A      8.082250   257A      8.225596   258A     15.088787  
     259A     15.113935   260A     15.240112   261A     25.098821  
     262A     25.101516   263A     51.656293   264A     51.670268  
     265A     51.681803   266A     51.727856   267A    166.715616  

    Final Occupation by Irrep:
              A 
    DOCC [    33 ]

  @DF-RHF Final Energy:  -720.24021895851092

   => Energetics <=

    Nuclear Repulsion Energy =            454.1479662521433056
    One-Electron Energy =               -1896.0055820702548317
    Two-Electron Energy =                 721.6173968596006034
    Total Energy =                       -720.2402189585109227

Computation Completed

*** tstop() called on node37.bme.utexas.edu at Thu Apr  2 11:11:36 2020
Module time:
	user time   =      66.50 seconds =       1.11 minutes
	system time =       5.96 seconds =       0.10 minutes
	total time  =         20 seconds =       0.33 minutes
Total time:
	user time   =      66.50 seconds =       1.11 minutes
	system time =       5.96 seconds =       0.10 minutes
	total time  =         20 seconds =       0.33 minutes
   => Loading Basis Set <=

    Name: (6-311++G(2D,2P) AUX)
    Role: RIFIT
    Keyword: DF_BASIS_MP2
    atoms 1    entry P          line   590 file /home/bdw2292/miniconda3/envs/p4env/share/psi4/basis/aug-cc-pvtz-ri.gbs 
    atoms 2-5  entry O          line   264 file /home/bdw2292/miniconda3/envs/p4env/share/psi4/basis/aug-cc-pvtz-ri.gbs 
    atoms 6-7  entry C          line   148 file /home/bdw2292/miniconda3/envs/p4env/share/psi4/basis/aug-cc-pvtz-ri.gbs 
    atoms 8-14 entry H          line    30 file /home/bdw2292/miniconda3/envs/p4env/share/psi4/basis/aug-cc-pvtz-ri.gbs 


*** tstart() called on node37.bme.utexas.edu
*** at Thu Apr  2 11:11:37 2020


  //>>>>>>>>>>>>>>>>>>>>>>>>>>>>>>>>>>>//
  //               DFMP2               //
  //<<<<<<<<<<<<<<<<<<<<<<<<<<<<<<<<<<<//

	 --------------------------------------------------------
	                          DF-MP2                         
	      2nd-Order Density-Fitted Moller-Plesset Theory     
	              RMP2 Wavefunction,   4 Threads             
	                                                         
	        Rob Parrish, Justin Turney, Andy Simmonett,      
	           Ed Hohenstein, and C. David Sherrill          
	 --------------------------------------------------------

   => Auxiliary Basis Set <=

  Basis Set: (6-311++G(2D,2P) AUX)
    Blend: AUG-CC-PVTZ-RI
    Number of shells: 303
    Number of basis function: 1105
    Number of Cartesian functions: 1392
    Spherical Harmonics?: true
    Max angular momentum: 4

	 --------------------------------------------------------
	                 NBF =   267, NAUX =  1105
	 --------------------------------------------------------
	   CLASS    FOCC     OCC    AOCC    AVIR     VIR    FVIR
	   PAIRS      11      33      22     234     234       0
	 --------------------------------------------------------

  DFHelper Memory: AOs need 0.568 GiB; user supplied 13.970 GiB. Using in-core AOs.


         ------------------------------------------------------------
                                     CPHF                           
                                  Rob Parrish                       
         ------------------------------------------------------------

  ==> Geometry <==

    Molecular point group: c1
    Full point group: C1

    Geometry (in Angstrom), charge = 0, multiplicity = 1:

       Center              X                  Y                   Z               Mass       
    ------------   -----------------  -----------------  -----------------  -----------------
         P           -0.040053915798     0.481390830517     0.075863064899    30.973761998420
         O            1.017759352588    -0.469403193978     0.804340045219    15.994914619570
         O           -0.971670532386    -0.520794021072    -0.760927758583    15.994914619570
         O            0.785809032769     1.148629468357    -1.129986576392    15.994914619570
         O           -0.709010585673     1.412268340758     0.993537780630    15.994914619570
         C            1.805268039169    -1.385850501055     0.042810472401    12.000000000000
         C           -1.890695175263    -1.330484001492    -0.023029555472    12.000000000000
         H            1.166568027841    -2.069311383187    -0.525607220227     1.007825032230
         H            2.401897836675    -1.949166808794     0.760654766671     1.007825032230
         H            2.462805427040    -0.845029671474    -0.643440031563     1.007825032230
         H           -2.558831779163    -0.703687304393     0.573512810756     1.007825032230
         H           -1.353419178310    -2.022989863731     0.634000199333     1.007825032230
         H           -2.464678828157    -1.893908881889    -0.758919003778     1.007825032230
         H            0.643502594299     2.104149340544    -1.130692890892     1.007825032230

  Nuclear repulsion =  454.147966252143306
  Reference energy  = -720.240218958510923

  ==> Basis Set <==

  Basis Set: 6-311++G(2D,2P)
    Blend: 6-311++G(2D,2P)
    Number of shells: 123
    Number of basis function: 267
    Number of Cartesian functions: 281
    Spherical Harmonics?: true
    Max angular momentum: 2

  ==> CGRSolver (by Rob Parrish) <==

   Number of roots    =         1
   Preconditioning    =    JACOBI
   Convergence cutoff =     1E-06
   Maximum iterations =       100

  ==> CPHFRHamiltonian (by Rob Parrish) <== 

  ==> MemDFJK: Density-Fitted J/K Matrices <==

    J tasked:                   Yes
    K tasked:                   Yes
    wK tasked:                   No
    OpenMP threads:               4
    Memory [MiB]:             14305
    Algorithm:                 Core
    Schwarz Cutoff:           1E-12
    Mask sparsity (%):       6.4891
    Fitting Condition:        1E-10

   => Auxiliary Basis Set <=

  Basis Set: (6-311++G(2D,2P) AUX)
    Blend: AUG-CC-PVTZ-JKFIT
    Number of shells: 320
    Number of basis function: 1092
    Number of Cartesian functions: 1351
    Spherical Harmonics?: true
    Max angular momentum: 4

  ==> CPHF Iterations <==

  => Iterations <=

             Iter  Converged  Remaining    Residual
  CGR           1          0          1   7.686E-02
  CGR           2          0          1   1.867E-02
  CGR           3          0          1   7.091E-03
  CGR           4          0          1   2.164E-03
  CGR           5          0          1   7.437E-04
  CGR           6          0          1   1.753E-04
  CGR           7          0          1   5.525E-05
  CGR           8          0          1   1.975E-05
  CGR           9          0          1   6.690E-06
  CGR          10          0          1   1.568E-06
  CGR          11          1          0   5.589E-07

    CGRSolver converged.

	-----------------------------------------------------------
	 ==================> DF-MP2 Energies <==================== 
	-----------------------------------------------------------
	 Reference Energy          =    -720.2402189585109227 [Eh]
	 Singles Energy            =      -0.0000000000000000 [Eh]
	 Same-Spin Energy          =      -0.3422341506438842 [Eh]
	 Opposite-Spin Energy      =      -0.9767995863662454 [Eh]
	 Correlation Energy        =      -1.3190337370101295 [Eh]
	 Total Energy              =    -721.5592526955210815 [Eh]
	-----------------------------------------------------------
	 ================> DF-SCS-MP2 Energies <================== 
	-----------------------------------------------------------
	 SCS Same-Spin Scale       =       0.3333333333333333 [-]
	 SCS Opposite-Spin Scale   =       1.2000000000000000 [-]
	 SCS Same-Spin Energy      =      -0.1140780502146281 [Eh]
	 SCS Opposite-Spin Energy  =      -1.1721595036394945 [Eh]
	 SCS Correlation Energy    =      -1.2862375538541226 [Eh]
	 SCS Total Energy          =    -721.5264565123650300 [Eh]
	-----------------------------------------------------------



Properties will be evaluated at   0.000000,   0.000000,   0.000000 [a0]

Properties computed using the MP2 density matrix

  Nuclear Dipole Moment: [e a0]
     X:     0.3167      Y:    -7.3538      Z:    -1.0925

  Electronic Dipole Moment: [e a0]
     X:     0.0080      Y:     6.3915      Z:     0.4106

  Dipole Moment: [e a0]
     X:     0.3246      Y:    -0.9624      Z:    -0.6820     Total:     1.2234

  Dipole Moment: [D]
     X:     0.8251      Y:    -2.4461      Z:    -1.7334     Total:     3.1095


*** tstop() called on node37.bme.utexas.edu at Thu Apr  2 11:12:34 2020
Module time:
	user time   =     163.92 seconds =       2.73 minutes
	system time =      18.78 seconds =       0.31 minutes
	total time  =         57 seconds =       0.95 minutes
Total time:
	user time   =     230.67 seconds =       3.84 minutes
	system time =      24.74 seconds =       0.41 minutes
	total time  =         78 seconds =       1.30 minutes


Properties will be evaluated at   0.000000,   0.000000,   0.000000 [a0]
OEProp: No title given, name of density matrix used for the following properties is 'DF-MP2 relaxed density'


  Wiberg Bond Indices using Orthogonal Lowdin Orbitals:

  Irrep: 1 Size: 14 x 14

                 1                   2                   3                   4                   5

    1     0.00000000000000     1.21244704026689     1.19140560029161     1.19439994245182     2.05178828435339
    2     1.21244704026689     0.00000000000000     0.10488094127646     0.09969641213849     0.11906843289068
    3     1.19140560029161     0.10488094127646     0.00000000000000     0.11809440829529     0.10892655917566
    4     1.19439994245182     0.09969641213849     0.11809440829529     0.00000000000000     0.11353236429297
    5     2.05178828435339     0.11906843289068     0.10892655917566     0.11353236429297     0.00000000000000
    6     0.13379632651764     1.37325857229890     0.03802774029369     0.04018402356691     0.02194081950980
    7     0.13898419910818     0.03008659961763     1.37599207331170     0.01794395286649     0.03840684887505
    8     0.02121191807801     0.09507889957117     0.01716739032233     0.00429081199173     0.00195467354673
    9     0.01375791131190     0.09755967894895     0.00213553193671     0.00232628783827     0.00220235270526
   10     0.02014587671978     0.09422779092463     0.00355606088723     0.01650516671164     0.00196851095971
   11     0.02296953694753     0.00273815987420     0.09434428584972     0.00148196999062     0.01364264998070
   12     0.02143720178957     0.01073767084561     0.09617739005049     0.00163334817170     0.00358715822128
   13     0.01444310637850     0.00170575531277     0.09800068236789     0.00149575189519     0.00214681685176
   14     0.11942207318502     0.01188858958847     0.01304589537325     1.27737697778838     0.02217112805299

                 6                   7                   8                   9                  10

    1     0.13379632651764     0.13898419910818     0.02121191807801     0.01375791131190     0.02014587671978
    2     1.37325857229890     0.03008659961763     0.09507889957117     0.09755967894895     0.09422779092463
    3     0.03802774029369     1.37599207331170     0.01716739032233     0.00213553193671     0.00355606088723
    4     0.04018402356691     0.01794395286649     0.00429081199173     0.00232628783827     0.01650516671164
    5     0.02194081950980     0.03840684887505     0.00195467354673     0.00220235270526     0.00196851095971
    6     0.00000000000000     0.01579359441521     0.88582113287634     0.89875929862278     0.89145171369074
    7     0.01579359441521     0.00000000000000     0.00805160573709     0.00115891968854     0.00133109051184
    8     0.88582113287634     0.00805160573709     0.00000000000000     0.08587620549683     0.08456300786438
    9     0.89875929862278     0.00115891968854     0.08587620549683     0.00000000000000     0.08632501353986
   10     0.89145171369074     0.00133109051184     0.08456300786438     0.08632501353986     0.00000000000000
   11     0.00136646826028     0.89217347964695     0.00050794082620     0.00006476393458     0.00013159766134
   12     0.00727766170399     0.88903200686493     0.00317508851702     0.00061317604087     0.00040284446724
   13     0.00123056039513     0.89902609857293     0.00074180350937     0.00004761986678     0.00006049219473
   14     0.00433678738994     0.00253574271941     0.00048419139873     0.00024493355036     0.00165985197523

                11                  12                  13                  14

    1     0.02296953694753     0.02143720178957     0.01444310637850     0.11942207318502
    2     0.00273815987420     0.01073767084561     0.00170575531277     0.01188858958847
    3     0.09434428584972     0.09617739005049     0.09800068236789     0.01304589537325
    4     0.00148196999062     0.00163334817170     0.00149575189519     1.27737697778838
    5     0.01364264998070     0.00358715822128     0.00214681685176     0.02217112805299
    6     0.00136646826028     0.00727766170399     0.00123056039513     0.00433678738994
    7     0.89217347964695     0.88903200686493     0.89902609857293     0.00253574271941
    8     0.00050794082620     0.00317508851702     0.00074180350937     0.00048419139873
    9     0.00006476393458     0.00061317604087     0.00004761986678     0.00024493355036
   10     0.00013159766134     0.00040284446724     0.00006049219473     0.00165985197523
   11     0.00000000000000     0.08444312896854     0.08599264312658     0.00049887723441
   12     0.08444312896854     0.00000000000000     0.08588813598884     0.00042017178305
   13     0.08599264312658     0.08588813598884     0.00000000000000     0.00031897066068
   14     0.00049887723441     0.00042017178305     0.00031897066068     0.00000000000000



  Atomic Valences: 

 #  #
 Irrep: 1
      1:  6.1562090
      2:  3.2533745
      3:  3.2617546
      4:  2.8889614
      5:  2.5013366
      6:  4.3132447
      7:  4.3105162
      8:  1.2089247
      9:  1.1910717
     10:  1.2023290
     11:  1.2003555
     12:  1.2048250
     13:  1.1910984
     14:  1.4544042


 Electrostatic potential computed on the grid and written to grid_esp.dat

    Psi4 stopped on: Thursday, 02 April 2020 11:15AM
    Psi4 wall time for execution: 0:04:18.69

*** Psi4 exiting successfully. Buy a developer a beer!
