methanol Gaussian SP Calculation on node36.bme.utexas.edu               
SP        RMP2-FC                                                     6-311++G(2d,2p)     
Number of atoms                            I                6
Info1-9                                    I   N=           9
          17          17           0           0           0         110
           1           2           1
Charge                                     I                0
Multiplicity                               I                1
Number of electrons                        I               18
Number of alpha electrons                  I                9
Number of beta electrons                   I                9
Number of basis functions                  I               94
Number of independent functions            I               94
Number of point charges in /Mol/           I                0
Number of translation vectors              I                0
Atomic numbers                             I   N=           6
           8           6           1           1           1           1
Nuclear charges                            R   N=           6
  8.00000000E+00  6.00000000E+00  1.00000000E+00  1.00000000E+00  1.00000000E+00
  1.00000000E+00
Current cartesian coordinates              R   N=          18
  1.42349101E+00  2.33437869E-01  1.28199613E-17 -1.26451969E+00 -3.57895232E-02
  1.28199613E-17 -1.94273295E+00 -1.03129158E+00  1.68387260E+00 -1.94272917E+00
 -1.03132560E+00 -1.68385370E+00 -2.04462131E+00  1.87108398E+00 -2.07869875E-05
  2.12928105E+00 -1.46122884E+00  1.28199613E-17
Force Field                                I                0
Int Atom Types                             I   N=           6
           0           0           0           0           0           0
MM charges                                 R   N=           6
  0.00000000E+00  0.00000000E+00  0.00000000E+00  0.00000000E+00  0.00000000E+00
  0.00000000E+00
Integer atomic weights                     I   N=           6
          16          12           1           1           1           1
Real atomic weights                        R   N=           6
  1.59949146E+01  1.20000000E+01  1.00782504E+00  1.00782504E+00  1.00782504E+00
  1.00782504E+00
Atom fragment info                         I   N=           6
           0           0           0           0           0           0
Atom residue num                           I   N=           6
           0           0           0           0           0           0
Nuclear spins                              I   N=           6
           0           0           1           1           1           1
Nuclear ZEff                               R   N=           6
 -5.60000000E+00 -3.60000000E+00 -1.00000000E+00 -1.00000000E+00 -1.00000000E+00
 -1.00000000E+00
Nuclear QMom                               R   N=           6
  0.00000000E+00  0.00000000E+00  0.00000000E+00  0.00000000E+00  0.00000000E+00
  0.00000000E+00
Nuclear GFac                               R   N=           6
  0.00000000E+00  0.00000000E+00  2.79284600E+00  2.79284600E+00  2.79284600E+00
  2.79284600E+00
MicOpt                                     I   N=           6
          -1          -1          -1          -1          -1          -1
Number of contracted shells                I               38
Number of primitive shells                 I               60
Pure/Cartesian d shells                    I                0
Pure/Cartesian f shells                    I                0
Highest angular momentum                   I                2
Largest degree of contraction              I                6
Shell types                                I   N=          38
           0          -1          -1          -1          -1          -2
          -2           0          -1          -1          -1          -1
          -2          -2           0           0           0           0
           1           1           0           0           0           0
           1           1           0           0           0           0
           1           1           0           0           0           0
           1           1
Number of primitives per shell             I   N=          38
           6           3           1           1           1           1
           1           6           3           1           1           1
           1           1           3           1           1           1
           1           1           3           1           1           1
           1           1           3           1           1           1
           1           1           3           1           1           1
           1           1
Shell to atom map                          I   N=          38
           1           1           1           1           1           1
           1           2           2           2           2           2
           2           2           3           3           3           3
           3           3           4           4           4           4
           4           4           5           5           5           5
           5           5           6           6           6           6
           6           6
Primitive exponents                        R   N=          60
  8.58850000E+03  1.29723000E+03  2.99296000E+02  8.73771000E+01  2.56789000E+01
  3.74004000E+00  4.21175000E+01  9.62837000E+00  2.85332000E+00  9.05661000E-01
  2.55611000E-01  8.45000000E-02  2.58400000E+00  6.46000000E-01  4.56324000E+03
  6.82024000E+02  1.54973000E+02  4.44553000E+01  1.30290000E+01  1.82773000E+00
  2.09642000E+01  4.80331000E+00  1.45933000E+00  4.83456000E-01  1.45585000E-01
  4.38000000E-02  1.25200000E+00  3.13000000E-01  3.38650000E+01  5.09479000E+00
  1.15879000E+00  3.25840000E-01  1.02741000E-01  3.60000000E-02  1.50000000E+00
  3.75000000E-01  3.38650000E+01  5.09479000E+00  1.15879000E+00  3.25840000E-01
  1.02741000E-01  3.60000000E-02  1.50000000E+00  3.75000000E-01  3.38650000E+01
  5.09479000E+00  1.15879000E+00  3.25840000E-01  1.02741000E-01  3.60000000E-02
  1.50000000E+00  3.75000000E-01  3.38650000E+01  5.09479000E+00  1.15879000E+00
  3.25840000E-01  1.02741000E-01  3.60000000E-02  1.50000000E+00  3.75000000E-01
Contraction coefficients                   R   N=          60
  1.89515008E-03  1.43859006E-02  7.07320031E-02  2.40001011E-01  5.94797026E-01
  2.80802012E-01  1.13889012E-01  9.20811101E-01 -3.27447036E-03  1.00000000E+00
  1.00000000E+00  1.00000000E+00  1.00000000E+00  1.00000000E+00  1.96665025E-03
  1.52306019E-02  7.61269097E-02  2.60801033E-01  6.16462078E-01  2.21006028E-01
  1.14660081E-01  9.19999648E-01 -3.03068213E-03  1.00000000E+00  1.00000000E+00
  1.00000000E+00  1.00000000E+00  1.00000000E+00  2.54938145E-02  1.90373109E-01
  8.52161486E-01  1.00000000E+00  1.00000000E+00  1.00000000E+00  1.00000000E+00
  1.00000000E+00  2.54938145E-02  1.90373109E-01  8.52161486E-01  1.00000000E+00
  1.00000000E+00  1.00000000E+00  1.00000000E+00  1.00000000E+00  2.54938145E-02
  1.90373109E-01  8.52161486E-01  1.00000000E+00  1.00000000E+00  1.00000000E+00
  1.00000000E+00  1.00000000E+00  2.54938145E-02  1.90373109E-01  8.52161486E-01
  1.00000000E+00  1.00000000E+00  1.00000000E+00  1.00000000E+00  1.00000000E+00
P(S=P) Contraction coefficients            R   N=          60
  0.00000000E+00  0.00000000E+00  0.00000000E+00  0.00000000E+00  0.00000000E+00
  0.00000000E+00  3.65113974E-02  2.37152983E-01  8.19701941E-01  1.00000000E+00
  1.00000000E+00  1.00000000E+00  0.00000000E+00  0.00000000E+00  0.00000000E+00
  0.00000000E+00  0.00000000E+00  0.00000000E+00  0.00000000E+00  0.00000000E+00
  4.02486927E-02  2.37593957E-01  8.15853851E-01  1.00000000E+00  1.00000000E+00
  1.00000000E+00  0.00000000E+00  0.00000000E+00  0.00000000E+00  0.00000000E+00
  0.00000000E+00  0.00000000E+00  0.00000000E+00  0.00000000E+00  0.00000000E+00
  0.00000000E+00  0.00000000E+00  0.00000000E+00  0.00000000E+00  0.00000000E+00
  0.00000000E+00  0.00000000E+00  0.00000000E+00  0.00000000E+00  0.00000000E+00
  0.00000000E+00  0.00000000E+00  0.00000000E+00  0.00000000E+00  0.00000000E+00
  0.00000000E+00  0.00000000E+00  0.00000000E+00  0.00000000E+00  0.00000000E+00
  0.00000000E+00  0.00000000E+00  0.00000000E+00  0.00000000E+00  0.00000000E+00
Coordinates of each shell                  R   N=         114
  1.42349058E+00  2.33437727E-01  0.00000000E+00  1.42349058E+00  2.33437727E-01
  0.00000000E+00  1.42349058E+00  2.33437727E-01  0.00000000E+00  1.42349058E+00
  2.33437727E-01  0.00000000E+00  1.42349058E+00  2.33437727E-01  0.00000000E+00
  1.42349058E+00  2.33437727E-01  0.00000000E+00  1.42349058E+00  2.33437727E-01
  0.00000000E+00 -1.26452011E+00 -3.57897933E-02  0.00000000E+00 -1.26452011E+00
 -3.57897933E-02  0.00000000E+00 -1.26452011E+00 -3.57897933E-02  0.00000000E+00
 -1.26452011E+00 -3.57897933E-02  0.00000000E+00 -1.26452011E+00 -3.57897933E-02
  0.00000000E+00 -1.26452011E+00 -3.57897933E-02  0.00000000E+00 -1.26452011E+00
 -3.57897933E-02  0.00000000E+00 -1.94273332E+00 -1.03129188E+00  1.68387260E+00
 -1.94273332E+00 -1.03129188E+00  1.68387260E+00 -1.94273332E+00 -1.03129188E+00
  1.68387260E+00 -1.94273332E+00 -1.03129188E+00  1.68387260E+00 -1.94273332E+00
 -1.03129188E+00  1.68387260E+00 -1.94273332E+00 -1.03129188E+00  1.68387260E+00
 -1.94272954E+00 -1.03132590E+00 -1.68385370E+00 -1.94272954E+00 -1.03132590E+00
 -1.68385370E+00 -1.94272954E+00 -1.03132590E+00 -1.68385370E+00 -1.94272954E+00
 -1.03132590E+00 -1.68385370E+00 -1.94272954E+00 -1.03132590E+00 -1.68385370E+00
 -1.94272954E+00 -1.03132590E+00 -1.68385370E+00 -2.04462182E+00  1.87108368E+00
 -2.07869875E-05 -2.04462182E+00  1.87108368E+00 -2.07869875E-05 -2.04462182E+00
  1.87108368E+00 -2.07869875E-05 -2.04462182E+00  1.87108368E+00 -2.07869875E-05
 -2.04462182E+00  1.87108368E+00 -2.07869875E-05 -2.04462182E+00  1.87108368E+00
 -2.07869875E-05  2.12928070E+00 -1.46122895E+00  0.00000000E+00  2.12928070E+00
 -1.46122895E+00  0.00000000E+00  2.12928070E+00 -1.46122895E+00  0.00000000E+00
  2.12928070E+00 -1.46122895E+00  0.00000000E+00  2.12928070E+00 -1.46122895E+00
  0.00000000E+00  2.12928070E+00 -1.46122895E+00  0.00000000E+00
Constraint Structure                       R   N=          18
  1.42349058E+00  2.33437727E-01  0.00000000E+00 -1.26452011E+00 -3.57897933E-02
  0.00000000E+00 -1.94273332E+00 -1.03129188E+00  1.68387260E+00 -1.94272954E+00
 -1.03132590E+00 -1.68385370E+00 -2.04462182E+00  1.87108368E+00 -2.07869875E-05
  2.12928070E+00 -1.46122895E+00  0.00000000E+00
Num ILSW                                   I              100
ILSW                                       I   N=         100
           0           0           0           0           2           0
           0           0           0           0           0 13421772800
           0           0           0           0           0           0
           0           0           0           0           0           0
           1           0           0           0           0           0
           0           0      100000           0          -1           0
           0           0           0           0           0           0
           0           0           0           1           0           0
           0           0           1           0           0           0
           0           0           4          40           0           0
           0           0           0           0           0           0
           0           0           0           0           0           0
           0           0           0           0           0           0
           0           0           0           0           0           0
           0           0           0           0           0           0
           0           0           0           0           0           0
           0           0           0           0
Num RLSW                                   I               40
RLSW                                       R   N=          40
  1.00000000E+00  1.00000000E+00  1.00000000E+00  1.00000000E+00  1.00000000E+00
  0.00000000E+00  0.00000000E+00  1.00000000E+00  0.00000000E+00  0.00000000E+00
  0.00000000E+00  0.00000000E+00  1.00000000E+00  0.00000000E+00  0.00000000E+00
  0.00000000E+00  0.00000000E+00  1.00000000E+00  0.00000000E+00  0.00000000E+00
  0.00000000E+00  0.00000000E+00  1.00000000E+00  0.00000000E+00  0.00000000E+00
  0.00000000E+00  0.00000000E+00  1.00000000E+00  0.00000000E+00  0.00000000E+00
  0.00000000E+00  0.00000000E+00  0.00000000E+00  0.00000000E+00  0.00000000E+00
  0.00000000E+00  0.00000000E+00  0.00000000E+00  1.00000000E+00  1.00000000E+00
MxBond                                     I                4
NBond                                      I   N=           6
           2           4           1           1           1           1
IBond                                      I   N=          24
           2           6           0           0           1           3
           4           5           2           0           0           0
           2           0           0           0           2           0
           0           0           1           0           0           0
RBond                                      R   N=          24
  1.00000000E+00  1.00000000E+00  0.00000000E+00  0.00000000E+00  1.00000000E+00
  1.00000000E+00  1.00000000E+00  1.00000000E+00  1.00000000E+00  0.00000000E+00
  0.00000000E+00  0.00000000E+00  1.00000000E+00  0.00000000E+00  0.00000000E+00
  0.00000000E+00  1.00000000E+00  0.00000000E+00  0.00000000E+00  0.00000000E+00
  1.00000000E+00  0.00000000E+00  0.00000000E+00  0.00000000E+00
Virial Ratio                               R      2.001498871965837E+00
SCF Energy                                 R     -1.150834860372394E+02
MP2 Energy                                 R     -1.154760500488585E+02
Total Energy                               R     -1.154760500488585E+02
Post-SCF wavefunction norm                 R      1.053209005526730E+00
RMS Density                                R      3.085535579446407E-09
External E-field                           R   N=          35
  0.00000000E+00  0.00000000E+00  0.00000000E+00  0.00000000E+00  0.00000000E+00
  0.00000000E+00  0.00000000E+00  0.00000000E+00  0.00000000E+00  0.00000000E+00
  0.00000000E+00  0.00000000E+00  0.00000000E+00  0.00000000E+00  0.00000000E+00
  0.00000000E+00  0.00000000E+00  0.00000000E+00  0.00000000E+00  0.00000000E+00
  0.00000000E+00  0.00000000E+00  0.00000000E+00  0.00000000E+00  0.00000000E+00
  0.00000000E+00  0.00000000E+00  0.00000000E+00  0.00000000E+00  0.00000000E+00
  0.00000000E+00  0.00000000E+00  0.00000000E+00  0.00000000E+00  0.00000000E+00
IOpCl                                      I                0
IROHF                                      I                0
Alpha Orbital Energies                     R   N=          94
 -2.05606512E+01 -1.12728862E+01 -1.35380416E+00 -9.24661343E-01 -6.88655675E-01
 -6.18844469E-01 -5.91109189E-01 -5.06444867E-01 -4.51878332E-01  3.90847797E-02
  6.34902381E-02  7.19726474E-02  7.95270287E-02  1.26843979E-01  1.46823055E-01
  1.59214310E-01  1.82140561E-01  2.75775780E-01  2.84466864E-01  2.88133098E-01
  2.89252214E-01  3.10030187E-01  3.25618812E-01  3.40292694E-01  3.90620245E-01
  4.68791353E-01  5.56392005E-01  5.69176651E-01  6.76242352E-01  7.27435621E-01
  7.34052720E-01  7.51845897E-01  7.69968594E-01  7.71468404E-01  7.96396959E-01
  8.77583052E-01  9.52007310E-01  1.04825234E+00  1.05163541E+00  1.15274185E+00
  1.21195690E+00  1.21800990E+00  1.28811878E+00  1.30557886E+00  1.35056576E+00
  1.36021836E+00  1.39829886E+00  1.50473221E+00  1.51478676E+00  1.54650761E+00
  1.64113528E+00  1.66715321E+00  1.69024845E+00  1.76625399E+00  1.82862462E+00
  2.11559584E+00  2.25966611E+00  2.28437426E+00  2.54096637E+00  2.54812380E+00
  2.88027243E+00  2.92754490E+00  3.10128510E+00  3.23128595E+00  3.49501719E+00
  3.53335437E+00  3.62878969E+00  3.65700487E+00  3.72009804E+00  3.94586747E+00
  3.95139559E+00  4.01989645E+00  4.13265190E+00  4.15781091E+00  4.26282874E+00
  4.29179921E+00  4.42630506E+00  4.45578544E+00  4.45884449E+00  4.48359437E+00
  4.58159543E+00  4.75810302E+00  5.41281669E+00  5.45405607E+00  5.59502608E+00
  5.98830112E+00  6.46792061E+00  7.47088704E+00  7.55988129E+00  7.61158975E+00
  7.73893194E+00  8.01694143E+00  2.51147978E+01  5.16389344E+01
Alpha MO coefficients                      R   N=        8836
  5.51489049E-01  4.71660706E-01 -8.43378092E-04 -1.47913074E-03  6.07096200E-10
  5.65264265E-03  3.04017323E-04  6.63334020E-04 -3.20180782E-10 -1.86151501E-03
  1.01523024E-04  1.12145645E-04  2.91021968E-10  9.72935184E-04 -1.93593929E-05
 -2.02672370E-05 -2.61640809E-10  1.03494406E-05  5.49595949E-11  2.47666940E-11
 -2.50825711E-05 -5.32716710E-06  2.53531760E-04 -1.83558553E-11  1.19285617E-10
 -2.81532696E-05  1.22986285E-04 -8.58433804E-07 -3.84384826E-05 -5.42244613E-06
  2.02552237E-06 -2.60147953E-11  1.20164251E-04  4.22276152E-04  3.55906061E-05
  2.33911881E-10  1.90942066E-04  3.80375211E-04  1.48622836E-04 -1.09913840E-10
 -6.63885213E-04 -1.93726954E-04 -1.42552415E-04  9.65129101E-10 -3.84349092E-05
  2.65431710E-11  3.10989445E-11  6.10421821E-05  1.20278143E-05 -1.13360555E-04
 -1.12871689E-10 -6.51362488E-10  1.80629348E-04  1.16883902E-05  1.94067563E-06
  9.30597768E-05  7.18428588E-05 -1.30199136E-05  6.32034076E-06  6.84677877E-06
 -5.27309955E-06 -2.67430098E-05  4.67978318E-06 -5.30998500E-05  1.94072435E-06
  9.30613164E-05  7.18433104E-05 -1.30204972E-05  6.32038324E-06  6.84684792E-06
  5.27302228E-06 -2.67431606E-05  4.68111115E-06  5.30998946E-05  7.45653444E-06
 -5.96937440E-06  4.97577271E-05  2.33008671E-04  1.85621961E-06 -4.71315406E-06
  5.91384093E-11 -2.82985624E-05 -4.38703485E-05  4.31258438E-10  2.07597061E-04
  6.88826796E-04 -2.46164880E-04  5.22634225E-05 -6.29014939E-05  1.08722425E-04
  5.04076076E-11 -1.00731934E-04  2.47186636E-04 -1.90671988E-11 -6.53220919E-05
 -1.13433017E-04 -9.46921169E-05 -1.38227948E-05  1.89377576E-12  2.16764695E-04
 -5.20862367E-04 -5.09046779E-05  1.87728404E-11  9.91061092E-04 -5.47542595E-04
 -9.40520954E-05  4.24101438E-10  5.99358522E-04 -2.07101289E-04 -4.82398218E-05
 -4.16808364E-11 -4.06266491E-05 -6.71051823E-12  5.05903965E-11  7.83477890E-05
  1.65249913E-05 -1.08136972E-04 -5.16083437E-11 -2.35778900E-10  1.57631232E-04
  6.40231790E-05  5.63457061E-01  4.66556774E-01  1.04402328E-03  2.19671009E-06
  1.66728319E-10  4.40068623E-03 -1.12420555E-03  3.66408216E-06 -1.15754415E-09
  1.33017561E-04 -1.00364248E-03 -5.20942302E-05 -4.50974267E-10 -4.73618908E-04
  6.18466908E-05 -1.80680106E-05  6.23178128E-10  2.38550454E-05 -2.67092090E-11
 -1.49785257E-10 -8.07664435E-05 -1.04960539E-05  2.89052969E-04 -4.97097845E-11
 -6.27847380E-10 -5.31347679E-04 -9.15541598E-05  4.16807903E-04 -5.91483188E-04
 -1.23798143E-04  9.99646445E-05  4.55672808E-05  5.71748903E-05 -9.96403583E-05
 -6.96683036E-05 -2.07240704E-04  3.52431942E-04  4.16808019E-04 -5.91483062E-04
 -1.23797821E-04  9.99655109E-05  4.55670737E-05  5.71768446E-05  9.96392145E-05
 -6.96673606E-05 -2.07247805E-04 -3.52427774E-04  4.24872932E-04 -6.87076390E-04
 -1.04027662E-04  1.24015802E-04  5.00796044E-05 -1.11877939E-04  1.25027653E-09
 -9.84729563E-05  4.45186454E-04 -4.72623543E-09 -8.56202191E-06 -3.98404124E-05
 -7.23971016E-06 -3.38672974E-05  1.32874327E-05  8.56744825E-06  1.02316493E-10
 -1.64484082E-05  2.66499501E-05 -5.46335901E-10 -1.10133891E-01 -1.84045195E-01
 -1.72185292E-02 -2.74981710E-02 -3.93015046E-09  5.19868501E-01 -3.64346228E-02
 -4.98337609E-02 -2.52255515E-09  4.32457457E-01 -4.12453611E-02 -2.61970584E-02
 -1.27211808E-09 -4.94143339E-02  7.85556825E-03  6.57479807E-03  1.82012832E-09
 -3.12845770E-03  6.70001946E-10 -4.49554710E-10 -1.93604790E-04 -1.39901343E-03
 -1.04653899E-02 -5.67310259E-09  3.10826146E-09  6.91123666E-03  1.73790997E-03
 -3.62168503E-02 -5.91339516E-02  4.08361685E-02  2.04520645E-03 -5.72302318E-09
  1.45154200E-01  6.14694789E-02  4.47905310E-03 -3.49710235E-08 -1.49476789E-02
 -5.42917483E-03 -3.85237446E-04 -2.89986225E-08  5.28454467E-02  1.37692327E-02
 -2.70078355E-04 -2.35871772E-08 -6.28179423E-03  2.34129162E-09 -1.36640090E-10
  1.06504458E-02  1.35363803E-03 -6.35085576E-03  4.08369828E-09 -1.15910180E-08
  6.82690066E-03 -1.60940855E-04  1.32290011E-02  3.14679455E-02  1.57558175E-03
 -6.71188987E-03  9.81869429E-04  9.49835035E-04 -1.69119745E-03  3.94651560E-03
  3.43577669E-03 -4.89670882E-03  1.32290310E-02  3.14679392E-02  1.57554381E-03
 -6.71193295E-03  9.81868931E-04  9.49870519E-04  1.69118083E-03  3.94648363E-03
  3.43587391E-03  4.89663165E-03  1.36357679E-02  2.71158735E-02  1.41262012E-03
 -7.43842430E-03  1.13387685E-03 -1.80128140E-03  2.06575399E-08  2.41534007E-03
 -4.27846723E-03  3.49300291E-08  8.72026571E-02  6.01139576E-02  1.47220276E-02
 -4.76431828E-03 -6.50045753E-03  1.35575863E-02 -8.88176356E-10 -4.99032281E-03
  8.56171073E-03  9.41435358E-09  3.16393546E-02  5.33911641E-02 -8.08321567E-02
  2.67204824E-02 -1.81113327E-08 -1.58044412E-01 -1.28995957E-01  4.37853351E-02
 -3.13874745E-08 -1.37267473E-01 -8.15641877E-02  1.92647141E-02 -1.04384674E-08
 -2.39845661E-02  1.39244514E-02 -2.19932178E-03 -2.26379416E-08 -8.78254282E-05
  6.25060570E-10 -6.40595350E-11  4.78875444E-03  2.90361722E-03 -2.33802424E-03
  1.50432371E-09  4.29107786E-09  1.23450341E-02  7.36551393E-03 -9.48876225E-02
 -1.57977425E-01 -3.11748232E-02  3.18038994E-03 -6.11229877E-08  4.05975851E-01
 -3.51470001E-02  8.60877302E-03 -1.24441282E-07  2.12736257E-01 -8.59192524E-03
 -4.32059367E-04 -6.87185791E-08  2.70698137E-03  6.15598542E-03 -4.17822561E-03
  1.37824207E-07  2.00731011E-03 -3.92972511E-09 -1.00980294E-08 -4.09807668E-03
  7.39853167E-04 -4.11797249E-03  3.46865312E-08 -4.64543761E-08 -4.20349942E-03
 -1.22577628E-03  8.30605238E-02  1.25293989E-01  1.76358887E-02  2.12069161E-03
  2.55768770E-03  4.42298212E-03 -7.57977391E-03  4.49201591E-03  9.98973437E-03
 -1.44796051E-02  8.30605460E-02  1.25293924E-01  1.76359177E-02  2.12094148E-03
  2.55766640E-03  4.42313634E-03  7.57968796E-03  4.49200205E-03  9.99002646E-03
  1.44793921E-02  8.67436025E-02  1.21146464E-01  2.40438301E-02  5.23611818E-03
  3.03023760E-03 -8.58369864E-03  9.21831762E-08  3.23551150E-03 -1.56122636E-02
  1.54618101E-07 -6.55761436E-02 -7.34828401E-02 -1.48242008E-02 -1.03219097E-02
  8.54756213E-04 -8.45066862E-03 -9.29570376E-10  1.54010782E-03 -9.95187394E-03
 -5.04335869E-09 -2.14677714E-02 -3.64130305E-02 -9.46384913E-02  1.68849573E-01
  2.15824220E-08  1.07566312E-01 -1.51600642E-01  2.60376795E-01  3.23216429E-08
  1.91861576E-01 -1.05781118E-01  1.67919790E-01  5.12965433E-08  2.31942512E-02
  1.16548083E-02 -4.22388869E-03 -1.78811964E-08  2.51807244E-03  5.55854896E-10
 -2.08941314E-09  8.09233506E-03  2.87609517E-03  1.73820221E-03 -1.19480201E-08
  9.41599232E-09  2.32042637E-02 -2.24855244E-03  1.09884579E-02  1.84377130E-02
  7.18192831E-02  9.60134716E-02  2.33242378E-08 -4.70043545E-02  1.08986127E-01
  1.52625540E-01  1.00264428E-09 -6.90372729E-02  4.16030664E-02  7.71222437E-02
 -5.68577807E-08  2.61996769E-02  7.68274399E-03  2.06916966E-03  8.75611502E-08
 -1.14116437E-02  1.84196096E-08 -1.96226691E-07  6.97704421E-03  3.10619145E-03
 -1.57286271E-02  1.21910838E-08 -3.06692475E-07  5.31434795E-03  1.25608021E-02
 -6.58941774E-02 -9.16492408E-02 -2.58356676E-02 -3.39497851E-03 -1.17127295E-03
 -1.22682538E-03  5.17526853E-03  2.24432602E-03  2.68175595E-03  9.52925583E-03
 -6.58953425E-02 -9.16510647E-02 -2.58362257E-02 -3.39474124E-03 -1.17130833E-03
 -1.22698404E-03 -5.17530273E-03  2.24430101E-03  2.68146541E-03 -9.52939628E-03
  3.22684307E-02  5.07618869E-02  1.45763920E-02 -1.95025136E-03  2.72271737E-03
 -9.93834392E-04  3.19954118E-08  8.21879517E-04 -2.34234051E-03  9.31019325E-08
 -1.31747105E-01 -2.07975949E-01 -7.71869110E-02 -9.19127262E-03  3.92207655E-03
 -1.17419893E-02  2.45809832E-09  1.55920417E-02 -2.71560341E-02  5.95111367E-10
 -1.75194494E-08 -3.01342569E-08  1.27137975E-07  5.08753058E-08  1.53782640E-01
  9.52508858E-08  1.90336386E-07  7.29823787E-08  2.40469957E-01  1.61528159E-07
  1.26282356E-07  8.35425425E-08  2.05040415E-01  1.15954750E-07  9.45495709E-08
 -7.41273326E-08  1.11837194E-02  6.29782924E-09 -2.90312028E-03 -2.33665283E-03
 -9.57001334E-10 -2.07458417E-09  1.37413174E-09 -1.47078033E-02 -1.08316499E-02
 -3.73858850E-10 -1.59095975E-08 -3.40866995E-08 -5.90660069E-08 -1.61334317E-07
  3.43711079E-08  1.65039714E-01  1.64684625E-07 -2.89801330E-07  4.35267037E-08
  2.54669351E-01  4.89089387E-07 -1.65937371E-07 -1.20507279E-07  1.29387178E-01
  4.13404960E-07  6.48940131E-08 -3.00597070E-07  2.85175333E-03  3.11272364E-07
 -2.24158987E-03 -1.18309567E-02  1.80991476E-07  2.36253605E-08  3.89362455E-07
  4.81560708E-03 -1.63275409E-02  1.53798665E-07 -3.66115810E-09  1.09685865E-01
  1.74479965E-01  6.56964242E-02  3.59078248E-03  3.81734022E-03  5.29090267E-03
 -5.42487070E-03  3.90079329E-03  1.00634281E-02 -8.23018981E-03 -1.09684540E-01
 -1.74478047E-01 -6.56962444E-02 -3.59109006E-03 -3.81727156E-03 -5.29101459E-03
 -5.42466057E-03 -3.90085375E-03 -1.00636916E-02 -8.22982540E-03 -1.22632364E-06
 -2.01937040E-06 -4.84252811E-07  1.96117944E-07 -5.80343014E-08  1.15487897E-07
  3.35597161E-03 -4.00143107E-08  2.72356980E-07  1.22819043E-02  6.90685421E-09
  3.22505199E-08 -2.91931096E-07 -8.56641396E-08  2.25482883E-09  4.31283579E-09
  5.88486251E-03  4.49190900E-08  1.04060419E-09  1.37557025E-02 -1.38212640E-02
 -2.34426288E-02  1.78040594E-01  6.43273868E-02 -1.67644270E-07  7.57045553E-02
  2.83998097E-01  9.91296168E-02 -2.59494153E-07  1.01262678E-01  2.31806720E-01
  8.50702187E-02 -2.42122597E-07  4.76819247E-02  7.67171490E-03 -4.19687276E-03
  1.82768713E-08  2.53788908E-03  4.44953703E-09 -1.92746353E-10 -4.14815025E-03
 -5.42359500E-03  9.36899744E-03  2.14362114E-08  8.21043358E-09 -1.21542385E-02
 -2.45609039E-02 -3.37531845E-04 -1.97454652E-04 -1.31358778E-01  9.89837601E-02
 -1.57377389E-07 -3.57132984E-04 -2.12340072E-01  1.46131820E-01 -1.78991592E-07
  3.03681369E-02 -1.18558173E-01  9.25185775E-02 -6.51207416E-08 -1.11752037E-02
 -3.35014182E-03  1.06415250E-02 -1.82108781E-07  2.03379685E-03  8.33173956E-09
 -2.47349535E-07 -1.95360130E-02 -6.48007390E-03  1.20838866E-02 -2.28119605E-08
 -2.30805367E-07 -2.45796729E-02 -2.55035914E-03 -9.53827197E-04 -1.51842186E-02
 -6.29084613E-03  3.89028593E-03 -2.74909156E-03  1.94396943E-03  5.84686563E-04
 -6.51626199E-03  1.54954907E-03  3.27141001E-03 -9.55208440E-04 -1.51862639E-02
 -6.29169080E-03  3.88998195E-03 -2.74913278E-03  1.94389084E-03 -5.84797214E-04
 -6.51631809E-03  1.54938477E-03 -3.27153695E-03  1.23917307E-01  1.91060445E-01
  5.59427711E-02  6.08981340E-04  2.45125426E-03 -9.35417019E-03  1.23409055E-07
  1.77506534E-03 -1.39075904E-02  2.34444559E-07  2.68401337E-02  3.11019126E-02
  1.92455751E-03  8.10432149E-03  5.96719754E-03  4.57178279E-03 -5.73328550E-09
  1.29675734E-02  3.06602086E-03 -7.81267201E-09 -2.41541146E-02 -4.10774395E-02
  7.13490907E-02  1.67230203E-01  5.86212321E-09  1.26576623E-01  1.12327312E-01
  2.56525816E-01  7.23016582E-09  2.08294660E-01  1.04128812E-01  2.09851143E-01
  1.58182027E-08  7.19240794E-02  1.09163050E-02  3.38926130E-02 -2.21612829E-08
  4.33761490E-03 -6.07028462E-10  6.06287640E-09  2.07521193E-03  1.97842053E-03
  9.82806799E-03  7.06349081E-10  2.49038174E-08  5.96242060E-03 -5.40622976E-03
  4.04792960E-03  7.14944118E-03 -3.47266314E-02 -1.43773766E-01 -2.58123037E-08
 -2.13375173E-02 -6.32638386E-02 -2.15541868E-01 -3.72955983E-08  1.22229148E-03
 -3.50511174E-02 -1.39035063E-01 -2.91805656E-08 -7.30567379E-03 -1.21812953E-03
  5.68460308E-03  2.23013275E-08  1.38347781E-02 -2.39346451E-08  3.98687095E-07
 -1.21714643E-04  1.44305819E-02  1.52890022E-02 -3.31995866E-08  3.39566513E-07
 -7.85922195E-03  2.56019314E-02  7.47657784E-02  1.16738140E-01  6.05576726E-02
  1.00331352E-02  1.61631391E-03  2.25504890E-04 -5.78054778E-03  2.11488136E-03
 -2.83136987E-03 -8.12321301E-03  7.47681185E-02  1.16742050E-01  6.05597254E-02
  1.00334644E-02  1.61637024E-03  2.25735408E-04  5.78066761E-03  2.11502407E-03
 -2.83107547E-03  8.12345485E-03 -1.19576691E-01 -2.03506729E-01 -1.00857063E-01
 -1.55257785E-02 -4.99923314E-03  8.04633301E-03 -1.23510444E-07 -1.02742175E-02
  1.30238106E-02 -2.25027495E-07 -8.50213935E-02 -1.45966937E-01 -6.88246112E-02
  4.79650854E-03  6.54236674E-03 -5.83542371E-03  2.87416432E-11  1.60326943E-02
 -9.53532840E-03 -2.79792653E-08  1.25779928E-08  2.14360304E-08  6.60509843E-08
  2.50830613E-08  2.45244591E-01 -5.93427859E-08  1.07114747E-07  3.93208876E-08
  3.79281155E-01 -1.68791990E-07  1.05924803E-07  1.10326764E-07  3.65634537E-01
 -6.02598237E-08  9.12005505E-08 -5.20240019E-08  8.07027124E-02 -3.09528456E-09
  1.09060711E-04 -3.00308539E-03 -4.09861352E-09 -2.34817613E-09 -1.59222231E-08
 -6.24201123E-03 -1.46004996E-02 -1.38426819E-08 -2.18225907E-08  5.54519475E-09
  1.04855540E-08  1.16762975E-08  5.28611500E-08 -1.07165977E-01 -3.67599688E-08
  2.40643577E-08  4.29514906E-08 -1.57610555E-01  7.80298535E-08  6.51943030E-08
 -8.02662603E-08 -1.21061903E-01  3.62024954E-07  5.55833125E-08 -2.37311253E-07
  5.94522814E-03 -2.75708082E-07  1.71680278E-02  1.21437419E-02 -1.81167889E-07
 -2.15400456E-08 -2.09003960E-07  3.77870235E-02  1.24189990E-02 -1.39200429E-07
 -3.35627728E-08 -9.65657426E-02 -1.60865925E-01 -9.83898677E-02 -1.72603036E-02
 -2.63418856E-03 -4.48166480E-03  4.99761568E-03 -6.97602242E-03 -4.44272127E-03
  6.00432168E-03  9.65646278E-02  1.60864026E-01  9.83883926E-02  1.72597721E-02
  2.63414693E-03  4.48176965E-03  4.99744428E-03  6.97588824E-03  4.44282782E-03
  6.00408389E-03  1.18427709E-06  2.00608580E-06  1.36162522E-06  4.15715033E-07