methanol Gaussian SP Calculation on node36.bme.utexas.edu               
FOpt      RMP2-FC                                                     6-31G(d)            
Number of atoms                            I                6
Info1-9                                    I   N=           9
          18          17           0           0           0         100
           2           2           1
Charge                                     I                0
Multiplicity                               I                1
Number of electrons                        I               18
Number of alpha electrons                  I                9
Number of beta electrons                   I                9
Number of basis functions                  I               38
Number of independent functions            I               38
Number of point charges in /Mol/           I                0
Number of translation vectors              I                0
Atomic numbers                             I   N=           6
           8           6           1           1           1           1
Nuclear charges                            R   N=           6
  8.00000000E+00  6.00000000E+00  1.00000000E+00  1.00000000E+00  1.00000000E+00
  1.00000000E+00
Current cartesian coordinates              R   N=          18
  1.42349018E+00  2.33437708E-01  8.39181709E-08 -1.26451979E+00 -3.57897454E-02
 -7.09339098E-08 -1.94273353E+00 -1.03129199E+00  1.68387214E+00 -1.94272875E+00
 -1.03132631E+00 -1.68385347E+00 -2.04462174E+00  1.87108344E+00 -1.99085932E-05
  2.12928135E+00 -1.46122833E+00  9.96419359E-07
Force Field                                I                0
Int Atom Types                             I   N=           6
           0           0           0           0           0           0
MM charges                                 R   N=           6
  0.00000000E+00  0.00000000E+00  0.00000000E+00  0.00000000E+00  0.00000000E+00
  0.00000000E+00
Integer atomic weights                     I   N=           6
          16          12           1           1           1           1
Real atomic weights                        R   N=           6
  1.59949146E+01  1.20000000E+01  1.00782504E+00  1.00782504E+00  1.00782504E+00
  1.00782504E+00
Atom fragment info                         I   N=           6
           0           0           0           0           0           0
Atom residue num                           I   N=           6
           0           0           0           0           0           0
Nuclear spins                              I   N=           6
           0           0           1           1           1           1
Nuclear ZEff                               R   N=           6
 -5.60000000E+00 -3.60000000E+00 -1.00000000E+00 -1.00000000E+00 -1.00000000E+00
 -1.00000000E+00
Nuclear QMom                               R   N=           6
  0.00000000E+00  0.00000000E+00  0.00000000E+00  0.00000000E+00  0.00000000E+00
  0.00000000E+00
Nuclear GFac                               R   N=           6
  0.00000000E+00  0.00000000E+00  2.79284600E+00  2.79284600E+00  2.79284600E+00
  2.79284600E+00
MicOpt                                     I   N=           6
          -1          -1          -1          -1          -1          -1
Number of contracted shells                I               16
Number of primitive shells                 I               38
Pure/Cartesian d shells                    I                1
Pure/Cartesian f shells                    I                0
Highest angular momentum                   I                2
Largest degree of contraction              I                6
Shell types                                I   N=          16
           0          -1          -1           2           0          -1
          -1           2           0           0           0           0
           0           0           0           0
Number of primitives per shell             I   N=          16
           6           3           1           1           6           3
           1           1           3           1           3           1
           3           1           3           1
Shell to atom map                          I   N=          16
           1           1           1           1           2           2
           2           2           3           3           4           4
           5           5           6           6
Primitive exponents                        R   N=          38
  5.48467166E+03  8.25234946E+02  1.88046958E+02  5.29645000E+01  1.68975704E+01
  5.79963534E+00  1.55396162E+01  3.59993359E+00  1.01376175E+00  2.70005823E-01
  8.00000000E-01  3.04752488E+03  4.57369518E+02  1.03948685E+02  2.92101553E+01
  9.28666296E+00  3.16392696E+00  7.86827235E+00  1.88128854E+00  5.44249258E-01
  1.68714478E-01  8.00000000E-01  1.87311370E+01  2.82539436E+00  6.40121692E-01
  1.61277759E-01  1.87311370E+01  2.82539436E+00  6.40121692E-01  1.61277759E-01
  1.87311370E+01  2.82539436E+00  6.40121692E-01  1.61277759E-01  1.87311370E+01
  2.82539436E+00  6.40121692E-01  1.61277759E-01
Contraction coefficients                   R   N=          38
  1.83107443E-03  1.39501722E-02  6.84450781E-02  2.32714336E-01  4.70192898E-01
  3.58520853E-01 -1.10777550E-01 -1.48026263E-01  1.13076702E+00  1.00000000E+00
  1.00000000E+00  1.83473713E-03  1.40373228E-02  6.88426223E-02  2.32184443E-01
  4.67941348E-01  3.62311985E-01 -1.19332420E-01 -1.60854152E-01  1.14345644E+00
  1.00000000E+00  1.00000000E+00  3.34946043E-02  2.34726953E-01  8.13757326E-01
  1.00000000E+00  3.34946043E-02  2.34726953E-01  8.13757326E-01  1.00000000E+00
  3.34946043E-02  2.34726953E-01  8.13757326E-01  1.00000000E+00  3.34946043E-02
  2.34726953E-01  8.13757326E-01  1.00000000E+00
P(S=P) Contraction coefficients            R   N=          38
  0.00000000E+00  0.00000000E+00  0.00000000E+00  0.00000000E+00  0.00000000E+00
  0.00000000E+00  7.08742682E-02  3.39752839E-01  7.27158577E-01  1.00000000E+00
  0.00000000E+00  0.00000000E+00  0.00000000E+00  0.00000000E+00  0.00000000E+00
  0.00000000E+00  0.00000000E+00  6.89990666E-02  3.16423961E-01  7.44308291E-01
  1.00000000E+00  0.00000000E+00  0.00000000E+00  0.00000000E+00  0.00000000E+00
  0.00000000E+00  0.00000000E+00  0.00000000E+00  0.00000000E+00  0.00000000E+00
  0.00000000E+00  0.00000000E+00  0.00000000E+00  0.00000000E+00  0.00000000E+00
  0.00000000E+00  0.00000000E+00  0.00000000E+00
Coordinates of each shell                  R   N=          48
  1.42349018E+00  2.33437708E-01  8.39181707E-08  1.42349018E+00  2.33437708E-01
  8.39181707E-08  1.42349018E+00  2.33437708E-01  8.39181707E-08  1.42349018E+00
  2.33437708E-01  8.39181707E-08 -1.26451979E+00 -3.57897454E-02 -7.09339094E-08
 -1.26451979E+00 -3.57897454E-02 -7.09339094E-08 -1.26451979E+00 -3.57897454E-02
 -7.09339094E-08 -1.26451979E+00 -3.57897454E-02 -7.09339094E-08 -1.94273353E+00
 -1.03129199E+00  1.68387214E+00 -1.94273353E+00 -1.03129199E+00  1.68387214E+00
 -1.94272875E+00 -1.03132631E+00 -1.68385347E+00 -1.94272875E+00 -1.03132631E+00
 -1.68385347E+00 -2.04462174E+00  1.87108344E+00 -1.99085932E-05 -2.04462174E+00
  1.87108344E+00 -1.99085932E-05  2.12928135E+00 -1.46122833E+00  9.96419357E-07
  2.12928135E+00 -1.46122833E+00  9.96419357E-07
Constraint Structure                       R   N=          18
 -1.40354527E+00  2.46159046E-01 -6.61767176E-05  1.25684176E+00 -3.75720776E-02
  3.02612981E-05  1.84133899E+00 -1.06706645E+00 -1.69214048E+00  1.84111893E+00
 -1.06619748E+00  1.69249171E+00  2.13151743E+00  1.83254232E+00 -2.94193501E-04
 -2.12666378E+00 -1.44311829E+00  2.90811783E-04
Num ILSW                                   I              100
ILSW                                       I   N=         100
           0           1           0           0           2           0
           0           0           0           0           0 13421772800
           0           0           0           0           0           0
           0           0           0           0           1           0
           1           0           0           0           0           0
           0           0      100000           0          -1           0
           0           0           0           0           0           0
           0           0           0           1           0           0
           0           0           1           0           0           0
           0           0           4          40           0           0
           0           0           0           0           0           0
           0           0           0           0           0           0
           0           0           0           0           0           0
           0           0           0           0           0           0
           0           0           0           0           0           0
           0           0           0           0           0           0
           0           0           0           0
Num RLSW                                   I               40
RLSW                                       R   N=          40
  1.00000000E+00  1.00000000E+00  1.00000000E+00  1.00000000E+00  1.00000000E+00
  0.00000000E+00  0.00000000E+00  1.00000000E+00  0.00000000E+00  0.00000000E+00
  0.00000000E+00  0.00000000E+00  1.00000000E+00  0.00000000E+00  0.00000000E+00
  0.00000000E+00  0.00000000E+00  1.00000000E+00  0.00000000E+00  0.00000000E+00
  0.00000000E+00  0.00000000E+00  1.00000000E+00  0.00000000E+00  0.00000000E+00
  0.00000000E+00  0.00000000E+00  1.00000000E+00  0.00000000E+00  0.00000000E+00
  0.00000000E+00  0.00000000E+00  0.00000000E+00  0.00000000E+00  0.00000000E+00
  0.00000000E+00  0.00000000E+00  0.00000000E+00  1.00000000E+00  1.00000000E+00
MxBond                                     I                4
NBond                                      I   N=           6
           2           4           1           1           1           1
IBond                                      I   N=          24
           2           6           0           0           1           3
           4           5           2           0           0           0
           2           0           0           0           2           0
           0           0           1           0           0           0
RBond                                      R   N=          24
  1.00000000E+00  1.00000000E+00  0.00000000E+00  0.00000000E+00  1.00000000E+00
  1.00000000E+00  1.00000000E+00  1.00000000E+00  1.00000000E+00  0.00000000E+00
  0.00000000E+00  0.00000000E+00  1.00000000E+00  0.00000000E+00  0.00000000E+00
  0.00000000E+00  1.00000000E+00  0.00000000E+00  0.00000000E+00  0.00000000E+00
  1.00000000E+00  0.00000000E+00  0.00000000E+00  0.00000000E+00
Virial Ratio                               R      2.002799709784383E+00
SCF Energy                                 R     -1.150400126351325E+02
MP2 Energy                                 R     -1.153517850541139E+02
Total Energy                               R     -1.153517850541139E+02
Post-SCF wavefunction norm                 R      1.044274531175803E+00
RMS Force                                  R      7.156261943240037E-05
RMS Density                                R      3.301459432319360E-09
External E-field                           R   N=          35
  0.00000000E+00  0.00000000E+00  0.00000000E+00  0.00000000E+00  0.00000000E+00
  0.00000000E+00  0.00000000E+00  0.00000000E+00  0.00000000E+00  0.00000000E+00
  0.00000000E+00  0.00000000E+00  0.00000000E+00  0.00000000E+00  0.00000000E+00
  0.00000000E+00  0.00000000E+00  0.00000000E+00  0.00000000E+00  0.00000000E+00
  0.00000000E+00  0.00000000E+00  0.00000000E+00  0.00000000E+00  0.00000000E+00
  0.00000000E+00  0.00000000E+00  0.00000000E+00  0.00000000E+00  0.00000000E+00
  0.00000000E+00  0.00000000E+00  0.00000000E+00  0.00000000E+00  0.00000000E+00
IOpCl                                      I                0
IROHF                                      I                0
Alpha Orbital Energies                     R   N=          38
 -2.05632074E+01 -1.12694779E+01 -1.34933138E+00 -9.19966146E-01 -6.83650108E-01
 -6.14857759E-01 -5.87091741E-01 -5.02594713E-01 -4.48218524E-01  2.31341699E-01
  2.83570114E-01  3.23872743E-01  3.33037816E-01  3.81364916E-01  7.64889944E-01
  7.75162055E-01  7.88718136E-01  1.04875307E+00  1.12770174E+00  1.13625923E+00
  1.17500225E+00  1.20757249E+00  1.24621742E+00  1.26601995E+00  1.40144581E+00
  1.72030663E+00  1.77391239E+00  1.85302027E+00  2.03257998E+00  2.36481409E+00
  2.44103921E+00  2.45958045E+00  2.67482263E+00  2.72563253E+00  2.77605100E+00
  3.14607594E+00  4.10539515E+00  4.64003220E+00
Alpha MO coefficients                      R   N=        1444
  9.94658449E-01  2.11446251E-02 -6.14027653E-04 -1.09613711E-03  9.45060999E-10
  3.95418802E-03  2.95901744E-04  5.00562088E-04 -4.30119501E-10 -4.20005859E-03
 -4.06262076E-03 -3.84451748E-03  3.49132031E-05  2.76985653E-11  2.16939501E-10
 -1.95912420E-05  2.39566488E-04  3.59402856E-04  5.52902628E-05  3.71877561E-11
  5.06092385E-05 -1.21924148E-04 -2.57850271E-04  1.73394630E-10  7.04658176E-05
 -7.12496007E-05 -3.92165375E-05 -2.12290720E-06  1.87222465E-11  6.14418264E-10
 -4.16054918E-05 -1.08543787E-04 -4.16062585E-05 -1.08544980E-04  1.49318299E-05
  1.72294272E-05  3.83609338E-04 -2.32000421E-04 -1.43096234E-04  1.49589469E-04
 -1.12372080E-04 -5.30495170E-05 -1.07513427E-10  1.24668324E-03  1.23092565E-04
  1.64555514E-04  6.61006505E-10 -8.17213015E-04 -7.74647393E-07  6.02899917E-05
 -5.67574495E-05 -3.19481667E-10  2.09934146E-11  9.95768441E-01  2.73732512E-02
  7.72003878E-04  4.90909754E-05 -8.61806757E-11 -1.19431953E-02  4.36407405E-04
 -2.92855148E-05  1.66498245E-10 -1.62244544E-03 -1.76351549E-03 -1.78903475E-03
  1.92804500E-05 -1.84959770E-10  1.56330368E-10  6.42110625E-05  2.42100122E-03
  6.42108499E-05  2.42100056E-03  6.96412076E-05  2.46125997E-03  2.62896760E-05
  3.25757740E-04 -2.03880814E-01  4.59092124E-01 -4.45666212E-02 -6.94381285E-02
  2.32154380E-08  4.37071428E-01 -2.39174425E-02 -3.97402797E-02  5.58550800E-09
  1.64220543E-02  2.10425392E-02 -1.13003100E-03 -4.72823030E-03  4.86302450E-09
 -1.30255020E-08 -6.77511544E-02  1.23600292E-01  9.21272086E-02  5.72294879E-03
 -1.87113544E-08  4.97116600E-02  2.22053376E-03 -3.66838551E-03  5.39230464E-08
  2.41604444E-02 -4.73659507E-03 -5.40288307E-03  1.83510746E-03  1.29908526E-09
  5.26705022E-09  2.32927112E-02  2.29885172E-03  2.32927558E-02  2.29892022E-03
  2.42906326E-02  5.95544981E-03  1.19144836E-01 -4.14648995E-03  5.93106770E-02
 -1.32328347E-01 -1.82592143E-01  6.17182126E-02 -8.50858239E-08 -1.89962508E-01
 -9.62634659E-02  3.49611395E-02 -5.33355721E-08  1.65239781E-02 -1.49072388E-02
 -2.81589607E-04  1.25366566E-02 -3.18731210E-09  1.05590056E-08 -1.78044583E-01
  3.44979130E-01 -6.95584194E-02  9.56742138E-03 -1.31145336E-07  3.34601410E-01
 -3.53367534E-02 -4.99353710E-03 -1.78208393E-08 -4.33497909E-03  1.36578888E-02
  1.16180676E-02  6.52752397E-04 -2.14614321E-08 -1.34402908E-09  1.35006959E-01
  3.60463438E-02  1.35006968E-01  3.60463059E-02  1.42913081E-01  4.28328716E-02
 -9.80561114E-02 -2.28866718E-02 -4.03982850E-02  9.15936095E-02 -2.08340981E-01
  3.78632082E-01 -1.44603560E-07  1.60435399E-01 -1.27663267E-01  2.41342470E-01
 -7.03718957E-08  1.60893876E-02 -3.72530973E-02  5.09819318E-03  5.51952457E-03
 -7.70737478E-09  1.80177354E-08  2.17462853E-02 -3.82482579E-02  1.59886231E-01
  2.21366104E-01  1.03447927E-08 -8.44826970E-02  4.78063410E-02  1.00350845E-01
 -1.24862953E-07  1.82528605E-02  4.00262385E-04 -2.09334539E-02  5.09897869E-03
  3.67708956E-08 -3.85099730E-07 -1.06695104E-01 -6.05878040E-02 -1.06696957E-01
 -6.05891281E-02  5.60015037E-02  3.54567476E-02 -2.11334094E-01 -9.37673468E-02
 -6.72242042E-08  1.59785277E-07  9.11233383E-07  3.86928380E-07  3.48102318E-01
  2.70417025E-07  6.49086568E-07  2.75683813E-07  2.38673666E-01 -3.66876652E-08
 -1.16774544E-08  3.94165825E-08 -6.65624284E-08 -1.26870966E-02 -1.47100207E-02
 -4.94863208E-08  7.48555140E-08 -9.34709369E-07  7.38592124E-07  3.74962390E-01
  3.43246624E-07 -3.66903451E-07  2.94191841E-07  1.78350058E-01 -3.66396833E-08
 -5.34715095E-07  5.77939081E-07  1.03569069E-08 -5.57504396E-03 -2.32760279E-02
  1.80417601E-01  1.32853783E-01 -1.80415641E-01 -1.32852460E-01 -1.48542762E-06
 -1.03700473E-06  1.62013427E-07  8.03698666E-08 -2.52003620E-02  5.92732757E-02
  4.02697563E-01  1.40621245E-01 -1.13213755E-06  9.49826689E-02  2.87141356E-01
  1.01426106E-01 -7.94134591E-07 -1.55121965E-02  2.31566306E-03  6.68461581E-03
 -2.71713568E-02  5.59949189E-08  3.26425749E-08 -3.80791743E-04 -1.55676267E-03
 -3.02673083E-01  2.15752883E-01 -1.04441430E-06  5.31107742E-02 -1.10248868E-01
  1.29665019E-01 -6.22878758E-07 -2.92332270E-02  2.81184956E-02  2.92541587E-03
 -1.27436501E-02  1.76595320E-08 -4.20434527E-07 -1.22199520E-03  1.64468435E-03
 -1.22353937E-03  1.64351435E-03  1.99853445E-01  1.39394914E-01  4.40995478E-02
  4.22440315E-02 -4.59762287E-02  9.85109286E-02  1.53948212E-01  3.66409965E-01
  1.67253731E-07  2.20054415E-01  1.26586993E-01  2.89872805E-01  1.37527103E-07
 -6.21932870E-03 -2.83875555E-02  7.49058153E-03 -2.01452981E-03 -1.07614575E-08
  4.48725232E-08  6.34279096E-03 -1.62024758E-02 -8.01197280E-02 -3.32342178E-01
  7.50079015E-08  9.79754366E-03 -1.77813796E-02 -1.56816996E-01 -4.37571383E-08
 -1.12038936E-02 -1.40249581E-02  2.48456996E-02  2.93640630E-02 -5.33225575E-08
  7.24781879E-07  1.26136250E-01  1.20220928E-01  1.26140064E-01  1.20224244E-01
 -2.05978778E-01 -1.84897782E-01 -1.35729840E-01 -9.02012291E-02  4.49833286E-08
 -9.37227785E-08  1.42705627E-07  2.04318426E-07  5.38574332E-01 -2.87722308E-07
  7.90995244E-08  2.05890247E-07  4.54056523E-01  6.69039068E-09  2.64927431E-08
 -4.92892364E-09 -2.20955874E-08 -5.78668293E-03 -1.96652610E-02 -1.25206587E-08
  5.60599214E-09  3.60303290E-08  1.59771650E-07 -2.50312188E-01  1.38500638E-07
 -1.31040919E-08  5.26598320E-08 -1.13915159E-01 -5.81749585E-08  5.45589977E-07
 -5.05084677E-07 -4.80729622E-08  3.44201189E-02  2.25723033E-02 -1.68699953E-01
 -1.73464344E-01  1.68698004E-01  1.73462115E-01  2.07142153E-06  2.14800057E-06
  1.26123175E-07  1.99169411E-07  7.90596140E-02 -6.98091076E-02 -2.55762535E-02
  1.80302979E-01 -3.30630185E-07 -1.06613814E+00 -3.62554647E-02  4.44851274E-01
 -9.19608454E-07  3.26167861E-02  2.44070666E-02  4.54623819E-02 -1.60285215E-03
 -8.36734472E-09  5.14729576E-08  5.56878585E-02 -3.68746897E-02  1.62860927E-01
  3.98961712E-02  8.79827269E-07 -1.06868097E+00  6.38945939E-01  1.00212318E-01
  3.88007342E-06 -1.09779216E-03  1.53858536E-02  9.17456195E-03  2.42568105E-03
 -3.28779870E-08  6.94181156E-09  1.04944454E-03  6.56924081E-01  1.04985173E-03
  6.56932471E-01  2.93520302E-03  4.92497288E-01  6.67106401E-02  1.18279488E+00
  6.12682305E-02 -2.84911427E-02  4.79617734E-02  1.30776803E-01 -5.09393071E-07
 -9.17735862E-01  1.84623894E-01  3.06414550E-01 -1.30585795E-06  4.01014366E-02
  2.50565791E-02  3.82067667E-02 -5.18065178E-03 -1.70513032E-08  5.37876796E-08
 -1.39104147E-01  1.22154589E-01 -4.43737340E-02  2.61528606E-02  1.28397049E-06
  2.40792928E+00 -1.42130280E-01  9.01395607E-02  5.31925611E-06 -1.13529342E-02
  6.88595030E-05 -5.85145672E-03  2.26700838E-03 -3.47443998E-08  2.80609349E-08
 -1.01189301E-03 -1.01079911E+00 -1.01145392E-03 -1.01078594E+00  1.53880345E-03
 -1.19039097E+00  5.25962422E-02  7.80520776E-01  9.53330399E-03 -1.06292564E-02
  7.70010604E-02  4.52894400E-02 -3.74703543E-07 -1.44215904E-01  1.57505485E-01
  1.88393131E-01 -8.39009169E-07 -2.36144192E-03  3.35309604E-03  2.11593373E-04
  9.85689983E-03 -8.59281553E-09 -2.15301535E-07 -1.60950305E-02  1.01873356E-02
  6.19160389E-02 -3.37497503E-01  1.40194924E-06  2.05368798E-01  3.51336342E-01
 -1.44624700E+00  5.91641357E-06 -6.00365105E-03  1.44908392E-02 -8.68091078E-03
 -5.22177678E-03  3.12781342E-08 -3.39869574E-07 -2.32821689E-02 -9.26927886E-01
 -2.32826158E-02 -9.26947845E-01  6.24721523E-02  1.86522367E+00 -1.88496490E-02
 -1.32664802E-01  6.71815119E-07 -5.12568979E-07  1.07365611E-06  8.89386010E-07
  7.90862180E-02 -1.06191654E-05  4.25886398E-06  2.61886481E-06  2.47417071E-01
  1.89634467E-07  5.62803937E-08  5.51120133E-07 -3.39429202E-08  8.09568452E-03
 -1.18915579E-02 -6.36260037E-07  4.54023093E-07  1.26884075E-06 -9.87332456E-07
 -3.64380135E-01  1.10267524E-05  8.31643692E-06 -3.96221002E-06 -1.49477091E+00
 -4.56976355E-08 -2.32798675E-07  3.60280278E-07  1.72555225E-08  1.14021892E-03
 -1.26524642E-02  3.62757772E-02  1.65439230E+00 -3.62751733E-02 -1.65438389E+00
 -9.69002684E-08 -1.61708526E-05 -1.84898893E-07  4.82158033E-06  4.67806265E-02
 -4.05104069E-02  3.11426700E-01 -1.16913217E-01 -1.74888776E-07 -7.63941226E-01
  9.58636413E-01 -2.85889950E-01 -5.39582306E-07 -8.23180957E-03  2.54317538E-02
  2.41542720E-02 -1.04199674E-02 -5.67267315E-08  1.06963236E-07 -6.00878113E-02
  4.43334806E-02  2.08807363E-01  4.69003373E-02  1.50860403E-06  8.66116613E-01
  1.50070988E+00  4.77766219E-01  4.52004707E-06 -1.31275089E-02  1.00104235E-02
  2.23756580E-02 -7.17731756E-03 -4.25440378E-10  1.78362870E-07  5.89124282E-02
  3.23894211E-01  5.89128914E-02  3.23911463E-01  3.81080232E-02 -3.04303531E-01
 -3.63556507E-02 -9.62908895E-01  1.80623994E-03 -1.87291620E-02 -2.03846749E-01
 -6.99300263E-02  1.00139699E-06 -2.80492913E-01  6.92537315E-02 -1.20196511E-01
  1.16414695E-06 -9.94468069E-02  1.95213697E-02  1.37058348E-02 -1.38885491E-02
 -8.25366552E-08  3.01665705E-07  1.44166804E-02 -1.99644919E-01 -3.85894540E-01
 -6.58900104E-01  3.96856536E-06  2.82639653E-01  4.20649742E-01  1.44622079E+00
 -9.54577147E-06  3.70417202E-02 -9.65235679E-02  6.24035459E-02  5.31800269E-02
 -4.06500449E-07  2.25685764E-06  2.57121785E-01  1.03560377E-01  2.57124239E-01
  1.03561521E-01 -4.30921254E-01 -2.61568216E-01  1.47662338E-01  4.07697593E-02
 -1.20944329E-08  2.57696713E-07 -3.49123785E-07 -9.86196085E-07 -1.93567477E-01
 -4.50194170E-07 -5.38721168E-07 -6.72863150E-07 -1.90326660E-01 -1.52717128E-07
  5.62642317E-07 -2.54415493E-07 -1.58312221E-07  4.34026422E-03  1.83715415E-02
  9.49885589E-08 -4.72241432E-07 -9.06974665E-07 -4.18564497E-06 -7.24688123E-01
 -4.93673020E-07 -3.05468071E-07  9.94002100E-06  1.66632979E+00 -3.97700709E-08
  2.24524631E-06 -2.25102225E-06  1.04279572E-07  2.82040214E-02  1.07325618E-01
 -4.29806559E-01 -3.11269557E-01  4.29805161E-01  3.11268463E-01  2.13377833E-06
  1.48833256E-06  1.26994234E-06 -7.01516908E-07 -1.83903143E-02  2.65280764E-01
 -1.85907313E-01 -1.82543551E-02 -7.84237122E-08 -7.12789098E-01  1.06994584E-02
  1.36951727E-01 -3.21373897E-07 -8.33711978E-02  1.19074323E-01  1.10772838E-01
 -8.94397744E-03  7.05615542E-08 -2.15464286E-07  3.41646539E-02 -3.74949206E-01
 -9.15299499E-01  2.97333522E-01 -1.46321537E-06  3.74871862E-01  1.20490541E+00
 -7.28240473E-01  2.42371829E-06  3.56602800E-02  1.38035485E-02 -6.63765166E-02
 -5.27741055E-03  9.24332398E-08 -1.34960850E-06 -2.65477185E-03 -4.87037653E-02
 -2.65772964E-03 -4.87061073E-02  3.05746381E-01  2.21609002E-01  6.49124282E-02
 -2.67948623E-01 -2.74513801E-02 -7.18609269E-03 -1.80487497E-01 -2.56450736E-01
 -1.14547341E-06  4.20722596E-02  4.49127481E-01 -2.38604375E-01  1.27693894E-06
 -6.19368604E-02 -1.26933087E-01  6.29502775E-02  1.42788003E-01 -5.17263949E-07
  3.80559282E-07 -1.11781903E-03 -9.25639786E-02 -1.10823906E-01 -5.08878675E-01
  2.85643433E-06  3.58110562E-01  7.10965438E-02  9.53943297E-01 -3.02887088E-06
  1.16310306E-01 -1.20555054E-02 -7.25878681E-02 -1.33947418E-01  7.83204651E-07
 -1.17679207E-06 -3.16261418E-01  4.56049370E-01 -3.16262824E-01  4.56058126E-01
  3.06831744E-01 -9.46404405E-01 -8.85613741E-01  4.81860141E-01  2.23050001E-07
  1.19167192E-05  3.27487450E-06  6.28654824E-06  2.05731694E-01 -2.11339938E-05
 -5.38856281E-06 -7.94438403E-06 -2.95394313E-01  4.64088292E-06  3.94221991E-06
  3.72674672E-06  1.05201717E-06  1.04371279E-01  2.14910185E-02  8.96010540E-07
  6.54273448E-06  1.70642983E-06 -1.11159260E-05 -8.86303297E-01 -2.07164562E-05
  1.03398983E-06  2.06927180E-05  1.38329986E+00 -5.37095758E-07 -1.92254731E-06
  3.82302769E-06 -1.42529988E-06 -1.41788813E-01 -1.51105873E-01  6.56707409E-01
 -1.35377400E+00 -6.56696652E-01  1.35378182E+00  4.74495520E-06  9.03387904E-08
 -2.38799747E-06  7.31526908E-06 -1.58752078E-02 -7.04326638E-01 -2.31022506E-01
 -5.13953244E-01  2.41493782E-06  1.25942225E+00  4.38572191E-01  5.45606561E-01
 -3.85984739E-06 -2.76741020E-01 -2.43729033E-01 -2.27524944E-01 -1.39085384E-02
  1.73695139E-06 -2.24764467E-08 -5.02722116E-02 -3.67395123E-01 -5.18060734E-02
  5.01957009E-01 -1.52498612E-05  1.22724589E+00 -1.03834993E-01 -1.00343647E+00
  2.36576437E-05  6.79999540E-02 -9.59596536E-02 -3.56391764E-02  6.14399285E-02
 -2.21722711E-06 -1.68603801E-06 -1.63887103E-01 -5.53426992E-01 -1.63904299E-01
 -5.53394341E-01 -5.85469477E-01  6.55949599E-01  6.10464400E-03 -3.79234804E-01
 -6.87234251E-04 -5.96654403E-01  1.43957442E-01  2.32522665E-01 -5.92091389E-07
  1.06265242E+00 -2.63757173E-01 -4.45492932E-02  5.70440781E-07 -2.53516706E-01
 -4.23400372E-02 -2.10318589E-01 -1.85661034E-03  1.23708111E-08 -4.28153294E-08
 -7.24631577E-02 -4.82702296E-01 -1.88545213E-02 -4.74943019E-01  6.76115490E-08
  1.25250317E+00 -3.20088020E-01  5.00370905E-01 -8.91776038E-07 -8.13229620E-02
  7.75942876E-02 -1.65732719E-01 -6.58378204E-02  4.86704864E-07 -4.13200371E-06
 -5.68950869E-01  2.41766278E-01 -5.68959815E-01  2.41780278E-01  2.04989632E-01
 -1.06256537E+00  6.11121372E-01 -6.98624402E-01 -5.22403630E-03 -1.71545672E-01
 -2.91731883E-01 -8.99398711E-02 -6.80254078E-07  1.70338228E-01  4.15773274E-01
  1.53226962E-01  7.65254648E-07 -1.02666221E-01 -3.47678827E-02 -6.54709766E-02
  4.68319623E-03  1.23031918E-08 -1.25625841E-07  4.34398825E-02 -1.29439738E+00
  4.79982765E-01 -5.64794411E-02  8.80871835E-07  2.83897930E+00 -4.75997341E-01
 -2.73180764E-03 -1.37082686E-06 -8.55877323E-02 -3.80459322E-04 -7.44442902E-02
 -8.98862302E-03 -1.77530747E-08 -1.14252965E-06  4.46652767E-01 -9.02592806E-01
  4.46651330E-01 -9.02591908E-01  6.35785636E-01 -1.12644367E+00  1.00002287E-01
 -1.62758091E-01  1.98511664E-08  2.29099660E-06  4.11105640E-06  2.61949730E-06
 -9.24866079E-01 -6.58717134E-06 -3.08052508E-06 -4.75358055E-06  1.18099493E+00
  3.49573381E-07  3.31419155E-08  2.15541562E-06  2.81379610E-07  8.06987437E-02
 -2.50334502E-02 -5.80090132E-07 -9.15648536E-06  1.19894002E-07  1.85588491E-06
 -2.84365490E-02  2.24682691E-05 -1.90357603E-06 -1.25039692E-07 -5.03861872E-01
 -1.45461081E-06 -4.56416673E-06  3.65133890E-06 -2.26771423E-08 -1.78777538E-02
 -1.22766409E-01  2.01108689E-01 -9.64847823E-03 -2.01106697E-01  9.63553187E-03
 -6.22844012E-06 -1.72720794E-06 -3.48759040E-06  2.18178438E-06 -2.11503011E-03
  2.12989699E-01  5.52255401E-01  1.00092628E-01  7.69021453E-06 -6.65544177E-01
 -4.97969283E-01 -3.14074975E-01 -1.00192289E-05  2.55475804E-03  3.00525878E-02
  1.93456477E-01  3.49436563E-02 -8.06557330E-07  5.82387716E-07 -7.99689609E-02
 -1.29975440E+00  4.00230999E-02  1.77081018E-01 -8.89763572E-07  3.16781313E+00
 -4.57897439E-01  1.25076895E-02  5.53254776E-06 -1.98765220E-01 -1.72011431E-01
  4.39172560E-02 -3.37109712E-02 -2.18364740E-09  4.03003733E-06 -5.82138959E-02
 -8.88563166E-01 -5.82075065E-02 -8.88564807E-01 -4.60224867E-01 -4.70245809E-01
 -4.32297997E-01  3.84565893E-01  1.71256826E-02  4.64308494E-01  4.60845175E-01
 -7.82076645E-01 -1.58222007E-06 -9.78662673E-01 -9.64578447E-01  1.29285441E+00
  3.02754501E-06  1.38279486E-01  2.05816581E-01  6.65089821E-02 -1.90552661E-02
  6.49950220E-07 -6.73770722E-07  8.52186967E-03  2.09385274E-01  6.62779026E-02
 -2.39730887E-01  2.55362229E-06 -7.15027814E-01 -3.57884718E-01  1.04859042E-02
 -8.40207604E-06 -1.09141824E-01  1.71320456E-01 -8.47597924E-02  5.86769569E-02
 -1.92406024E-07 -3.62007650E-06  4.70660172E-03  1.07266872E-01  4.70414235E-03
  1.07259485E-01  2.56427660E-01 -2.69748872E-01  1.17825262E-01  1.05902640E+00
  9.04974524E-02  1.19648991E+00 -3.44198606E-01 -3.75684207E-03  1.25742490E-07
 -3.62588517E+00  1.48420443E+00  1.09866074E-01 -3.95590191E-07  5.96612952E-01
  2.86878664E-01  1.65602429E-01 -2.70303938E-01 -7.23520756E-07 -1.67476561E-06
 -7.42213471E-02 -9.14816433E-01  1.41416164E-01 -9.32649832E-02 -3.65767238E-07
  3.80286963E+00  9.47960264E-01  2.12992398E-01 -7.11800614E-07  1.44034334E-01
  6.63789547E-02 -2.52115356E-01  2.75606668E-01  1.96806244E-06 -5.82067718E-06
 -3.76558092E-01 -3.32362264E-01 -3.76560285E-01 -3.32360709E-01 -2.62708828E-01
 -5.37493934E-01  1.21512856E-01 -5.83608708E-02 -4.63747467E-07 -5.79948338E-06
  1.85115481E-06 -4.00015873E-07 -7.84735874E-03  1.81746884E-05 -8.29291036E-06
 -7.35225839E-07 -1.26732215E-01 -2.37203636E-06 -4.71205310E-06  2.01067170E-06
 -1.94613715E-06 -5.12582465E-01 -1.64579041E-01  4.53000194E-07  5.29242606E-06
 -5.08007023E-07 -9.68759768E-07 -1.87963013E-01 -2.16412694E-05 -5.12128039E-06
 -4.31337187E-07  1.28395677E-01 -1.75139436E-06 -8.29228735E-06  1.02911584E-05
  3.53040379E-06  6.34412702E-01 -3.77500640E-01  1.32150200E-01 -1.53080438E-01
 -1.32145201E-01  1.53083790E-01  1.47926001E-06  3.58669601E-06 -5.27844857E-07
  1.09029689E-06 -5.40207730E-02 -6.83953091E-01  1.22052215E-01  7.05202077E-02
  7.87523008E-07  2.01213108E+00 -5.27704945E-01 -5.14106865E-01 -9.56849412E-07
 -1.95798577E-01 -5.56921938E-01  1.80036489E-01 -4.43639552E-01  5.25624616E-06
 -2.77723540E-06  2.72378384E-02  2.64240789E-01 -1.09247632E-01 -9.75655684E-02
  7.12111320E-07 -1.41662741E+00 -4.07608902E-01 -6.37060516E-02  5.73964500E-06
 -1.59822857E-01  3.09999379E-01 -1.46315462E-01  5.00410493E-01 -5.08436032E-06
 -6.84782540E-06  4.52487290E-02  1.39096629E-01  4.52517199E-02  1.39102164E-01