methanol Gaussian Optimization on node36.bme.utexas.edu                 
SP        RMP2-FC                                                     6-311G(d,p)         
Number of atoms                            I                6
Info1-9                                    I   N=           9
          17          17           0           0           0         110
           1           2           1
Charge                                     I                0
Multiplicity                               I                1
Number of electrons                        I               18
Number of alpha electrons                  I                9
Number of beta electrons                   I                9
Number of basis functions                  I               60
Number of independent functions            I               60
Number of point charges in /Mol/           I                0
Number of translation vectors              I                0
Atomic numbers                             I   N=           6
           8           6           1           1           1           1
Nuclear charges                            R   N=           6
  8.00000000E+00  6.00000000E+00  1.00000000E+00  1.00000000E+00  1.00000000E+00
  1.00000000E+00
Current cartesian coordinates              R   N=          18
  1.42349101E+00  2.33437869E-01  1.28199613E-17 -1.26451969E+00 -3.57895232E-02
  1.28199613E-17 -1.94273295E+00 -1.03129158E+00  1.68387260E+00 -1.94272917E+00
 -1.03132560E+00 -1.68385370E+00 -2.04462131E+00  1.87108398E+00 -2.07869875E-05
  2.12928105E+00 -1.46122884E+00  1.28199613E-17
Force Field                                I                0
Int Atom Types                             I   N=           6
           0           0           0           0           0           0
MM charges                                 R   N=           6
  0.00000000E+00  0.00000000E+00  0.00000000E+00  0.00000000E+00  0.00000000E+00
  0.00000000E+00
Integer atomic weights                     I   N=           6
          16          12           1           1           1           1
Real atomic weights                        R   N=           6
  1.59949146E+01  1.20000000E+01  1.00782504E+00  1.00782504E+00  1.00782504E+00
  1.00782504E+00
Atom fragment info                         I   N=           6
           0           0           0           0           0           0
Atom residue num                           I   N=           6
           0           0           0           0           0           0
Nuclear spins                              I   N=           6
           0           0           1           1           1           1
Nuclear ZEff                               R   N=           6
 -5.60000000E+00 -3.60000000E+00 -1.00000000E+00 -1.00000000E+00 -1.00000000E+00
 -1.00000000E+00
Nuclear QMom                               R   N=           6
  0.00000000E+00  0.00000000E+00  0.00000000E+00  0.00000000E+00  0.00000000E+00
  0.00000000E+00
Nuclear GFac                               R   N=           6
  0.00000000E+00  0.00000000E+00  2.79284600E+00  2.79284600E+00  2.79284600E+00
  2.79284600E+00
MicOpt                                     I   N=           6
          -1          -1          -1          -1          -1          -1
Number of contracted shells                I               26
Number of primitive shells                 I               48
Pure/Cartesian d shells                    I                0
Pure/Cartesian f shells                    I                0
Highest angular momentum                   I                2
Largest degree of contraction              I                6
Shell types                                I   N=          26
           0          -1          -1          -1          -2           0
          -1          -1          -1          -2           0           0
           0           1           0           0           0           1
           0           0           0           1           0           0
           0           1
Number of primitives per shell             I   N=          26
           6           3           1           1           1           6
           3           1           1           1           3           1
           1           1           3           1           1           1
           3           1           1           1           3           1
           1           1
Shell to atom map                          I   N=          26
           1           1           1           1           1           2
           2           2           2           2           3           3
           3           3           4           4           4           4
           5           5           5           5           6           6
           6           6
Primitive exponents                        R   N=          48
  8.58850000E+03  1.29723000E+03  2.99296000E+02  8.73771000E+01  2.56789000E+01
  3.74004000E+00  4.21175000E+01  9.62837000E+00  2.85332000E+00  9.05661000E-01
  2.55611000E-01  1.29200000E+00  4.56324000E+03  6.82024000E+02  1.54973000E+02
  4.44553000E+01  1.30290000E+01  1.82773000E+00  2.09642000E+01  4.80331000E+00
  1.45933000E+00  4.83456000E-01  1.45585000E-01  6.26000000E-01  3.38650000E+01
  5.09479000E+00  1.15879000E+00  3.25840000E-01  1.02741000E-01  7.50000000E-01
  3.38650000E+01  5.09479000E+00  1.15879000E+00  3.25840000E-01  1.02741000E-01
  7.50000000E-01  3.38650000E+01  5.09479000E+00  1.15879000E+00  3.25840000E-01
  1.02741000E-01  7.50000000E-01  3.38650000E+01  5.09479000E+00  1.15879000E+00
  3.25840000E-01  1.02741000E-01  7.50000000E-01
Contraction coefficients                   R   N=          48
  1.89515008E-03  1.43859006E-02  7.07320031E-02  2.40001011E-01  5.94797026E-01
  2.80802012E-01  1.13889012E-01  9.20811101E-01 -3.27447036E-03  1.00000000E+00
  1.00000000E+00  1.00000000E+00  1.96665025E-03  1.52306019E-02  7.61269097E-02
  2.60801033E-01  6.16462078E-01  2.21006028E-01  1.14660081E-01  9.19999648E-01
 -3.03068213E-03  1.00000000E+00  1.00000000E+00  1.00000000E+00  2.54938145E-02
  1.90373109E-01  8.52161486E-01  1.00000000E+00  1.00000000E+00  1.00000000E+00
  2.54938145E-02  1.90373109E-01  8.52161486E-01  1.00000000E+00  1.00000000E+00
  1.00000000E+00  2.54938145E-02  1.90373109E-01  8.52161486E-01  1.00000000E+00
  1.00000000E+00  1.00000000E+00  2.54938145E-02  1.90373109E-01  8.52161486E-01
  1.00000000E+00  1.00000000E+00  1.00000000E+00
P(S=P) Contraction coefficients            R   N=          48
  0.00000000E+00  0.00000000E+00  0.00000000E+00  0.00000000E+00  0.00000000E+00
  0.00000000E+00  3.65113974E-02  2.37152983E-01  8.19701941E-01  1.00000000E+00
  1.00000000E+00  0.00000000E+00  0.00000000E+00  0.00000000E+00  0.00000000E+00
  0.00000000E+00  0.00000000E+00  0.00000000E+00  4.02486927E-02  2.37593957E-01
  8.15853851E-01  1.00000000E+00  1.00000000E+00  0.00000000E+00  0.00000000E+00
  0.00000000E+00  0.00000000E+00  0.00000000E+00  0.00000000E+00  0.00000000E+00
  0.00000000E+00  0.00000000E+00  0.00000000E+00  0.00000000E+00  0.00000000E+00
  0.00000000E+00  0.00000000E+00  0.00000000E+00  0.00000000E+00  0.00000000E+00
  0.00000000E+00  0.00000000E+00  0.00000000E+00  0.00000000E+00  0.00000000E+00
  0.00000000E+00  0.00000000E+00  0.00000000E+00
Coordinates of each shell                  R   N=          78
  1.42349058E+00  2.33437727E-01  0.00000000E+00  1.42349058E+00  2.33437727E-01
  0.00000000E+00  1.42349058E+00  2.33437727E-01  0.00000000E+00  1.42349058E+00
  2.33437727E-01  0.00000000E+00  1.42349058E+00  2.33437727E-01  0.00000000E+00
 -1.26452011E+00 -3.57897933E-02  0.00000000E+00 -1.26452011E+00 -3.57897933E-02
  0.00000000E+00 -1.26452011E+00 -3.57897933E-02  0.00000000E+00 -1.26452011E+00
 -3.57897933E-02  0.00000000E+00 -1.26452011E+00 -3.57897933E-02  0.00000000E+00
 -1.94273332E+00 -1.03129188E+00  1.68387260E+00 -1.94273332E+00 -1.03129188E+00
  1.68387260E+00 -1.94273332E+00 -1.03129188E+00  1.68387260E+00 -1.94273332E+00
 -1.03129188E+00  1.68387260E+00 -1.94272954E+00 -1.03132590E+00 -1.68385370E+00
 -1.94272954E+00 -1.03132590E+00 -1.68385370E+00 -1.94272954E+00 -1.03132590E+00
 -1.68385370E+00 -1.94272954E+00 -1.03132590E+00 -1.68385370E+00 -2.04462182E+00
  1.87108368E+00 -2.07869875E-05 -2.04462182E+00  1.87108368E+00 -2.07869875E-05
 -2.04462182E+00  1.87108368E+00 -2.07869875E-05 -2.04462182E+00  1.87108368E+00
 -2.07869875E-05  2.12928070E+00 -1.46122895E+00  0.00000000E+00  2.12928070E+00
 -1.46122895E+00  0.00000000E+00  2.12928070E+00 -1.46122895E+00  0.00000000E+00
  2.12928070E+00 -1.46122895E+00  0.00000000E+00
Constraint Structure                       R   N=          18
  1.42349058E+00  2.33437727E-01  0.00000000E+00 -1.26452011E+00 -3.57897933E-02
  0.00000000E+00 -1.94273332E+00 -1.03129188E+00  1.68387260E+00 -1.94272954E+00
 -1.03132590E+00 -1.68385370E+00 -2.04462182E+00  1.87108368E+00 -2.07869875E-05
  2.12928070E+00 -1.46122895E+00  0.00000000E+00
Num ILSW                                   I              100
ILSW                                       I   N=         100
           0           0           0           0           2           0
           0           0           0           0           0 13421772800
           0           0           0           0           0           0
           0           0           0           0           0           0
           1           0           0           0           0           0
           0           0      100000           0          -1           0
           0           0           0           0           0           0
           0           0           0           1           0           0
           0           0           1           0           0           0
           0           0           4          40           0           0
           0           0           0           0           0           0
           0           0           0           0           0           0
           0           0           0           0           0           0
           0           0           0           0           0           0
           0           0           0           0           0           0
           0           0           0           0           0           0
           0           0           0           0
Num RLSW                                   I               40
RLSW                                       R   N=          40
  1.00000000E+00  1.00000000E+00  1.00000000E+00  1.00000000E+00  1.00000000E+00
  0.00000000E+00  0.00000000E+00  1.00000000E+00  0.00000000E+00  0.00000000E+00
  0.00000000E+00  0.00000000E+00  1.00000000E+00  0.00000000E+00  0.00000000E+00
  0.00000000E+00  0.00000000E+00  1.00000000E+00  0.00000000E+00  0.00000000E+00
  0.00000000E+00  0.00000000E+00  1.00000000E+00  0.00000000E+00  0.00000000E+00
  0.00000000E+00  0.00000000E+00  1.00000000E+00  0.00000000E+00  0.00000000E+00
  0.00000000E+00  0.00000000E+00  0.00000000E+00  0.00000000E+00  0.00000000E+00
  0.00000000E+00  0.00000000E+00  0.00000000E+00  1.00000000E+00  1.00000000E+00
MxBond                                     I                4
NBond                                      I   N=           6
           2           4           1           1           1           1
IBond                                      I   N=          24
           2           6           0           0           1           3
           4           5           2           0           0           0
           2           0           0           0           2           0
           0           0           1           0           0           0
RBond                                      R   N=          24
  1.00000000E+00  1.00000000E+00  0.00000000E+00  0.00000000E+00  1.00000000E+00
  1.00000000E+00  1.00000000E+00  1.00000000E+00  1.00000000E+00  0.00000000E+00
  0.00000000E+00  0.00000000E+00  1.00000000E+00  0.00000000E+00  0.00000000E+00
  0.00000000E+00  1.00000000E+00  0.00000000E+00  0.00000000E+00  0.00000000E+00
  1.00000000E+00  0.00000000E+00  0.00000000E+00  0.00000000E+00
Virial Ratio                               R      2.000952853284123E+00
SCF Energy                                 R     -1.150739248655513E+02
MP2 Energy                                 R     -1.154361186850787E+02
Total Energy                               R     -1.154361186850787E+02
Post-SCF wavefunction norm                 R      1.048765876304753E+00
RMS Density                                R      3.466721333396303E-09
External E-field                           R   N=          35
  0.00000000E+00  0.00000000E+00  0.00000000E+00  0.00000000E+00  0.00000000E+00
  0.00000000E+00  0.00000000E+00  0.00000000E+00  0.00000000E+00  0.00000000E+00
  0.00000000E+00  0.00000000E+00  0.00000000E+00  0.00000000E+00  0.00000000E+00
  0.00000000E+00  0.00000000E+00  0.00000000E+00  0.00000000E+00  0.00000000E+00
  0.00000000E+00  0.00000000E+00  0.00000000E+00  0.00000000E+00  0.00000000E+00
  0.00000000E+00  0.00000000E+00  0.00000000E+00  0.00000000E+00  0.00000000E+00
  0.00000000E+00  0.00000000E+00  0.00000000E+00  0.00000000E+00  0.00000000E+00
IOpCl                                      I                0
IROHF                                      I                0
Alpha Orbital Energies                     R   N=          60
 -2.05458905E+01 -1.12710751E+01 -1.34585749E+00 -9.21377666E-01 -6.81813836E-01
 -6.15128151E-01 -5.85043121E-01 -5.00803597E-01 -4.47085271E-01  1.53032098E-01
  1.87401863E-01  2.24990648E-01  2.31098725E-01  3.39788067E-01  4.54818151E-01
  4.77605476E-01  5.77415134E-01  6.76423013E-01  7.26170853E-01  7.84792931E-01
  7.96495948E-01  9.00032108E-01  1.02421888E+00  1.05156067E+00  1.11398332E+00
  1.31570088E+00  1.38461059E+00  1.60110019E+00  1.61925672E+00  1.71095453E+00
  1.71485183E+00  1.73534295E+00  1.73973403E+00  1.86594823E+00  1.93730342E+00
  2.04149967E+00  2.25434995E+00  2.28781092E+00  2.39212213E+00  2.46722193E+00
  2.61418341E+00  2.64835620E+00  2.70783216E+00  2.79696833E+00  2.82213082E+00
  2.90453939E+00  3.09842367E+00  3.28918543E+00  3.46635671E+00  3.58385678E+00
  3.66874591E+00  4.06383035E+00  4.16048752E+00  4.29040706E+00  4.36567419E+00
  5.40474588E+00  5.78395372E+00  6.17160778E+00  2.50141747E+01  5.15709489E+01
Alpha MO coefficients                      R   N=        3600
  5.51471713E-01  4.71679979E-01 -8.86394252E-04 -1.53885728E-03  6.45473139E-10
  5.51603001E-03  3.14633779E-04  5.95459351E-04 -3.36096290E-10 -7.67611633E-04
  1.50103432E-04 -1.19746777E-04  2.49272463E-10  1.71680402E-04  5.38148474E-11
  7.60641704E-11 -6.85857813E-05  4.48350437E-05 -2.76358676E-06 -3.01433326E-05
  2.03600969E-05  1.54497281E-05 -6.92999690E-11  7.74938165E-05  2.61133892E-04
 -2.06118996E-05  3.94488224E-10  4.87205018E-04  1.83553678E-04  1.51804600E-04
 -8.94770144E-10 -5.76005906E-05 -4.65329412E-11 -3.72773602E-11  1.26865922E-04
 -5.32613418E-06  9.68262145E-06 -4.59859446E-05 -6.58383871E-07 -2.28769318E-05
 -1.07152946E-05 -1.89597293E-05  9.68275921E-06 -4.59853422E-05 -6.58922693E-07
 -2.28771821E-05 -1.07148106E-05  1.89600474E-05  2.93650838E-05 -1.19058017E-04
 -4.44809053E-05  7.83811543E-07 -1.64480361E-05  1.61702715E-10  2.00996060E-04
  1.19345889E-04  6.14367970E-05 -8.63158001E-05  7.67155577E-05  3.03304942E-11
 -6.51840195E-05 -1.16849505E-04 -9.19982317E-05 -1.67102573E-05 -7.59991632E-12
  2.58880528E-04 -5.25810501E-04 -3.97669447E-05  5.25015562E-11  3.82008328E-04
 -1.66536027E-04 -3.55474523E-05  5.37744510E-11 -1.04569524E-04 -7.31430774E-11
 -9.96177878E-12  1.91051500E-04  6.25923013E-05  5.63476279E-01  4.66570385E-01
  9.19153534E-04 -9.20547576E-06 -6.46448979E-11  3.97974983E-03 -7.26964501E-04
  7.74165158E-06 -7.54810139E-10 -1.21836194E-03  1.20570404E-04 -2.99958246E-05
  4.03885505E-10  1.16068890E-04  4.82955993E-12 -4.51557416E-10 -2.57793530E-04
 -5.37599143E-05  3.41771301E-04  1.07181920E-04  2.41561392E-04  3.82472629E-05
  6.84602487E-08  4.43399307E-06  3.41771448E-04  1.07181804E-04  2.41561493E-04
  3.82472681E-05  6.83367124E-08 -4.43400112E-06  3.37125258E-04  8.10291511E-05
  2.72275496E-04  2.82170277E-05  2.38329582E-05 -2.07503847E-10 -1.52472143E-05
  8.90064928E-06 -2.31967953E-05 -1.51349895E-05  3.55129116E-05 -2.20989425E-11
 -1.09820685E-01 -1.83504741E-01 -1.83968320E-02 -2.76665229E-02 -4.12957374E-09
  5.21709450E-01 -3.44798105E-02 -4.81935538E-02 -2.63756494E-09  3.97806682E-01
 -2.87293139E-02 -1.85817930E-02 -8.85255047E-09 -7.62703269E-03 -3.93349501E-10
  3.08185236E-10  1.12585755E-03 -1.19580798E-03 -3.66785665E-02 -6.00102160E-02
  3.86090205E-02  2.10991491E-03 -8.54490032E-09  1.50169413E-01  7.80827596E-02
  3.46348247E-03 -1.28465272E-08  4.80420082E-03 -3.99388009E-03 -4.84322436E-03
  3.41836463E-08 -1.40509946E-02  4.68723808E-09  4.80929921E-09  2.32490663E-02
  1.98332301E-03  1.47378660E-02  2.98214906E-02 -1.05677406E-03  3.90536664E-03
  4.14978950E-03 -6.60114316E-03  1.47378965E-02  2.98215177E-02 -1.05675935E-03
  3.90535077E-03  4.14992220E-03  6.60106493E-03  1.49176866E-02  3.14182769E-02
  1.08771930E-03  3.79063355E-03 -7.53867944E-03  8.18856741E-08  8.63327697E-02
  7.33290481E-02 -3.14053389E-04 -1.25563808E-02  2.29331674E-02  2.05059850E-09
  3.19305469E-02  5.36807083E-02 -7.83388779E-02  2.58221715E-02 -1.88472272E-08
 -1.55878092E-01 -1.25395945E-01  4.22603723E-02 -2.69244478E-08 -1.49828716E-01
 -7.00081888E-02  1.46623724E-02 -3.17637058E-08 -1.40894570E-03  1.91420802E-09
  1.03898615E-09  1.15900165E-02  6.88626721E-03 -9.49902947E-02 -1.57911711E-01
 -3.22685098E-02  3.03283601E-03 -6.68859005E-08  4.11486943E-01 -3.02649151E-02
  5.99507957E-03 -9.22053600E-08  2.49545579E-01 -2.51194798E-02 -8.69517957E-03
  4.52030637E-08  1.17062434E-04 -2.15941342E-09 -1.02290024E-08 -2.85792901E-03
  1.39517795E-03  8.40634366E-02  1.17156257E-01  3.96884491E-03  4.92000760E-03
  1.01762505E-02 -1.65886706E-02  8.40634665E-02  1.17156309E-01  3.96889839E-03
  4.91998589E-03  1.01765841E-02  1.65884722E-02  8.69996111E-02  1.25514638E-01
  7.53276272E-03  5.68442807E-03 -1.99451008E-02  2.16088742E-07 -6.64597487E-02
 -8.04039667E-02 -1.30889090E-02  2.17130062E-03 -1.61066187E-02 -4.60847539E-09
 -2.13239685E-02 -3.63033705E-02 -9.40595285E-02  1.66231150E-01  1.93228886E-08
  1.11469080E-01 -1.49269156E-01  2.55273682E-01  2.51063419E-08  1.63015565E-01
 -8.93040034E-02  1.75276540E-01  5.50606419E-08  4.99389446E-03 -3.86863549E-09
 -1.02874138E-09  1.93142800E-02  1.56356099E-03  1.00357568E-02  1.61415112E-02
  7.03751311E-02  9.67912923E-02  1.85569496E-08 -3.80255233E-02  1.22470682E-01
  1.62007709E-01  2.14859785E-08 -5.30444349E-02  4.66690203E-02  9.72022030E-02
 -1.41868841E-07 -2.35477071E-02  3.65713019E-08 -4.15948811E-07  1.45305521E-02
  1.09193133E-02 -6.54164405E-02 -8.83862529E-02 -2.42603137E-02  5.57347267E-04
  6.74716551E-05  7.91616056E-03 -6.54176333E-02 -8.83880063E-02 -2.42609683E-02
  5.57298341E-04  6.72317687E-05 -7.91623452E-03  3.62276887E-02  4.39954128E-02
  1.39352123E-02  3.05823685E-03 -1.84127761E-03  7.32726070E-08 -1.33441301E-01
 -2.06327475E-01 -4.09861750E-02  1.41084810E-02 -2.50254671E-02  3.13267870E-09
 -1.61830859E-08 -2.75088406E-08  1.14129800E-07  4.19392186E-08  1.51684347E-01
  7.83593683E-08  1.70597415E-07  4.99146958E-08  2.35996299E-01  1.62298745E-07
  1.43814410E-07  7.11075952E-08  2.05779048E-01  9.13073163E-09 -1.12310441E-02
 -8.21975356E-03 -3.27256102E-09 -1.04373159E-08 -3.43137326E-08 -5.84753408E-08
 -1.53783995E-07  3.32103501E-08  1.63539209E-01  1.57165136E-07 -2.73477193E-07
  4.65707087E-08  2.64981769E-01  2.70799340E-07 -1.48731278E-07 -2.01442735E-07
  1.52456084E-01  5.99015814E-07  7.95145329E-04 -2.33961965E-02  3.33094737E-07
  5.49498723E-08  1.10322134E-01  1.65629628E-01  6.60607234E-02  4.54384729E-03
  8.64770971E-03 -7.35553460E-03 -1.10320806E-01 -1.65627876E-01 -6.60601805E-02
 -4.54381486E-03 -8.64792261E-03 -7.35519309E-03 -1.23808196E-06 -1.74996617E-06
 -5.25184023E-07 -5.14239674E-08  2.03912823E-07  8.94361434E-03  1.95198687E-08
 -3.82798052E-08  1.56049472E-08  3.62510305E-08  5.34643347E-09  1.57555084E-02
 -1.35462422E-02 -2.29253158E-02  1.77044768E-01  5.88751762E-02 -1.61401526E-07
  6.91988372E-02  2.74866286E-01  9.03588613E-02 -2.58266889E-07  9.98794832E-02
  2.24151396E-01  8.47411896E-02 -1.92517843E-07  6.33498626E-03  1.40003147E-08
  2.26548181E-09 -8.81807612E-03 -1.77307880E-02  2.81066965E-04  1.34745940E-03
 -1.29307598E-01  9.99212106E-02 -1.40627945E-07 -5.96024564E-03 -2.29072932E-01
  1.61419853E-01 -2.21749380E-07  1.71520782E-02 -1.11724784E-01  1.24784131E-01
 -3.36160375E-07  6.79031355E-03  2.19593772E-08 -5.10894458E-07 -4.21313612E-02
 -9.70483864E-03 -4.09724974E-03 -5.77572034E-03 -1.22628916E-03 -5.71288716E-03
  3.11720943E-03  2.21265288E-03 -4.09868522E-03 -5.77789549E-03 -1.22731790E-03
 -5.71295359E-03  3.11707214E-03 -2.21281694E-03  1.25071464E-01  1.73827874E-01
  6.39648005E-02 -7.17872494E-04 -1.06157902E-02  1.67274781E-07  3.36342129E-02
  4.33879536E-02  4.37017174E-02  1.60928078E-02  1.20511122E-02 -9.01868411E-09
 -2.54110838E-02 -4.31800178E-02  7.68570470E-02  1.72053514E-01  3.39416129E-08
  1.30687963E-01  1.14569082E-01  2.55772563E-01  5.34307256E-08  2.19254266E-01
  1.34830246E-01  2.40133715E-01  5.17088170E-08  1.02655545E-02 -7.99209973E-10
  1.94528084E-08  5.38412061E-03 -8.80522591E-04  4.55300357E-03  7.93736074E-03
 -3.71459033E-02 -1.37915139E-01 -3.08818970E-08 -2.46595686E-02 -7.14467381E-02
 -2.13555673E-01 -3.80112152E-08  1.56010575E-02 -1.11456680E-02 -1.12614624E-01
 -6.49078286E-08  2.34364083E-02 -4.04994671E-08  5.90734987E-07 -5.49870514E-03
  2.97475351E-02  7.20040169E-02  1.21563412E-01  6.31109096E-02  1.06512221E-03
 -4.65848750E-03 -9.95254951E-03  7.20062591E-02  1.21567531E-01  6.31126707E-02
  1.06522627E-03 -4.65809508E-03  9.95281795E-03 -1.12293393E-01 -2.15756222E-01
 -7.78259351E-02 -9.68752599E-03  1.35940466E-02 -2.52845205E-07 -8.44210001E-02
 -1.59235428E-01 -3.50380907E-02  1.99671643E-02 -1.11869786E-02 -2.19785805E-08
  1.49097669E-08  2.51050122E-08  5.98314261E-08  5.73268287E-09  2.50738100E-01
 -6.08613389E-08  9.08287385E-08  2.19319851E-08  3.76140597E-01 -2.70257660E-07
  6.30937332E-08  1.26375061E-07  4.17315841E-01 -9.58574543E-09 -3.44751116E-03
 -1.09529147E-02 -6.56422485E-09 -7.30571747E-09  5.27024665E-09  1.04008876E-08
  1.12286161E-08  6.99383823E-08 -1.03259889E-01 -4.31104300E-08  4.21448414E-08
  1.14987788E-07 -1.57946035E-01 -2.26024850E-10  5.09519571E-09 -2.43780798E-09
 -7.87663114E-02 -3.81876623E-07  3.58870096E-02  1.76047968E-02 -2.48081235E-07
 -4.29472798E-08 -9.16852445E-02 -1.86912563E-01 -8.04555506E-02 -4.99076525E-03
 -8.23763094E-03  6.99286703E-03  9.16841715E-02  1.86910390E-01  8.04544936E-02
  4.99068579E-03  8.23786287E-03  6.99251326E-03  1.13809666E-06  2.28596653E-06
  1.03636121E-06  7.33349120E-08 -2.24296839E-07 -8.12448425E-03  3.86397450E-08
  2.77411007E-07  3.72982954E-08 -3.82834843E-08  2.18961616E-08  2.57346267E-02
 -1.97453228E-02 -3.28907074E-02  3.36212159E-02 -5.08684856E-02  4.93727428E-08
  8.26170901E-02  2.69215423E-02 -7.12864526E-02  3.34584123E-08  3.59347380E-01
  2.11110929E-01 -1.30049362E-01  3.23556802E-07 -4.88063026E-04  1.19155794E-08
 -1.16477736E-08 -2.14528352E-03  1.60809687E-03 -2.98742998E-02 -4.74893265E-02
 -5.86491628E-02 -2.32447045E-02 -2.88279161E-07  1.69742062E-02 -6.43109542E-02
 -1.78675823E-02 -1.91246561E-07  1.67311901E+00 -2.29735882E-01 -1.68277938E-01
 -2.43266557E-06 -4.89582850E-03 -8.17572356E-09 -1.01208931E-07  6.81805076E-03
 -5.93025118E-03 -3.56332257E-03 -1.28337976E-02 -7.84931965E-01 -6.77129494E-03
  1.74036072E-03 -3.56514478E-04 -3.56339222E-03 -1.28333315E-02 -7.84941542E-01
 -6.77124564E-03  1.74045027E-03  3.56628494E-04 -2.37533154E-03 -4.59348551E-02
 -4.32686297E-01 -9.18871236E-03  4.83426578E-03 -5.34974811E-08 -3.22934542E-02
  9.82601730E-02 -9.26644192E-01 -8.63814360E-03  1.03295667E-02  1.05322865E-08
  2.31253144E-02  3.81383013E-02  5.07613166E-03  6.38305545E-02 -1.08091560E-07
 -7.95906217E-02  2.94295152E-02  8.93622098E-02 -9.67846948E-08 -5.72855849E-01
 -2.87920540E-02  2.03845018E-01 -5.49594714E-07  4.22285518E-04 -1.94740212E-08
  1.94424098E-08  6.02543147E-03 -3.35166375E-03 -3.65888823E-02 -5.94296507E-02
 -6.81387740E-03  2.36520619E-02  4.11616946E-07  8.90312974E-02  1.93319021E-02
  1.31090380E-02  2.56330413E-07  1.27839609E+00 -1.64615056E-01  2.51283654E-01
  2.90978015E-06  8.09994539E-04  3.57790695E-08  7.79680119E-08 -6.02548862E-03
  5.16340024E-03 -1.29523821E-02  7.83361489E-02 -6.01665595E-01  8.00311740E-03
 -1.59843070E-03 -3.83637434E-03 -1.29522127E-02  7.83357536E-02 -6.01651784E-01
  8.00304471E-03 -1.59847343E-03  3.83621532E-03 -1.34529670E-02  7.33263452E-02
 -1.06016199E+00  9.00580027E-03 -6.54884024E-03  7.91030646E-08  3.93315203E-02
 -8.51506734E-02  1.19808444E+00  1.04076170E-02 -6.33385962E-04 -4.01755708E-08
 -1.97843851E-07 -3.26691709E-07 -9.67954803E-08 -4.59610558E-07 -1.46602456E-02
  6.81076878E-07 -2.45642255E-07 -5.56638599E-07 -8.17488140E-03  5.29860938E-06
 -8.46228797E-08 -2.20980697E-06 -1.07384206E-01 -6.87193524E-08 -6.86060977E-03
  2.31169984E-03 -6.20110042E-08 -7.40606509E-08  8.70555922E-08  1.44638162E-07
 -4.15732006E-07  1.30292688E-06  1.42757015E-01 -3.14443804E-07 -5.86201213E-07
  7.58125595E-07  8.40577857E-02 -1.73237579E-06 -2.71342265E-06  9.98516581E-06
  1.11101883E+00 -4.44576865E-07  1.82549792E-02  2.55758880E-02 -2.15611234E-07
  1.58980491E-07 -1.35915323E-02  1.83098615E-01 -1.90814055E+00  8.71272510E-03
  1.70143505E-02 -2.44798716E-02  1.35916259E-02 -1.83099374E-01  1.90814208E+00
 -8.71281450E-03 -1.70148235E-02 -2.44795769E-02 -3.21267409E-08 -7.75362863E-07
  2.76745720E-06 -6.93180581E-08  8.84140749E-08  3.88981146E-03 -4.44174059E-08
  1.30851319E-06 -9.59131336E-06 -3.35177016E-08 -8.28264393E-08 -7.02543315E-03
  9.51753851E-03  1.58168984E-02  1.18734398E-02  2.82197679E-02 -2.02424877E-07
 -3.57606150E-02  2.08624090E-02  3.30623694E-02 -2.04941368E-07 -2.34916432E-01
  3.73295382E-02  1.31378194E-01 -1.11248955E-06 -7.71315196E-04 -6.63935646E-08
 -5.00147836E-08 -1.10508611E-03  6.23082723E-03 -4.17112434E-03 -7.01106600E-03
  2.51070873E-02 -1.36048038E-01  1.49468585E-06  1.41822919E-02  2.93196514E-02
 -7.81352140E-02  8.72704042E-07  7.34002126E-02  2.03525037E-01 -1.08476727E+00
  1.20151888E-05 -2.08511945E-02  2.20075089E-07 -5.44570427E-07 -1.65253630E-02
 -2.03228306E-02 -1.19662474E-02  1.04884673E-01 -1.10135862E+00  8.25807628E-03
  4.72418948E-03 -1.57959264E-02 -1.19662582E-02  1.04884717E-01 -1.10135797E+00
  8.25804942E-03  4.72448915E-03  1.57958370E-02  1.91112817E-02 -1.50749732E-01
  2.12679226E+00 -1.00281932E-02  3.25613200E-02 -3.55902101E-07  2.72115538E-03
 -4.84917921E-02  2.97662078E-01  1.50576781E-03 -3.06753128E-03  4.24609135E-08
  2.42455419E-02  3.97859638E-02  1.35056628E-01 -2.36044917E-02  1.94272920E-08
 -6.85846452E-02  1.58116312E-01 -1.78251235E-02  3.20761249E-08 -9.94957857E-01
  8.07013347E-01 -6.82176277E-02  9.30924702E-08  4.08933747E-03 -5.18292147E-09
  1.43839830E-08 -4.92784938E-04 -2.46973630E-03 -1.50642802E-02 -2.49285327E-02
  9.99752064E-02  1.87492802E-02  1.16624916E-07  2.36690889E-02  1.00655147E-01
  1.82650132E-02  1.46092812E-07  5.89545221E-01  1.76733417E+00  3.04653913E-01
 -1.65776216E-07  9.06156690E-03  3.27004708E-08  3.06907345E-08 -1.47271830E-02
 -6.50780313E-03  1.29625568E-02  1.96213450E-01  3.48715901E-01  6.27203255E-03
  2.16966479E-03  1.14136068E-03  1.29625702E-02  1.96212463E-01  3.48723388E-01
  6.27200533E-03  2.16960631E-03 -1.14144777E-03  1.46862483E-02  1.71905776E-01
 -1.72802933E-01  1.31925520E-03 -1.03389742E-03  1.70891773E-08 -3.49647396E-03
  8.68938953E-02 -8.98557012E-01 -7.02434120E-03  1.59200205E-02 -7.57985722E-08
  4.77802530E-03  8.77645860E-03 -2.15724720E-02 -5.25269947E-02  7.24159100E-07
 -5.28752890E-02 -4.10243929E-02 -5.68082045E-02  8.00161591E-07  1.41462122E-01
  6.36787552E-02 -5.91567489E-01  4.36544100E-06 -3.67219489E-03  4.01359725E-08
  9.52643605E-08 -5.39611388E-03 -1.23884041E-02 -1.88637502E-03 -4.38525187E-03
  1.10137302E-03  8.65753262E-03 -1.80291215E-07  4.51113056E-02  3.21442035E-03
  7.12621052E-02 -8.03007577E-07 -1.34688496E-01 -2.26124106E-01  1.87457571E+00
 -1.98252727E-05 -2.28672753E-02  5.91924430E-07 -5.93103695E-07 -8.94218118E-03
 -3.58750801E-02  2.49485351E-02  7.06808543E-01 -4.37291384E-02  2.22741977E-02
  3.22513441E-02 -2.32048863E-02  2.49485575E-02  7.06807567E-01 -4.37305821E-02
  2.22741371E-02  3.22518529E-02  2.32041593E-02 -5.14408042E-02 -1.40927673E+00
  6.85426363E-03 -4.72509779E-02  6.54936750E-02 -8.01015270E-07  2.42560741E-02
 -4.56179329E-01  4.71348918E-01  4.45241651E-02 -3.18035271E-02 -4.05688306E-07
  1.25411064E-07  2.11608647E-07 -2.81500549E-07 -1.61348725E-07 -7.33144174E-02
 -3.02798432E-07 -6.30236545E-07  1.60691524E-07 -8.93590439E-02 -5.64812801E-06
 -8.34839408E-07  1.54772144E-06 -3.76381625E-01 -6.60662346E-08 -8.45523398E-03
  8.07425971E-03 -3.92442015E-08 -1.20217894E-07  2.50506229E-08  4.69843285E-08
 -1.73289018E-07  4.51649854E-07  3.04746084E-02 -4.86373220E-07  1.03530957E-07
  1.22624817E-06  8.76215820E-02  2.22920987E-06 -1.21106349E-06  1.80900398E-05
  1.80283545E+00  1.12997017E-07 -4.54623441E-02 -1.75053708E-02  3.44305793E-07
 -3.70642476E-07 -4.91102978E-02 -1.20839363E+00 -2.55483527E-02 -2.61331933E-02
 -1.47426809E-02  5.32271676E-02  4.91105440E-02  1.20839457E+00  2.55475582E-02
  2.61328568E-02  1.47438108E-02  5.32269649E-02 -2.82291749E-07 -2.06455222E-06
  1.35717640E-06  8.39773414E-08  3.10366675E-07  2.60307785E-02  5.49746293E-07
  1.11334097E-05 -4.27648887E-06 -5.46186964E-07  4.92835790E-07 -6.16806046E-03