Generated by Psi4
        SP                        DF-MP2                      6-311G**
Number of atoms                            I                9
Charge                                     I                0
Multiplicity                               I                1
Number of electrons                        I               32
Number of alpha electrons                  I               16
Number of beta electrons                   I               16
Number of basis functions                  I              102
Number of independent functions            I              102
Atomic numbers                             I   N=           9
           8           7           6           6           1           1
           1           1           1
Nuclear charges                            R   N=           9
  8.00000000e+00  7.00000000e+00  6.00000000e+00  6.00000000e+00  1.00000000e+00
  1.00000000e+00  1.00000000e+00  1.00000000e+00  1.00000000e+00
Current cartesian coordinates              R   N=          27
  1.17813575e+00 -2.17093688e+00 -3.85656241e-01  1.39294898e+00  2.08605972e+00
  1.95512583e-01 -2.74681952e+00  1.01012247e-01  1.48986259e-01  9.71376140e-02
 -1.50912099e-01 -2.16484895e-02 -3.59056738e+00 -1.72727572e+00 -2.73062610e-01
 -3.30999484e+00  6.83856963e-01  2.05122796e+00 -3.44380073e+00  1.51344431e+00
 -1.18754066e+00  3.29078170e+00  1.95511307e+00  3.81097335e-01  5.50899390e-01
  3.63890966e+00  9.16213070e-01
Integer atomic weights                     I   N=           9
          15          14          12          12           1           1
           1           1           1
Real atomic weights                        R   N=           9
  1.59949146e+01  1.40030740e+01  1.20000000e+01  1.20000000e+01  1.00782503e+00
  1.00782503e+00  1.00782503e+00  1.00782503e+00  1.00782503e+00
Number of primitive shells                 I               98
Number of contracted shells                I               52
Pure/Cartesian d shells                    I                0
Pure/Cartesian f shells                    I                0
Highest angular momentum                   I                2
Largest degree of contraction              I                6
Shell types                                I   N=          52
           0           0           1           0           1           0
           1          -2           0           0           1           0
           1           0           1          -2           0           0
           1           0           1           0           1          -2
           0           0           1           0           1           0
           1          -2           0           0           0           1
           0           0           0           1           0           0
           0           1           0           0           0           1
           0           0           0           1
Number of primitives per shell             I   N=          52
           6           3           3           1           1           1
           1           1           6           3           3           1
           1           1           1           1           6           3
           3           1           1           1           1           1
           6           3           3           1           1           1
           1           1           3           1           1           1
           3           1           1           1           3           1
           1           1           3           1           1           1
           3           1           1           1
Shell to atom map                          I   N=          52
           1           1           1           1           1           1
           1           1           2           2           2           2
           2           2           2           2           3           3
           3           3           3           3           3           3
           4           4           4           4           4           4
           4           4           5           5           5           5
           6           6           6           6           7           7
           7           7           8           8           8           8
           9           9           9           9
Primitive exponents                        R   N=          98
  8.58850000e+03  1.29723000e+03  2.99296000e+02  8.73771000e+01  2.56789000e+01
  3.74004000e+00  4.21175000e+01  9.62837000e+00  2.85332000e+00  4.21175000e+01
  9.62837000e+00  2.85332000e+00  9.05661000e-01  9.05661000e-01  2.55611000e-01
  2.55611000e-01  1.29200000e+00  6.29348000e+03  9.49044000e+02  2.18776000e+02
  6.36916000e+01  1.88282000e+01  2.72023000e+00  3.06331000e+01  7.02614000e+00
  2.11205000e+00  3.06331000e+01  7.02614000e+00  2.11205000e+00  6.84009000e-01
  6.84009000e-01  2.00878000e-01  2.00878000e-01  9.13000000e-01  4.56324000e+03
  6.82024000e+02  1.54973000e+02  4.44553000e+01  1.30290000e+01  1.82773000e+00
  2.09642000e+01  4.80331000e+00  1.45933000e+00  2.09642000e+01  4.80331000e+00
  1.45933000e+00  4.83456000e-01  4.83456000e-01  1.45585000e-01  1.45585000e-01
  6.26000000e-01  4.56324000e+03  6.82024000e+02  1.54973000e+02  4.44553000e+01
  1.30290000e+01  1.82773000e+00  2.09642000e+01  4.80331000e+00  1.45933000e+00
  2.09642000e+01  4.80331000e+00  1.45933000e+00  4.83456000e-01  4.83456000e-01
  1.45585000e-01  1.45585000e-01  6.26000000e-01  3.38650000e+01  5.09479000e+00
  1.15879000e+00  3.25840000e-01  1.02741000e-01  7.50000000e-01  3.38650000e+01
  5.09479000e+00  1.15879000e+00  3.25840000e-01  1.02741000e-01  7.50000000e-01
  3.38650000e+01  5.09479000e+00  1.15879000e+00  3.25840000e-01  1.02741000e-01
  7.50000000e-01  3.38650000e+01  5.09479000e+00  1.15879000e+00  3.25840000e-01
  1.02741000e-01  7.50000000e-01  3.38650000e+01  5.09479000e+00  1.15879000e+00
  3.25840000e-01  1.02741000e-01  7.50000000e-01
Contraction coefficients                   R   N=          98
  1.89515008e-03  1.43859006e-02  7.07320031e-02  2.40001011e-01  5.94797026e-01
  2.80802012e-01  1.13889012e-01  9.20811101e-01 -3.27447036e-03  3.65113974e-02
  2.37152983e-01  8.19701941e-01  1.00000000e+00  1.00000000e+00  1.00000000e+00
  1.00000000e+00  1.00000000e+00  1.96978815e-03  1.49612859e-02  7.35005308e-02
  2.48936766e-01  6.02459433e-01  2.56201759e-01  1.11906080e-01  9.21666655e-01
 -2.56919183e-03  3.83119186e-02  2.37403116e-01  8.17592398e-01  1.00000000e+00
  1.00000000e+00  1.00000000e+00  1.00000000e+00  1.00000000e+00  1.96665025e-03
  1.52306019e-02  7.61269097e-02  2.60801033e-01  6.16462078e-01  2.21006028e-01
  1.14660081e-01  9.19999648e-01 -3.03068213e-03  4.02486927e-02  2.37593957e-01
  8.15853851e-01  1.00000000e+00  1.00000000e+00  1.00000000e+00  1.00000000e+00
  1.00000000e+00  1.96665025e-03  1.52306019e-02  7.61269097e-02  2.60801033e-01
  6.16462078e-01  2.21006028e-01  1.14660081e-01  9.19999648e-01 -3.03068213e-03
  4.02486927e-02  2.37593957e-01  8.15853851e-01  1.00000000e+00  1.00000000e+00
  1.00000000e+00  1.00000000e+00  1.00000000e+00  2.54938145e-02  1.90373109e-01
  8.52161486e-01  1.00000000e+00  1.00000000e+00  1.00000000e+00  2.54938145e-02
  1.90373109e-01  8.52161486e-01  1.00000000e+00  1.00000000e+00  1.00000000e+00
  2.54938145e-02  1.90373109e-01  8.52161486e-01  1.00000000e+00  1.00000000e+00
  1.00000000e+00  2.54938145e-02  1.90373109e-01  8.52161486e-01  1.00000000e+00
  1.00000000e+00  1.00000000e+00  2.54938145e-02  1.90373109e-01  8.52161486e-01
  1.00000000e+00  1.00000000e+00  1.00000000e+00
Coordinates of each shell                  R   N=         156
  1.17813575e+00 -2.17093688e+00 -3.85656241e-01  1.17813575e+00 -2.17093688e+00
 -3.85656241e-01  1.17813575e+00 -2.17093688e+00 -3.85656241e-01  1.17813575e+00
 -2.17093688e+00 -3.85656241e-01  1.17813575e+00 -2.17093688e+00 -3.85656241e-01
  1.17813575e+00 -2.17093688e+00 -3.85656241e-01  1.17813575e+00 -2.17093688e+00
 -3.85656241e-01  1.17813575e+00 -2.17093688e+00 -3.85656241e-01  1.39294898e+00
  2.08605972e+00  1.95512583e-01  1.39294898e+00  2.08605972e+00  1.95512583e-01
  1.39294898e+00  2.08605972e+00  1.95512583e-01  1.39294898e+00  2.08605972e+00
  1.95512583e-01  1.39294898e+00  2.08605972e+00  1.95512583e-01  1.39294898e+00
  2.08605972e+00  1.95512583e-01  1.39294898e+00  2.08605972e+00  1.95512583e-01
  1.39294898e+00  2.08605972e+00  1.95512583e-01 -2.74681952e+00  1.01012247e-01
  1.48986259e-01 -2.74681952e+00  1.01012247e-01  1.48986259e-01 -2.74681952e+00
  1.01012247e-01  1.48986259e-01 -2.74681952e+00  1.01012247e-01  1.48986259e-01
 -2.74681952e+00  1.01012247e-01  1.48986259e-01 -2.74681952e+00  1.01012247e-01
  1.48986259e-01 -2.74681952e+00  1.01012247e-01  1.48986259e-01 -2.74681952e+00
  1.01012247e-01  1.48986259e-01  9.71376140e-02 -1.50912099e-01 -2.16484895e-02
  9.71376140e-02 -1.50912099e-01 -2.16484895e-02  9.71376140e-02 -1.50912099e-01
 -2.16484895e-02  9.71376140e-02 -1.50912099e-01 -2.16484895e-02  9.71376140e-02
 -1.50912099e-01 -2.16484895e-02  9.71376140e-02 -1.50912099e-01 -2.16484895e-02
  9.71376140e-02 -1.50912099e-01 -2.16484895e-02  9.71376140e-02 -1.50912099e-01
 -2.16484895e-02 -3.59056738e+00 -1.72727572e+00 -2.73062610e-01 -3.59056738e+00
 -1.72727572e+00 -2.73062610e-01 -3.59056738e+00 -1.72727572e+00 -2.73062610e-01
 -3.59056738e+00 -1.72727572e+00 -2.73062610e-01 -3.30999484e+00  6.83856963e-01
  2.05122796e+00 -3.30999484e+00  6.83856963e-01  2.05122796e+00 -3.30999484e+00
  6.83856963e-01  2.05122796e+00 -3.30999484e+00  6.83856963e-01  2.05122796e+00
 -3.44380073e+00  1.51344431e+00 -1.18754066e+00 -3.44380073e+00  1.51344431e+00
 -1.18754066e+00 -3.44380073e+00  1.51344431e+00 -1.18754066e+00 -3.44380073e+00
  1.51344431e+00 -1.18754066e+00  3.29078170e+00  1.95511307e+00  3.81097335e-01
  3.29078170e+00  1.95511307e+00  3.81097335e-01  3.29078170e+00  1.95511307e+00
  3.81097335e-01  3.29078170e+00  1.95511307e+00  3.81097335e-01  5.50899390e-01
  3.63890966e+00  9.16213070e-01  5.50899390e-01  3.63890966e+00  9.16213070e-01
  5.50899390e-01  3.63890966e+00  9.16213070e-01  5.50899390e-01  3.63890966e+00
  9.16213070e-01
Total Energy                               R     -2.086975264365383e+02
Alpha Orbital Energies                     R   N=         102
 -2.05117120e+01 -1.55790240e+01 -1.13538787e+01 -1.12391558e+01 -1.37192966e+00
 -1.20633745e+00 -1.00442310e+00 -7.93034461e-01 -7.17371197e-01 -6.60414789e-01
 -6.13624759e-01 -5.81454348e-01 -5.59458915e-01 -5.22107071e-01 -4.23439095e-01
 -4.11104401e-01  1.37698523e-01  1.78695461e-01  1.85712925e-01  2.06176166e-01
  2.32089506e-01  2.37730227e-01  3.55077447e-01  3.96909294e-01  4.52608090e-01
  4.76084687e-01  5.18707494e-01  5.49719643e-01  6.04553516e-01  6.32301800e-01
  6.42259176e-01  7.30733915e-01  7.74724903e-01  7.91223000e-01  7.94593892e-01
  8.40929033e-01  8.55520388e-01  8.89638948e-01  9.35445461e-01  9.61174512e-01
  1.03717462e+00  1.08717692e+00  1.15814878e+00  1.16343934e+00  1.26737289e+00
  1.35214790e+00  1.45948764e+00  1.48069197e+00  1.54193779e+00  1.67641997e+00
  1.69299837e+00  1.70792827e+00  1.74673467e+00  1.75029939e+00  1.77842792e+00
  1.83963754e+00  1.90278749e+00  1.95238682e+00  1.99267043e+00  2.03831418e+00
  2.07525380e+00  2.10237236e+00  2.18352253e+00  2.27608764e+00  2.32165194e+00
  2.39221600e+00  2.49396537e+00  2.64094331e+00  2.66167467e+00  2.69704763e+00
  2.71536878e+00  2.74202971e+00  2.78926652e+00  2.84433941e+00  2.90073143e+00
  2.90350155e+00  2.98528235e+00  3.07628705e+00  3.13913383e+00  3.16246102e+00
  3.28871063e+00  3.31663521e+00  3.35432948e+00  3.47561872e+00  3.57753011e+00
  3.72412983e+00  3.74311012e+00  3.95477832e+00  4.12768621e+00  4.16045022e+00
  4.25116078e+00  4.27263452e+00  4.50069991e+00  5.24027706e+00  5.37980937e+00
  5.48368148e+00  5.61413115e+00  6.20010240e+00  2.49168541e+01  2.50667195e+01
  3.70230154e+01  5.16935069e+01
Alpha MO coefficients                      R   N=       10404
  5.51476761e-01  4.71689273e-01 -7.60504032e-04  1.52983893e-03  2.74403731e-04
  5.48325830e-03  2.69713077e-04 -5.58781666e-04 -9.88221835e-05 -1.22019081e-03
  7.52090507e-05 -1.21848198e-04 -2.18783605e-05 -1.13302706e-04  1.79843910e-06
  2.11277488e-05  5.94763533e-05  7.83709190e-05  3.78626723e-07  9.73337013e-07
  1.89019623e-06  1.12041969e-05  1.11193255e-06 -1.93890167e-05 -1.08563763e-05
 -2.61057122e-05 -1.97346558e-06  2.35160386e-04 -3.36043496e-04  1.10806361e-04
  4.85495169e-05 -8.55005291e-06 -6.54078830e-06  1.02477306e-05 -2.23350821e-05
  1.10116747e-05  1.19130807e-06  6.27270452e-07 -1.48966143e-05 -3.37301397e-08
  1.06691179e-06 -9.64674689e-07  5.58448787e-05  3.11828957e-06 -3.34013269e-06
  2.53788707e-04  1.01263678e-04  1.75489945e-04  2.71307054e-05 -1.00341402e-05
 -1.76198149e-06  2.03821472e-07  2.60218302e-05  7.48373243e-06  4.85159755e-06
 -7.38700026e-05  3.84002011e-05 -6.18802341e-05 -1.21449441e-05  3.14922558e-04
  1.67468111e-04 -3.45048191e-04 -5.99429472e-05  2.88403935e-04  4.68593546e-04
 -7.46818779e-04 -1.42668569e-04 -4.83714859e-05 -2.81965828e-05  3.79092606e-05
 -9.65624899e-05 -1.67330531e-04  3.68348089e-06  1.91001862e-05  4.69521050e-05
 -1.80451854e-05  1.26842099e-05  5.05210209e-06 -3.13696029e-06  1.12951676e-05
 -2.84367544e-05  1.29614542e-05 -1.23083504e-05 -3.98125653e-06 -2.10353476e-06
  1.24259824e-05 -4.25439727e-05  1.40565790e-05 -1.40759214e-05 -4.31455262e-06
 -3.07656106e-06  1.28293426e-04  9.07323958e-07 -1.62751479e-05  1.57553280e-05
 -1.17704713e-05  7.69278710e-06 -1.52629476e-04  1.27917467e-05 -2.98067990e-06
  1.49684490e-05  1.84349626e-05  3.46347824e-06  5.18866603e-06 -1.12745742e-05
 -1.11639026e-05 -1.75166366e-06 -1.01477412e-05  2.40806922e-05  8.58571769e-06
 -3.72430504e-06  1.33670160e-05 -1.22839956e-04 -8.77056511e-05  3.75947095e-06
 -4.03009562e-06 -2.94583636e-06 -3.33950977e-08  3.63299191e-06  2.40072122e-06
  5.57574544e-01  4.68196202e-01 -1.25821350e-05 -7.37920125e-05  6.64674921e-04
  5.41142656e-03 -2.40482051e-05 -6.98250831e-05 -2.33617406e-04 -1.06427708e-03
  1.63023483e-04  3.73716523e-04  1.13121017e-04  1.65687900e-05  1.02837891e-05
 -1.08265231e-05 -6.42834851e-06  9.89966718e-06  3.71886339e-07  2.82365529e-06
 -4.48222590e-06 -1.52368083e-06  5.77464807e-07 -3.32719073e-05 -1.19144212e-05
  3.31450432e-06  1.40448754e-06  2.80415671e-04  1.07357429e-04 -1.19015337e-04
  2.09056289e-05 -3.31661029e-06 -1.23050167e-06 -1.52390582e-06 -6.25350210e-07
 -6.46538444e-06  1.42948533e-05 -1.80165736e-05  6.32497836e-05  1.06120140e-04
  6.94756960e-06  1.79316920e-04  4.98208483e-05  6.96552721e-05  3.62716085e-05
  4.09697500e-04  4.58769079e-04  4.94776805e-04  2.96748034e-06  1.21484388e-05
  2.49852797e-05  2.41538823e-05 -3.18579538e-05  4.73122893e-05  3.39286387e-07
 -2.62763317e-05  7.95852808e-06  1.66083278e-05 -1.70582143e-06 -6.35653776e-06
  7.62406111e-06 -5.26793583e-05 -1.28152613e-05 -1.52569423e-05  8.32506765e-06
  5.22116355e-06  9.17445431e-07 -2.50402994e-05  3.25309571e-05 -1.33432982e-05
  4.61479924e-06  1.20007489e-06  2.41869960e-04 -1.94702879e-05  6.45306659e-05
  2.29984500e-05 -2.31360836e-05  1.78204479e-05  2.51800741e-04 -4.51849380e-05
  7.23451505e-05 -3.00247735e-05 -1.53981759e-05  2.50045806e-05 -1.74412284e-04
 -2.66171967e-04 -1.43224723e-04  2.49056190e-04  4.62178880e-05  5.66351690e-04
 -1.77804881e-04  3.82861870e-04  6.72255567e-05 -6.92543029e-04  6.06788344e-05
 -3.39211345e-04 -5.25811284e-05 -3.49893317e-05 -2.07923350e-05  3.04790011e-05
 -9.59615590e-05 -1.38419477e-04 -1.33383823e-04 -2.09800171e-04 -7.78095192e-05
 -1.09464610e-04 -2.79861372e-06  4.64008732e-04 -2.65540460e-04 -5.23202266e-04
 -7.64626050e-05 -2.62119544e-04 -1.06813804e-04  2.78221680e-04  5.27537526e-05
 -3.02513928e-05  2.39851696e-05  2.03466066e-06 -1.51598654e-04  1.85323400e-04
  1.53930114e-03  1.22236252e-03  1.27953232e-04 -1.18283359e-05 -8.81078451e-06
  2.57742828e-04  2.64914415e-04 -4.77484237e-06 -7.18559091e-06  1.18395242e-04
  1.45125362e-04 -4.88189061e-05 -1.78596991e-05 -3.04692422e-05 -1.91755179e-05
 -8.10063596e-06  1.23852498e-04 -4.21978276e-05  5.63534650e-01  4.66638872e-01
  3.67817193e-04  4.94947631e-04  5.49867657e-06  3.44443269e-03 -6.39998187e-05
 -6.44182589e-04 -6.34063670e-05  2.97855019e-04  6.53245258e-04 -5.27242052e-05
 -5.67561643e-05 -3.89611018e-04 -7.54843933e-05  1.46848054e-04 -1.02205658e-04
 -3.03102595e-04  1.34072196e-05  6.00221911e-05  1.52002202e-05  2.19492178e-05
  3.36460477e-05  8.75768155e-06 -1.14876111e-05  6.22720589e-05  5.11767951e-05
  2.15854261e-05  3.64721184e-06 -1.46679824e-05 -8.93387251e-06  7.24188076e-05
  3.17388742e-05  2.23005688e-05 -6.31684444e-06  1.69096826e-05  2.34549999e-05
  1.23979788e-04 -7.17982352e-05 -6.77524327e-05  4.64153194e-06 -1.39742994e-05
  2.40951636e-05 -5.14613137e-05 -2.91922309e-05 -1.07529684e-06 -6.15546236e-05
 -1.16198880e-05  3.47496838e-06  4.82536421e-06  1.40007026e-05  3.24428562e-07
 -8.20816913e-07 -4.63584454e-06  6.92095958e-06 -8.14714133e-06 -9.11678349e-07
 -5.47970529e-05  4.90630296e-05  2.16141472e-05  1.89520459e-08 -9.29088688e-07
 -1.27731910e-06 -3.05319412e-07  5.48900742e-06 -4.85922200e-06  5.11273200e-06
  9.53387796e-06  3.77156339e-06  9.21885211e-06  1.21371110e-06 -4.03122399e-05
  1.18913362e-05 -1.49927833e-05 -5.08658751e-06  3.56829150e-05 -1.17531826e-04
 -2.72624734e-05 -5.28199335e-06 -4.61457395e-06 -1.42957902e-06  2.30818385e-06
 -1.13277051e-05  1.59171345e-05  5.63318401e-01  4.66528444e-01  1.52707202e-04
  1.69986993e-04  6.32601304e-05  4.56493248e-03 -1.39815605e-04 -1.27808065e-04
 -4.70254057e-05 -1.81949767e-03 -2.34934503e-04  4.97089546e-05  1.87360293e-05
  8.92783316e-06  1.49598218e-05  1.41145892e-05 -1.00705802e-04  3.75831983e-05
 -1.64103835e-03 -1.42379301e-03 -1.40551719e-04  1.13607669e-05  7.35927605e-06
  2.68263408e-04 -3.29137018e-04  2.03503777e-05  2.23490572e-05  5.75193674e-04
 -3.30995508e-04 -7.53098736e-05  6.62236974e-06 -4.38600938e-05 -2.00436238e-05
 -5.95877801e-06  1.45632040e-04 -5.20465446e-05  3.41024757e-04  1.00134186e-04
  2.74486125e-04 -4.55361486e-06 -2.78517030e-05 -6.00889384e-06  3.45029977e-04
  2.35042022e-04  2.12560781e-04  3.74555907e-05 -2.15599375e-06 -2.50171193e-05
  3.45732948e-04  2.15889129e-04  2.14848990e-04  3.39696827e-05 -8.08250738e-06
  1.35590702e-05 -7.26261833e-06  1.00881597e-04  3.00119424e-05 -2.04453360e-05
 -2.26192765e-06 -4.85403295e-06 -7.61614497e-06 -6.79808146e-06  5.12701114e-06
  6.17133542e-06 -5.33228943e-06 -1.79616976e-06  9.66120171e-02  1.61023550e-01
  2.52610493e-02 -5.03473879e-02 -9.02708813e-03 -4.50870648e-01  4.00580643e-02
 -7.95902772e-02 -1.42834617e-02 -3.42034782e-01  1.48498813e-02 -3.76375704e-02
 -6.48873263e-03  7.25859458e-03  1.88787757e-03 -3.79389386e-03  8.02049177e-03
  1.06612013e-02  3.02909179e-02  5.00880879e-02  5.18327806e-03  1.71118045e-02
 -1.69715874e-04 -1.34563755e-01  1.08312460e-02  3.26126655e-02  4.70518547e-04
 -7.56300235e-02 -9.42445917e-03  1.76601786e-02  2.37582971e-03  3.58771173e-03
 -6.27149602e-04 -8.69620971e-04  4.30577834e-03 -3.48746187e-03  1.09089811e-02
  1.80278227e-02 -1.02999087e-02  2.24576381e-03  8.61451612e-04 -4.76146501e-02
 -2.43149031e-02  5.41503346e-03  1.79799950e-03  1.90158793e-02  1.18992702e-02
  6.00340768e-03  1.23117386e-03  2.71691594e-03  1.04389599e-03 -8.74850806e-05
 -5.62736189e-03  3.49049182e-03  6.67475391e-02  1.08594720e-01 -4.00180219e-02
  5.25723080e-02  1.02135356e-02 -2.82823860e-01 -5.97569776e-02  7.19730990e-02
  1.41122519e-02 -6.99905342e-02  3.52709498e-02 -2.34881390e-02 -6.63620982e-03
  1.69896815e-02  3.43881908e-03 -8.19305851e-03  1.59722842e-02  1.77582327e-02
 -6.04878965e-03 -9.41599381e-03  2.76245796e-03 -1.64770562e-03 -2.50656402e-03
 -6.43084014e-04 -4.15405658e-03 -9.54624858e-03  8.28885417e-04 -7.73532204e-04
  2.28247494e-04  2.16745040e-03 -4.17988925e-03 -9.12557590e-03  8.20070344e-04
 -9.77701421e-04  1.18598703e-03 -1.84276215e-03 -1.92620853e-02 -1.31281612e-02
  3.50589498e-04  6.18093790e-03  4.31469169e-04  2.39872187e-04 -1.51985439e-02
 -2.18752507e-02  2.55060414e-03 -2.22074636e-03  5.40759346e-03  2.50272957e-03
  4.46927570e-02  7.46943619e-02  1.29211112e-02 -8.36765999e-03 -2.00030283e-03
 -2.10791560e-01  1.89789311e-02 -1.05685000e-02 -2.58197982e-03 -1.67830691e-01
  1.39957518e-02 -2.26715271e-03 -1.57978312e-03  2.18053487e-03  8.69981584e-04
 -7.45287743e-04 -5.28891826e-04  4.24577258e-03 -9.94905965e-02 -1.64598565e-01
 -1.04200089e-02 -1.17306518e-02  9.70526119e-03  4.36602009e-01 -1.77892842e-02
 -1.88642411e-02  1.61747287e-02  3.32445750e-01 -1.76500700e-02 -1.92141231e-02
  5.08633935e-03 -9.17391973e-03 -5.76473790e-04  3.86966708e-03  2.04064030e-04
  3.39498627e-03 -1.08727629e-02 -1.79224559e-02  7.63890338e-03  5.53177155e-03
  5.27175504e-04  4.74366654e-02  1.91046782e-02  9.83610509e-03  6.27715574e-04
 -1.05330606e-02 -1.05328697e-02  7.05466716e-03  5.30271943e-04 -1.88420444e-03
  1.17443636e-04 -5.42426082e-04  4.72815666e-03  2.78177287e-03 -2.18346257e-02
 -3.64922341e-02  4.16333209e-03  8.61174385e-02  1.29973726e-02  9.79773963e-02
  1.10417056e-02  1.38015700e-01  2.10392884e-02  3.42769053e-02 -2.88849657e-02
 -4.98884191e-03  2.06508032e-03 -5.76845115e-03  3.86726018e-03  7.60101625e-04
 -2.36148758e-03  2.71969069e-02  2.49458180e-03  8.49619155e-03 -3.26501595e-03
  8.09152066e-04  2.03202629e-03  5.19593119e-04  7.06739934e-03  1.45699699e-02
 -8.91385290e-04  1.63154387e-03 -5.17650050e-04 -2.83115621e-03  7.75542851e-03
  1.44011975e-02 -1.95390210e-03  1.77840194e-03 -1.75641067e-03  2.05889298e-03
  7.07885354e-02  7.25480072e-02 -7.13727256e-04 -1.97061888e-02  1.62887583e-03
 -9.83555307e-04  7.67941081e-02  7.66274045e-02 -4.01470827e-04  8.95938573e-03
 -1.70289035e-02 -6.89055032e-03  1.96285178e-02  3.30609765e-02 -1.71675021e-02
 -2.89386977e-03  2.25660029e-04 -9.63509398e-02 -2.84677587e-02 -4.83765891e-03
  4.77878803e-04 -7.75126721e-02 -1.42656302e-02  1.71891045e-03  4.13257062e-04
  2.33762468e-04 -5.10320863e-04 -4.83122990e-04  3.23271724e-03 -2.50326874e-03
  2.54324858e-02  4.23114650e-02 -2.85163418e-02 -1.07963912e-02 -5.07427509e-03
 -1.13796703e-01 -4.63994566e-02 -1.92762280e-02 -8.75873274e-03 -1.04791667e-01
 -1.34586660e-02 -9.26708735e-03 -4.77096986e-03  1.02601591e-03 -3.42814765e-04
 -1.57568292e-03 -2.46602596e-04  5.44232959e-03 -9.51609537e-02 -1.57064377e-01
  1.36398676e-02  1.61379262e-04 -2.63392614e-04  3.98063750e-01  3.58743935e-02
  8.02172124e-04 -1.01251484e-03  2.31787586e-01 -1.64691371e-03  6.74679292e-03
  1.54256122e-03 -2.59064710e-03 -5.33202985e-04 -1.83227367e-04  5.55424496e-03
 -3.92398988e-04 -3.14015681e-02 -5.27480298e-02 -7.59306781e-02  1.33023067e-02
  5.38298407e-03  1.46945413e-01 -1.31231502e-01  1.99466237e-02  8.78173848e-03
  8.22887956e-02 -4.12050697e-02  1.90011397e-02  5.73475120e-03 -5.85753927e-03
 -1.90537562e-03 -9.40034097e-04  1.65998147e-02 -3.19380388e-03  6.98660312e-02
  9.49801765e-02 -1.50697967e-03  7.81827513e-03  1.65008483e-02  3.78428589e-03
  7.20903147e-02  9.65952597e-02 -2.44888352e-03  5.76315522e-03 -5.16657535e-03
 -1.65174719e-02  7.18886877e-02  9.52750769e-02 -3.01296287e-03  6.62651108e-03
 -1.23315400e-02  1.15187018e-02 -3.99750183e-02 -4.58526968e-02 -2.67746151e-03
  8.56073785e-03 -1.16664066e-03  6.91108710e-04 -2.12660870e-02 -1.99355873e-02
 -2.89465278e-03 -3.38844625e-03  2.89538415e-03  1.09596880e-03  3.11200619e-02
  5.26305271e-02 -6.73383203e-03  5.95155796e-02  7.10249200e-03 -1.55650455e-01
 -9.08983989e-03  8.94538107e-02  1.04628268e-02 -1.62485314e-01 -3.42756802e-03
  6.41286944e-02  6.28149462e-03 -2.14662576e-03 -1.64672563e-05  1.22717153e-03
 -6.59295000e-03 -2.48791690e-03  1.82904279e-02  3.04829814e-02 -7.78164062e-02
 -1.33709764e-01 -3.48338086e-02 -7.93790567e-02 -1.25899310e-01 -2.12583703e-01
 -5.52925020e-02 -8.83718665e-02 -6.03906493e-02 -1.26089646e-01 -3.38318366e-02
 -1.43915874e-03  1.18959910e-03 -5.54514646e-03 -9.16869224e-03  1.89413107e-02
  2.86960939e-02  4.75852545e-02  5.73079509e-02  7.45613378e-03 -3.28681772e-03
 -1.17290062e-01  9.66602779e-02  1.15179439e-02 -5.69778188e-03 -1.40036782e-01
  1.66625342e-02  7.58040800e-04 -4.67870446e-03 -6.30525209e-03 -1.45135476e-03
 -1.27378259e-03  1.44628974e-02 -2.95651087e-04 -6.38381325e-02 -1.07428003e-01
  2.66917519e-02  6.67567181e-02  3.98544979e-03  3.08445580e-01  4.85865765e-02
  1.07032871e-01  5.30195711e-03  1.79105416e-01 -3.45698383e-02  5.02418433e-02
  1.08759470e-02 -1.00600059e-02 -3.08911956e-04  1.59661255e-03 -5.24497405e-03
  9.56213959e-03 -4.87122615e-02 -6.60298281e-02 -1.70635932e-02 -9.85808219e-04
 -7.68657693e-03 -1.91855375e-03 -3.98730700e-02 -5.29127643e-02 -1.16227428e-02
  3.36807131e-04  2.20347067e-03  6.73498616e-03 -3.64962368e-02 -4.95991235e-02
 -1.14610189e-02  4.37840996e-05  4.98364439e-03 -4.72467831e-03 -7.37955329e-02
 -9.73935115e-02 -2.07557850e-02  1.16633688e-02 -9.17110477e-03 -4.14506096e-04
 -8.66572777e-02 -1.10054508e-01 -2.45593438e-02 -1.20560305e-02  8.10757719e-03
  4.67056028e-03  1.19979484e-02  2.01015381e-02  2.60279200e-02  4.63644144e-02
  4.33562859e-03 -5.82862634e-02  3.92734872e-02  7.19990082e-02  6.40715820e-03
 -7.26459403e-02  3.09054060e-02  4.98105454e-02  4.59239307e-03 -2.34897705e-03
  2.91927744e-04  1.25531755e-03 -5.97901270e-03  1.54990305e-04 -1.23386953e-03
 -2.23731446e-03  1.50627481e-01 -1.07769539e-01 -3.29981882e-02  9.10703829e-03
  2.36306927e-01 -1.70304843e-01 -5.20881471e-02 -4.14197888e-04  1.57561718e-01
 -1.00563775e-01 -3.17339544e-02 -3.45280703e-03  9.56286992e-03 -8.34097832e-03
  1.04607645e-02  5.54917682e-03 -1.66692029e-02 -2.77530920e-02 -5.49071660e-02
 -9.38551441e-03  2.30556929e-04  7.02698300e-02 -9.07957342e-02 -1.32875518e-02
  9.78003222e-04  6.59123297e-02 -4.85892544e-02 -1.80305542e-02 -3.87588957e-03
  5.78466301e-03  1.11732790e-03  2.83177084e-04 -1.16049243e-02  1.93683826e-03
  4.55463808e-03  7.60778995e-03  6.60859348e-02 -7.57204083e-03 -7.07438985e-03
 -1.74896251e-02  1.06947561e-01 -1.08096298e-02 -1.18148665e-02 -2.19570478e-02
  3.47079666e-02  7.11820043e-03 -1.86075568e-03 -5.33513324e-04  2.65251291e-04
 -4.15401414e-03  1.89202098e-02  9.54218963e-03  3.98458769e-02  5.46383796e-02
  4.34913319e-03  4.02187221e-05  6.15358288e-03  1.62987574e-03  2.58850425e-02
  4.05737467e-02  8.12091668e-03 -1.77377292e-03 -1.80237324e-03 -4.48940799e-03
  2.52102121e-02  3.75705743e-02  8.31824269e-03 -1.54038277e-03 -3.61752848e-03
  3.28871478e-03  1.22177935e-01  1.63371585e-01  3.21090164e-02 -1.98048672e-02
 -4.59595413e-03 -3.94648824e-03 -1.32820762e-01 -1.86892704e-01 -4.15646522e-02
 -3.90183106e-03  1.90664191e-02  8.98616305e-03  3.47449054e-02  5.88680557e-02
 -1.34290991e-01  7.68650117e-02  2.36855229e-02 -1.77800757e-01 -2.05167172e-01
  1.10028108e-01  3.54481083e-02 -2.16216290e-01 -1.51505166e-01  8.52966290e-02
  2.72720517e-02 -6.20992655e-03 -3.66109048e-03  3.15575340e-03  1.72978567e-03
 -1.64425011e-02  1.65352372e-03  2.91759277e-03  7.33852943e-02  5.59733777e-02
  1.84238681e-02 -1.00882998e-02  1.16341203e-01  8.74842913e-02  2.89327133e-02
 -9.70749130e-03  1.08138425e-01  4.79467884e-02  1.92402074e-02  4.70582007e-04
  1.69311266e-03  3.12563462e-04  7.29335629e-03 -7.38900050e-03  7.66669402e-03
  1.25348574e-02  6.95655545e-02 -7.77113602e-02 -9.70583189e-03 -2.42766987e-02
  1.20075611e-01 -1.23853869e-01 -1.54441434e-02 -9.99206614e-02  2.31305638e-02
 -8.72378772e-02 -9.75685288e-03 -1.42023551e-02 -1.46055111e-03  5.49402101e-03
  1.24158583e-02 -1.30198560e-03 -3.15153118e-02 -5.34479797e-02 -6.62920777e-02
 -1.14129913e-01 -6.77862303e-03  1.60535027e-01 -1.04710890e-01 -1.86706675e-01
 -1.03163824e-02  1.25636070e-01 -1.13247993e-01 -5.36197831e-03  9.42343736e-03
 -2.32993921e-03  1.31328582e-04  2.02900871e-03 -9.51006802e-04 -5.32830655e-03
  2.43871967e-02  3.82890473e-02 -5.44227575e-03  6.83343449e-03  1.15721279e-03
  5.99230096e-04 -5.02288799e-02 -6.85288018e-02 -2.40317276e-02  1.19227406e-03
 -1.80317681e-03  6.74494586e-03 -6.71410985e-02 -9.41404078e-02 -2.86634835e-02
 -5.55301187e-04  3.37909406e-03 -7.41729608e-03  5.66309833e-02  6.61990261e-02
  1.35786876e-02 -6.00449067e-03  5.65970249e-03  1.09540235e-03  1.29918980e-02
  2.66530115e-02  8.56210538e-03  6.29521082e-03  5.73109977e-04 -6.56481191e-04
  8.48584123e-04  1.44329931e-03  1.41991805e-02 -1.95980634e-03  8.66160552e-02
 -4.38920019e-03  2.24092245e-02 -4.05272522e-03  1.38632902e-01 -5.58115686e-03
  1.87547305e-02 -4.10775422e-03  1.10244502e-01  3.54408306e-03 -6.05909222e-03
  1.15900903e-02 -4.14548550e-05  2.03268996e-03  5.17108756e-03  8.73762869e-03
 -1.20547535e-03 -2.14577749e-02  7.74919342e-02 -2.52503316e-02 -1.85765829e-03
 -3.43170402e-02  1.24826488e-01 -3.59105195e-02  6.42818789e-03 -3.17793766e-02
  1.10419459e-01  5.75161960e-04 -5.35994579e-03 -7.81641276e-03 -2.27583999e-03
  7.29766212e-04  2.32365971e-04  4.37502930e-04  1.56579799e-03 -1.18312798e-02
  1.46763245e-01 -1.92828681e-03  8.34506346e-04 -1.97782970e-02  2.38584880e-01
 -6.10092000e-03  1.27789050e-03 -1.04345851e-02  1.43979124e-01  1.26495954e-02
 -1.57845149e-03  1.76789094e-02  4.89817756e-03  6.91953631e-05 -1.55538344e-03
 -2.55665154e-03  1.67048865e-02 -1.01653246e-02  9.42117442e-02  5.73408245e-03
  2.77408006e-02 -1.89792436e-02  1.64503679e-01  1.31570120e-02  8.84459225e-03
 -4.48283515e-03  9.47428403e-02 -1.69530683e-03  1.17064019e-03 -3.10814930e-03
  2.76579557e-04 -2.24027034e-03 -1.76203568e-02 -2.56153906e-02 -8.02933199e-03
 -1.27631616e-03 -3.47743729e-03  7.51144307e-03  1.15149226e-01  1.79343099e-01
  6.52150937e-02  6.72016643e-03 -5.70087724e-03 -1.01323054e-02 -9.09851537e-02