 Entering Gaussian System, Link 0=g09
 Input=methanol-opt-6-1-2-3-001.com
 Output=methanol-opt-6-1-2-3-001.log
 Initial command:
 /opt/g09gh/gaussian/g09/l1.exe /scratch/bdw2292/Gau-methanol/Gau-64928.inp -scrdir=/scratch/bdw2292/Gau-methanol/
 Entering Link 1 = /opt/g09gh/gaussian/g09/l1.exe PID=     64929.
  
 Copyright (c) 1988,1990,1992,1993,1995,1998,2003,2009, Gaussian, Inc.
                  All Rights Reserved.
  
 This is part of the Gaussian(R) 09 program.  It is based on
 the Gaussian(R) 03 system (copyright 2003, Gaussian, Inc.),
 the Gaussian(R) 98 system (copyright 1998, Gaussian, Inc.),
 the Gaussian(R) 94 system (copyright 1995, Gaussian, Inc.),
 the Gaussian 92(TM) system (copyright 1992, Gaussian, Inc.),
 the Gaussian 90(TM) system (copyright 1990, Gaussian, Inc.),
 the Gaussian 88(TM) system (copyright 1988, Gaussian, Inc.),
 the Gaussian 86(TM) system (copyright 1986, Carnegie Mellon
 University), and the Gaussian 82(TM) system (copyright 1983,
 Carnegie Mellon University). Gaussian is a federally registered
 trademark of Gaussian, Inc.
  
 This software contains proprietary and confidential information,
 including trade secrets, belonging to Gaussian, Inc.
  
 This software is provided under written license and may be
 used, copied, transmitted, or stored only in accord with that
 written license.
  
 The following legend is applicable only to US Government
 contracts under FAR:
  
                    RESTRICTED RIGHTS LEGEND
  
 Use, reproduction and disclosure by the US Government is
 subject to restrictions as set forth in subparagraphs (a)
 and (c) of the Commercial Computer Software - Restricted
 Rights clause in FAR 52.227-19.
  
 Gaussian, Inc.
 340 Quinnipiac St., Bldg. 40, Wallingford CT 06492
  
  
 ---------------------------------------------------------------
 Warning -- This program may not be used in any manner that
 competes with the business of Gaussian, Inc. or will provide
 assistance to any competitor of Gaussian, Inc.  The licensee
 of this program is prohibited from giving any competitor of
 Gaussian, Inc. access to this program.  By using this program,
 the user acknowledges that Gaussian, Inc. is engaged in the
 business of creating and licensing software in the field of
 computational chemistry and represents and warrants to the
 licensee that it is not a competitor of Gaussian, Inc. and that
 it will not use this program in any manner prohibited above.
 ---------------------------------------------------------------
  

 Cite this work as:
 Gaussian 09, Revision A.02,
 M. J. Frisch, G. W. Trucks, H. B. Schlegel, G. E. Scuseria, 
 M. A. Robb, J. R. Cheeseman, G. Scalmani, V. Barone, B. Mennucci, 
 G. A. Petersson, H. Nakatsuji, M. Caricato, X. Li, H. P. Hratchian, 
 A. F. Izmaylov, J. Bloino, G. Zheng, J. L. Sonnenberg, M. Hada, 
 M. Ehara, K. Toyota, R. Fukuda, J. Hasegawa, M. Ishida, T. Nakajima, 
 Y. Honda, O. Kitao, H. Nakai, T. Vreven, J. A. Montgomery, Jr., 
 J. E. Peralta, F. Ogliaro, M. Bearpark, J. J. Heyd, E. Brothers, 
 K. N. Kudin, V. N. Staroverov, R. Kobayashi, J. Normand, 
 K. Raghavachari, A. Rendell, J. C. Burant, S. S. Iyengar, J. Tomasi, 
 M. Cossi, N. Rega, J. M. Millam, M. Klene, J. E. Knox, J. B. Cross, 
 V. Bakken, C. Adamo, J. Jaramillo, R. Gomperts, R. E. Stratmann, 
 O. Yazyev, A. J. Austin, R. Cammi, C. Pomelli, J. W. Ochterski, 
 R. L. Martin, K. Morokuma, V. G. Zakrzewski, G. A. Voth, 
 P. Salvador, J. J. Dannenberg, S. Dapprich, A. D. Daniels, 
 O. Farkas, J. B. Foresman, J. V. Ortiz, J. Cioslowski, 
 and D. J. Fox, Gaussian, Inc., Wallingford CT, 2009.
 
 ******************************************
 Gaussian 09:  EM64L-G09RevA.02 11-Jun-2009
                21-Dec-2019 
 ******************************************
 %RWF=/scratch/bdw2292/Gau-methanol/,100GB
 %Nosave
 %Chk=methanol-opt-6-1-2-3-001.chk
 %Mem=20GB
 %Nproc=4
 Will use up to    4 processors via shared memory.
 ----------------------------------------------
 #P opt=(,maxcycle=400) HF/6-31G* MaxDisk=100GB
 ----------------------------------------------
 1/6=400,18=20,19=15,38=1/1,3;
 2/9=110,12=2,17=6,18=5,40=1/2;
 3/5=1,6=6,7=1,11=9,16=1,25=1,30=1,71=1/1,2,3;
 4//1;
 5/5=2,38=5/2;
 6/7=2,8=2,9=2,10=2,28=1/1;
 7//1,2,3,16;
 1/6=400,18=20,19=15/3(2);
 2/9=110/2;
 99//99;
 2/9=110/2;
 3/5=1,6=6,7=1,11=9,16=1,25=1,30=1,71=1/1,2,3;
 4/5=5,16=3/1;
 5/5=2,38=5/2;
 7//1,2,3,16;
 1/6=400,18=20,19=15/3(-5);
 2/9=110/2;
 6/7=2,8=2,9=2,10=2,19=2,28=1/1;
 99/9=1/99;
 Leave Link    1 at Sat Dec 21 15:10:48 2019, MaxMem= 2684354560 cpu:       0.2
 (Enter /opt/g09gh/gaussian/g09/l101.exe)
 ---------------------------------------------------------------
 methanol Rotatable Bond Optimization on bme-nova.bme.utexas.edu
 ---------------------------------------------------------------
 Symbolic Z-matrix:
 Charge =  0 Multiplicity = 1
 O                     0.73424   0.11093  -0.00801 
 C                    -0.68776  -0.01206   0.00908 
 H                    -0.95451  -1.07477   0.0261 
 H                    -1.08156   0.49286  -0.87993 
 H                    -1.04814   0.48032   0.91968 
 H                     1.11643  -0.78057  -0.01382 
 
 NAtoms=      6 NQM=      6 NQMF=      0 NMic=      0 NMicF=      0 NTot=      6.
                    Isotopes and Nuclear Properties:
 (Nuclear quadrupole moments (NQMom) in fm**2, nuclear magnetic moments (NMagM)
  in nuclear magnetons)

  Atom         1           2           3           4           5           6
 IAtWgt=          16          12           1           1           1           1
 AtmWgt=  15.9949146  12.0000000   1.0078250   1.0078250   1.0078250   1.0078250
 NucSpn=           0           0           1           1           1           1
 AtZEff=   0.0000000   0.0000000   0.0000000   0.0000000   0.0000000   0.0000000
 NQMom=    0.0000000   0.0000000   0.0000000   0.0000000   0.0000000   0.0000000
 NMagM=    0.0000000   0.0000000   2.7928460   2.7928460   2.7928460   2.7928460
 Leave Link  101 at Sat Dec 21 15:10:48 2019, MaxMem= 2684354560 cpu:       0.2
 (Enter /opt/g09gh/gaussian/g09/l103.exe)

 GradGradGradGradGradGradGradGradGradGradGradGradGradGradGradGradGradGrad
 Berny optimization.
 Initialization pass.
                           ----------------------------
                           !    Initial Parameters    !
                           ! (Angstroms and Degrees)  !
 --------------------------                            --------------------------
 ! Name  Definition              Value          Derivative Info.                !
 --------------------------------------------------------------------------------
 ! R1    R(1,2)                  1.4274         estimate D2E/DX2                !
 ! R2    R(1,6)                  0.97           estimate D2E/DX2                !
 ! R3    R(2,3)                  1.0958         estimate D2E/DX2                !
 ! R4    R(2,4)                  1.0956         estimate D2E/DX2                !
 ! R5    R(2,5)                  1.0961         estimate D2E/DX2                !
 ! A1    A(2,1,6)              108.2644         estimate D2E/DX2                !
 ! A2    A(1,2,3)              109.0416         estimate D2E/DX2                !
 ! A3    A(1,2,4)              107.9778         estimate D2E/DX2                !
 ! A4    A(1,2,5)              107.384          estimate D2E/DX2                !
 ! A5    A(3,2,4)              111.8413         estimate D2E/DX2                !
 ! A6    A(3,2,5)              110.0411         estimate D2E/DX2                !
 ! A7    A(4,2,5)              110.4199         estimate D2E/DX2                !
 ! D1    D(6,1,2,3)              0.8389         estimate D2E/DX2                !
 ! D2    D(6,1,2,4)           -120.8811         estimate D2E/DX2                !
 ! D3    D(6,1,2,5)            120.044          estimate D2E/DX2                !
 --------------------------------------------------------------------------------
 Trust Radius=3.00D-01 FncErr=1.00D-07 GrdErr=1.00D-07
 Number of steps in this run= 100 maximum allowed number of steps= 100.
 GradGradGradGradGradGradGradGradGradGradGradGradGradGradGradGradGradGrad

 Leave Link  103 at Sat Dec 21 15:10:48 2019, MaxMem= 2684354560 cpu:       0.0
 (Enter /opt/g09gh/gaussian/g09/l202.exe)
                          Input orientation:                          
 ---------------------------------------------------------------------
 Center     Atomic      Atomic             Coordinates (Angstroms)
 Number     Number       Type             X           Y           Z
 ---------------------------------------------------------------------
      1          8           0        0.734240    0.110929   -0.008012
      2          6           0       -0.687757   -0.012061    0.009082
      3          1           0       -0.954511   -1.074774    0.026095
      4          1           0       -1.081563    0.492862   -0.879933
      5          1           0       -1.048140    0.480316    0.919684
      6          1           0        1.116431   -0.780572   -0.013816
 ---------------------------------------------------------------------
                    Distance matrix (angstroms):
                    1          2          3          4          5
     1  O    0.000000
     2  C    1.427408   0.000000
     3  H    2.063719   1.095813   0.000000
     4  H    2.050185   1.095618   1.815079   0.000000
     5  H    2.043024   1.096133   1.795988   1.799971   0.000000
     6  H    0.969988   1.961180   2.092116   2.683835   2.673318
                    6
     6  H    0.000000
 Stoichiometry    CH4O
 Framework group  C1[X(CH4O)]
 Deg. of freedom    12
 Full point group                 C1      NOp   1
 Largest Abelian subgroup         C1      NOp   1
 Largest concise Abelian subgroup C1      NOp   1
                         Standard orientation:                         
 ---------------------------------------------------------------------
 Center     Atomic      Atomic             Coordinates (Angstroms)
 Number     Number       Type             X           Y           Z
 ---------------------------------------------------------------------
      1          8           0       -0.744165   -0.129232    0.003341
      2          6           0        0.675248    0.021503   -0.003102
      3          1           0        0.921317    1.089219   -0.018600
      4          1           0        1.066680   -0.499825   -0.883656
      5          1           0        1.057642   -0.438818    0.915258
      6          1           0       -1.143809    0.754263   -0.021117
 ---------------------------------------------------------------------
 Rotational constants (GHZ):    124.6118871     24.8491336     23.9186869
 Leave Link  202 at Sat Dec 21 15:10:48 2019, MaxMem= 2684354560 cpu:       0.0
 (Enter /opt/g09gh/gaussian/g09/l301.exe)
 Standard basis: 6-31G(d) (6D, 7F)
 Ernie: Thresh=  0.10000D-02 Tol=  0.10000D-05 Strict=F.
 There are    38 symmetry adapted basis functions of A   symmetry.
 Integral buffers will be    131072 words long.
 Raffenetti 1 integral format.
 Two-electron integral symmetry is turned on.
    38 basis functions,    72 primitive gaussians,    38 cartesian basis functions
     9 alpha electrons        9 beta electrons
       nuclear repulsion energy        40.1868425210 Hartrees.
 IExCor=    0 DFT=F Ex=HF Corr=None ExCW=0 ScaHFX=  1.000000
 ScaDFX=  1.000000  1.000000  1.000000  1.000000 ScalE2=  1.000000  1.000000
 IRadAn=      0 IRanWt=     -1 IRanGd=            0 ICorTp=0
 NAtoms=    6 NActive=    6 NUniq=    6 SFac= 7.50D-01 NAtFMM=   80 NAOKFM=F Big=F
 Leave Link  301 at Sat Dec 21 15:10:48 2019, MaxMem= 2684354560 cpu:       0.2
 (Enter /opt/g09gh/gaussian/g09/l302.exe)
 NPDir=0 NMtPBC=     1 NCelOv=     1 NCel=       1 NClECP=     1 NCelD=      1
         NCelK=      1 NCelE2=     1 NClLst=     1 CellRange=     0.0.
 One-electron integrals computed using PRISM.
 NBasis=    38 RedAO= T  NBF=    38
 NBsUse=    38 1.00D-06 NBFU=    38
 Leave Link  302 at Sat Dec 21 15:10:48 2019, MaxMem= 2684354560 cpu:       0.4
 (Enter /opt/g09gh/gaussian/g09/l303.exe)
 DipDrv:  MaxL=1.
 Leave Link  303 at Sat Dec 21 15:10:48 2019, MaxMem= 2684354560 cpu:       0.1
 (Enter /opt/g09gh/gaussian/g09/l401.exe)
 Harris functional with IExCor=  205 diagonalized for initial guess.
 ExpMin= 1.61D-01 ExpMax= 5.48D+03 ExpMxC= 8.25D+02 IAcc=1 IRadAn=         1 AccDes= 0.00D+00
 HarFok:  IExCor=  205 AccDes= 0.00D+00 IRadAn=         1 IDoV= 1
 ScaDFX=  1.000000  1.000000  1.000000  1.000000
 FoFCou: FMM=F IPFlag=           0 FMFlag=      100000 FMFlg1=           0
         NFxFlg=           0 DoJE=T BraDBF=F KetDBF=T FulRan=T
         Omega=  0.000000  0.000000  1.000000  0.000000  0.000000 ICntrl=     500 IOpCl=  0
         NMat0=    1 NMatS0=    1 NMatT0=    0 NMatD0=    1 NMtDS0=    0 NMtDT0=    0
         I1Cent=           4 NGrid=           0.
 Petite list used in FoFCou.
 Harris En= -115.208775267824    
 Initial guess orbital symmetries:
       Occupied  (A) (A) (A) (A) (A) (A) (A) (A) (A)
       Virtual   (A) (A) (A) (A) (A) (A) (A) (A) (A) (A) (A) (A)
                 (A) (A) (A) (A) (A) (A) (A) (A) (A) (A) (A) (A)
                 (A) (A) (A) (A) (A)
 The electronic state of the initial guess is 1-A.
 Leave Link  401 at Sat Dec 21 15:10:48 2019, MaxMem= 2684354560 cpu:       0.6
 (Enter /opt/g09gh/gaussian/g09/l502.exe)
 Closed shell SCF:
 Requested convergence on RMS density matrix=1.00D-08 within 128 cycles.
 Requested convergence on MAX density matrix=1.00D-06.
 Requested convergence on             energy=1.00D-06.
 No special actions if energy rises.
 Using DIIS extrapolation, IDIIS=  1040.
 Integral symmetry usage will be decided dynamically.
 Keep R1 ints in memory in canonical form, NReq=1117925.
 IEnd=       23000 IEndB=       23000 NGot=  2684354560 MDV=  2684074744
 LenX=  2684074744 LenY=  2684072859
 Symmetry not used in FoFDir.
 MinBra= 0 MaxBra= 2 Meth= 1.
 IRaf=       0 NMat=   1 IRICut=       1 DoRegI=T DoRafI=F ISym2E= 0 JSym2E=0.

 Cycle   1  Pass 1  IDiag  1:
 E= -114.922479825104    
 DIIS: error= 5.30D-02 at cycle   1 NSaved=   1.
 NSaved= 1 IEnMin= 1 EnMin= -114.922479825104     IErMin= 1 ErrMin= 5.30D-02
 ErrMax= 5.30D-02 EMaxC= 1.00D-01 BMatC= 1.66D-01 BMatP= 1.66D-01
 IDIUse=3 WtCom= 4.70D-01 WtEn= 5.30D-01
 Coeff-Com:  0.100D+01
 Coeff-En:   0.100D+01
 Coeff:      0.100D+01
 Gap=     0.638 Goal=   None    Shift=    0.000
 GapD=    0.638 DampG=2.000 DampE=0.500 DampFc=1.0000 IDamp=-1.
 RMSDP=9.25D-03 MaxDP=9.98D-02              OVMax= 1.03D-01

 Cycle   2  Pass 1  IDiag  1:
 E= -115.010743900824     Delta-E=       -0.088264075720 Rises=F Damp=F
 DIIS: error= 2.57D-02 at cycle   2 NSaved=   2.
 NSaved= 2 IEnMin= 2 EnMin= -115.010743900824     IErMin= 2 ErrMin= 2.57D-02
 ErrMax= 2.57D-02 EMaxC= 1.00D-01 BMatC= 2.82D-02 BMatP= 1.66D-01
 IDIUse=3 WtCom= 7.43D-01 WtEn= 2.57D-01
 Coeff-Com:  0.241D+00 0.759D+00
 Coeff-En:   0.000D+00 0.100D+01
 Coeff:      0.179D+00 0.821D+00
 Gap=     0.679 Goal=   None    Shift=    0.000
 RMSDP=3.73D-03 MaxDP=4.40D-02 DE=-8.83D-02 OVMax= 3.66D-02

 Cycle   3  Pass 1  IDiag  1:
 E= -115.029455861144     Delta-E=       -0.018711960320 Rises=F Damp=F
 DIIS: error= 6.34D-03 at cycle   3 NSaved=   3.
 NSaved= 3 IEnMin= 3 EnMin= -115.029455861144     IErMin= 3 ErrMin= 6.34D-03
 ErrMax= 6.34D-03 EMaxC= 1.00D-01 BMatC= 2.03D-03 BMatP= 2.82D-02
 IDIUse=3 WtCom= 9.37D-01 WtEn= 6.34D-02
 Coeff-Com: -0.165D-01 0.182D+00 0.834D+00
 Coeff-En:   0.000D+00 0.000D+00 0.100D+01
 Coeff:     -0.154D-01 0.170D+00 0.845D+00
 Gap=     0.654 Goal=   None    Shift=    0.000
 RMSDP=7.80D-04 MaxDP=1.20D-02 DE=-1.87D-02 OVMax= 1.03D-02

 Cycle   4  Pass 1  IDiag  1:
 E= -115.030921266783     Delta-E=       -0.001465405639 Rises=F Damp=F
 DIIS: error= 1.11D-03 at cycle   4 NSaved=   4.
 NSaved= 4 IEnMin= 4 EnMin= -115.030921266783     IErMin= 4 ErrMin= 1.11D-03
 ErrMax= 1.11D-03 EMaxC= 1.00D-01 BMatC= 6.59D-05 BMatP= 2.03D-03
 IDIUse=3 WtCom= 9.89D-01 WtEn= 1.11D-02
 Coeff-Com: -0.751D-02 0.216D-01 0.210D+00 0.776D+00
 Coeff-En:   0.000D+00 0.000D+00 0.000D+00 0.100D+01
 Coeff:     -0.742D-02 0.213D-01 0.208D+00 0.779D+00
 Gap=     0.655 Goal=   None    Shift=    0.000
 RMSDP=1.72D-04 MaxDP=1.84D-03 DE=-1.47D-03 OVMax= 2.16D-03

 Cycle   5  Pass 1  IDiag  1:
 E= -115.030977499177     Delta-E=       -0.000056232395 Rises=F Damp=F
 DIIS: error= 2.69D-04 at cycle   5 NSaved=   5.
 NSaved= 5 IEnMin= 5 EnMin= -115.030977499177     IErMin= 5 ErrMin= 2.69D-04
 ErrMax= 2.69D-04 EMaxC= 1.00D-01 BMatC= 2.72D-06 BMatP= 6.59D-05
 IDIUse=3 WtCom= 9.97D-01 WtEn= 2.69D-03
 Coeff-Com:  0.174D-02-0.170D-01-0.782D-01-0.304D-01 0.112D+01
 Coeff-En:   0.000D+00 0.000D+00 0.000D+00 0.000D+00 0.100D+01
 Coeff:      0.173D-02-0.169D-01-0.780D-01-0.303D-01 0.112D+01
 Gap=     0.655 Goal=   None    Shift=    0.000
 RMSDP=6.13D-05 MaxDP=5.09D-04 DE=-5.62D-05 OVMax= 6.87D-04

 Cycle   6  Pass 1  IDiag  1:
 E= -115.030981561297     Delta-E=       -0.000004062119 Rises=F Damp=F
 DIIS: error= 3.83D-05 at cycle   6 NSaved=   6.
 NSaved= 6 IEnMin= 6 EnMin= -115.030981561297     IErMin= 6 ErrMin= 3.83D-05
 ErrMax= 3.83D-05 EMaxC= 1.00D-01 BMatC= 6.20D-08 BMatP= 2.72D-06
 IDIUse=1 WtCom= 1.00D+00 WtEn= 0.00D+00
 Coeff-Com:  0.164D-03 0.143D-03-0.172D-02-0.273D-01-0.974D-01 0.113D+01
 Coeff:      0.164D-03 0.143D-03-0.172D-02-0.273D-01-0.974D-01 0.113D+01
 Gap=     0.655 Goal=   None    Shift=    0.000
 RMSDP=1.28D-05 MaxDP=1.20D-04 DE=-4.06D-06 OVMax= 1.57D-04

 Cycle   7  Pass 1  IDiag  1:
 E= -115.030981704771     Delta-E=       -0.000000143474 Rises=F Damp=F
 DIIS: error= 7.73D-06 at cycle   7 NSaved=   7.
 NSaved= 7 IEnMin= 7 EnMin= -115.030981704771     IErMin= 7 ErrMin= 7.73D-06
 ErrMax= 7.73D-06 EMaxC= 1.00D-01 BMatC= 3.30D-09 BMatP= 6.20D-08
 IDIUse=1 WtCom= 1.00D+00 WtEn= 0.00D+00
 Coeff-Com: -0.115D-03 0.658D-03 0.394D-02 0.777D-02-0.153D-01-0.336D+00
 Coeff-Com:  0.134D+01
 Coeff:     -0.115D-03 0.658D-03 0.394D-02 0.777D-02-0.153D-01-0.336D+00
 Coeff:      0.134D+01
 Gap=     0.655 Goal=   None    Shift=    0.000
 RMSDP=3.78D-06 MaxDP=4.41D-05 DE=-1.43D-07 OVMax= 5.55D-05

 Cycle   8  Pass 1  IDiag  1:
 E= -115.030981713541     Delta-E=       -0.000000008770 Rises=F Damp=F
 DIIS: error= 1.74D-06 at cycle   8 NSaved=   8.
 NSaved= 8 IEnMin= 8 EnMin= -115.030981713541     IErMin= 8 ErrMin= 1.74D-06
 ErrMax= 1.74D-06 EMaxC= 1.00D-01 BMatC= 1.03D-10 BMatP= 3.30D-09
 IDIUse=1 WtCom= 1.00D+00 WtEn= 0.00D+00
 Coeff-Com:  0.321D-04-0.216D-03-0.126D-02-0.206D-02 0.707D-02 0.968D-01
 Coeff-Com: -0.510D+00 0.141D+01
 Coeff:      0.321D-04-0.216D-03-0.126D-02-0.206D-02 0.707D-02 0.968D-01
 Coeff:     -0.510D+00 0.141D+01
 Gap=     0.655 Goal=   None    Shift=    0.000
 RMSDP=8.38D-07 MaxDP=6.78D-06 DE=-8.77D-09 OVMax= 1.29D-05

 Cycle   9  Pass 1  IDiag  1:
 E= -115.030981713856     Delta-E=       -0.000000000315 Rises=F Damp=F
 DIIS: error= 2.50D-07 at cycle   9 NSaved=   9.
 NSaved= 9 IEnMin= 9 EnMin= -115.030981713856     IErMin= 9 ErrMin= 2.50D-07
 ErrMax= 2.50D-07 EMaxC= 1.00D-01 BMatC= 2.27D-12 BMatP= 1.03D-10
 IDIUse=1 WtCom= 1.00D+00 WtEn= 0.00D+00
 Coeff-Com: -0.337D-05 0.264D-04 0.148D-03 0.133D-03-0.122D-02-0.747D-02
 Coeff-Com:  0.584D-01-0.264D+00 0.121D+01
 Coeff:     -0.337D-05 0.264D-04 0.148D-03 0.133D-03-0.122D-02-0.747D-02
 Coeff:      0.584D-01-0.264D+00 0.121D+01
 Gap=     0.655 Goal=   None    Shift=    0.000
 RMSDP=8.62D-08 MaxDP=7.42D-07 DE=-3.15D-10 OVMax= 1.43D-06

 Cycle  10  Pass 1  IDiag  1:
 E= -115.030981713861     Delta-E=       -0.000000000006 Rises=F Damp=F
 DIIS: error= 4.79D-08 at cycle  10 NSaved=  10.
 NSaved=10 IEnMin=10 EnMin= -115.030981713861     IErMin=10 ErrMin= 4.79D-08
 ErrMax= 4.79D-08 EMaxC= 1.00D-01 BMatC= 1.31D-13 BMatP= 2.27D-12
 IDIUse=1 WtCom= 1.00D+00 WtEn= 0.00D+00
 Coeff-Com: -0.792D-06 0.468D-05 0.285D-04 0.720D-04-0.106D-03-0.276D-02
 Coeff-Com:  0.107D-01-0.116D-01-0.245D+00 0.125D+01
 Coeff:     -0.792D-06 0.468D-05 0.285D-04 0.720D-04-0.106D-03-0.276D-02
 Coeff:      0.107D-01-0.116D-01-0.245D+00 0.125D+01
 Gap=     0.655 Goal=   None    Shift=    0.000
 RMSDP=2.23D-08 MaxDP=1.88D-07 DE=-5.80D-12 OVMax= 3.00D-07

 Cycle  11  Pass 1  IDiag  1:
 E= -115.030981713862     Delta-E=        0.000000000000 Rises=F Damp=F
 DIIS: error= 9.08D-09 at cycle  11 NSaved=  11.
 NSaved=11 IEnMin=11 EnMin= -115.030981713862     IErMin=11 ErrMin= 9.08D-09
 ErrMax= 9.08D-09 EMaxC= 1.00D-01 BMatC= 5.42D-15 BMatP= 1.31D-13
 IDIUse=1 WtCom= 1.00D+00 WtEn= 0.00D+00
 Coeff-Com:  0.302D-06-0.225D-05-0.125D-04-0.163D-04 0.768D-04 0.845D-03
 Coeff-Com: -0.478D-02 0.165D-01-0.296D-01-0.187D+00 0.120D+01
 Coeff:      0.302D-06-0.225D-05-0.125D-04-0.163D-04 0.768D-04 0.845D-03
 Coeff:     -0.478D-02 0.165D-01-0.296D-01-0.187D+00 0.120D+01
 Gap=     0.655 Goal=   None    Shift=    0.000
 RMSDP=4.88D-09 MaxDP=3.35D-08 DE=-4.55D-13 OVMax= 5.46D-08

 SCF Done:  E(RHF) =  -115.030981714     A.U. after   11 cycles
             Convg  =    0.4879D-08             -V/T =  2.0026
 KE= 1.147328776293D+02 PE=-3.513476746033D+02 EE= 8.139697273911D+01
 Leave Link  502 at Sat Dec 21 15:10:48 2019, MaxMem= 2684354560 cpu:       0.4
 (Enter /opt/g09gh/gaussian/g09/l601.exe)
 Copying SCF densities to generalized density rwf, IOpCl= 0 IROHF=0.

 **********************************************************************

            Population analysis using the SCF density.

 **********************************************************************

 Orbital symmetries:
       Occupied  (A) (A) (A) (A) (A) (A) (A) (A) (A)
       Virtual   (A) (A) (A) (A) (A) (A) (A) (A) (A) (A) (A) (A)
                 (A) (A) (A) (A) (A) (A) (A) (A) (A) (A) (A) (A)
                 (A) (A) (A) (A) (A)
 The electronic state is 1-A.
 Alpha  occ. eigenvalues --  -20.55335 -11.27273  -1.34365  -0.91931  -0.68111
 Alpha  occ. eigenvalues --   -0.61626  -0.58691  -0.49682  -0.44030
 Alpha virt. eigenvalues --    0.21483   0.27689   0.32190   0.32595   0.38513
 Alpha virt. eigenvalues --    0.76404   0.76983   0.78654   1.07694   1.11958
 Alpha virt. eigenvalues --    1.12942   1.16267   1.19863   1.24921   1.27272
 Alpha virt. eigenvalues --    1.44210   1.72277   1.75871   1.82125   2.05150
 Alpha virt. eigenvalues --    2.39978   2.46862   2.51921   2.59678   2.69133
 Alpha virt. eigenvalues --    2.83894   3.15454   4.12426   4.64024
          Condensed to atoms (all electrons):
              1          2          3          4          5          6
     1  O    8.392203   0.204009  -0.030656  -0.041465  -0.042602   0.261464
     2  C    0.204009   4.796013   0.392487   0.396045   0.396707  -0.026444
     3  H   -0.030656   0.392487   0.572438  -0.029900  -0.032229  -0.011108
     4  H   -0.041465   0.396045  -0.029900   0.546888  -0.038479   0.003315
     5  H   -0.042602   0.396707  -0.032229  -0.038479   0.550758   0.003431
     6  H    0.261464  -0.026444  -0.011108   0.003315   0.003431   0.332550
 Mulliken atomic charges:
              1
     1  O   -0.742952
     2  C   -0.158817
     3  H    0.138968
     4  H    0.163596
     5  H    0.162414
     6  H    0.436790
 Sum of Mulliken atomic charges =   0.00000
 Mulliken charges with hydrogens summed into heavy atoms:
              1
     1  O   -0.306161
     2  C    0.306161
 Sum of Mulliken charges with hydrogens summed into heavy atoms =   0.00000
 Electronic spatial extent (au):  <R**2>=             83.9723
 Charge=              0.0000 electrons
 Dipole moment (field-independent basis, Debye):
    X=              0.9894    Y=              1.7742    Z=             -0.0501  Tot=              2.0320
 Quadrupole moment (field-independent basis, Debye-Ang):
   XX=            -12.7815   YY=            -12.0311   ZZ=            -13.5243
   XY=             -2.3134   XZ=              0.0574   YZ=             -0.0112
 Traceless Quadrupole moment (field-independent basis, Debye-Ang):
   XX=             -0.0025   YY=              0.7479   ZZ=             -0.7453
   XY=             -2.3134   XZ=              0.0574   YZ=             -0.0112
 Octapole moment (field-independent basis, Debye-Ang**2):
  XXX=             -4.4726  YYY=              1.9214  ZZZ=              0.0272  XYY=             -2.0403
  XXY=              2.5605  XXZ=             -0.0785  XZZ=             -0.3290  YZZ=             -0.2881
  YYZ=             -0.0678  XYZ=              0.0827
 Hexadecapole moment (field-independent basis, Debye-Ang**3):
 XXXX=            -59.6250 YYYY=            -19.3357 ZZZZ=            -18.6139 XXXY=             -3.8527
 XXXZ=              0.0807 YYYX=             -1.7073 YYYZ=             -0.0072 ZZZX=              0.0789
 ZZZY=              0.0081 XXYY=            -12.2988 XXZZ=            -13.4371 YYZZ=             -6.5439
 XXYZ=             -0.0021 YYXZ=             -0.0115 ZZXY=             -1.0139
 N-N= 4.018684252103D+01 E-N=-3.513476745835D+02  KE= 1.147328776293D+02
 No NMR shielding tensors so no spin-rotation constants.
 Leave Link  601 at Sat Dec 21 15:10:49 2019, MaxMem= 2684354560 cpu:       0.5
 (Enter /opt/g09gh/gaussian/g09/l701.exe)
 Compute integral first derivatives.
 ... and contract with generalized density number  0.
 Leave Link  701 at Sat Dec 21 15:10:49 2019, MaxMem= 2684354560 cpu:       0.5
 (Enter /opt/g09gh/gaussian/g09/l702.exe)
 L702 exits ... SP integral derivatives will be done elsewhere.
 Leave Link  702 at Sat Dec 21 15:10:49 2019, MaxMem= 2684354560 cpu:       0.1
 (Enter /opt/g09gh/gaussian/g09/l703.exe)
 Compute integral first derivatives, UseDBF=F ICtDFT=           0.
 Integral derivatives from FoFDir, PRISM(SPDF).
 Calling FoFJK, ICntrl=      2127 FMM=F ISym2X=0 I1Cent= 0 IOpClX= 0 NMat=1 NMatS=1 NMatT=0.
 FoFCou: FMM=F IPFlag=           0 FMFlag=      100000 FMFlg1=         800
         NFxFlg=           0 DoJE=F BraDBF=F KetDBF=F FulRan=T
         Omega=  0.000000  0.000000  1.000000  0.000000  0.000000 ICntrl=    2127 IOpCl=  0
         NMat0=    1 NMatS0=    1 NMatT0=    0 NMatD0=    1 NMtDS0=    0 NMtDT0=    0
         I1Cent=           0 NGrid=           0.
 Symmetry not used in FoFCou.
 Leave Link  703 at Sat Dec 21 15:10:49 2019, MaxMem= 2684354560 cpu:       0.6
 (Enter /opt/g09gh/gaussian/g09/l716.exe)
 Dipole        = 3.89240552D-01 6.98014524D-01-1.97275475D-02
 ***** Axes restored to original set *****
 -------------------------------------------------------------------
 Center     Atomic                   Forces (Hartrees/Bohr)
 Number     Number              X              Y              Z
 -------------------------------------------------------------------
      1        8          -0.000433564   -0.027105997   -0.000882221
      2        6           0.019216172    0.002824052    0.003783661
      3        1          -0.006325115    0.010657379   -0.002045645
      4        1          -0.001734566   -0.007351444    0.008583754
      5        1          -0.002561474   -0.005290391   -0.009431957
      6        1          -0.008161452    0.026266400   -0.000007591
 -------------------------------------------------------------------
 Cartesian Forces:  Max     0.027105997 RMS     0.011293565
 Leave Link  716 at Sat Dec 21 15:10:49 2019, MaxMem= 2684354560 cpu:       0.1
 (Enter /opt/g09gh/gaussian/g09/l103.exe)

 GradGradGradGradGradGradGradGradGradGradGradGradGradGradGradGradGradGrad
 Berny optimization.
 Internal  Forces:  Max     0.027356729 RMS     0.009837021
 Search for a local minimum.
 Step number   1 out of a maximum of  100
 All quantities printed in internal units (Hartrees-Bohrs-Radians)
 RMS Force = .98370D-02 SwitMx=.10000D-02 MixMth= 1
 Mixed Optimization -- RFO/linear search
 Second derivative matrix not updated -- first step.
 The second derivative matrix:
                          R1        R2        R3        R4        R5
           R1           0.41364
           R2           0.00000   0.53379
           R3           0.00000   0.00000   0.34149
           R4           0.00000   0.00000   0.00000   0.34171
           R5           0.00000   0.00000   0.00000   0.00000   0.34113
           A1           0.00000   0.00000   0.00000   0.00000   0.00000
           A2           0.00000   0.00000   0.00000   0.00000   0.00000
           A3           0.00000   0.00000   0.00000   0.00000   0.00000
           A4           0.00000   0.00000   0.00000   0.00000   0.00000
           A5           0.00000   0.00000   0.00000   0.00000   0.00000
           A6           0.00000   0.00000   0.00000   0.00000   0.00000
           A7           0.00000   0.00000   0.00000   0.00000   0.00000
           D1           0.00000   0.00000   0.00000   0.00000   0.00000
           D2           0.00000   0.00000   0.00000   0.00000   0.00000
           D3           0.00000   0.00000   0.00000   0.00000   0.00000
                          A1        A2        A3        A4        A5
           A1           0.16000
           A2           0.00000   0.16000
           A3           0.00000   0.00000   0.16000
           A4           0.00000   0.00000   0.00000   0.16000
           A5           0.00000   0.00000   0.00000   0.00000   0.16000
           A6           0.00000   0.00000   0.00000   0.00000   0.00000
           A7           0.00000   0.00000   0.00000   0.00000   0.00000
           D1           0.00000   0.00000   0.00000   0.00000   0.00000
           D2           0.00000   0.00000   0.00000   0.00000   0.00000
           D3           0.00000   0.00000   0.00000   0.00000   0.00000
                          A6        A7        D1        D2        D3
           A6           0.16000
           A7           0.00000   0.16000
           D1           0.00000   0.00000   0.01329
           D2           0.00000   0.00000   0.00000   0.01329
           D3           0.00000   0.00000   0.00000   0.00000   0.01329
     Eigenvalues ---    0.01329   0.10491   0.10689   0.16000   0.16000
     Eigenvalues ---    0.16000   0.16000   0.34113   0.34149   0.34171
     Eigenvalues ---    0.41364   0.533791000.000001000.000001000.00000
 RFO step:  Lambda=-4.58695609D-03 EMin= 1.32922216D-02
 Linear search not attempted -- first point.
 Iteration  1 RMS(Cart)=  0.04017371 RMS(Int)=  0.00188945
 Iteration  2 RMS(Cart)=  0.00155930 RMS(Int)=  0.00077424
 Iteration  3 RMS(Cart)=  0.00000192 RMS(Int)=  0.00077424
 Iteration  4 RMS(Cart)=  0.00000000 RMS(Int)=  0.00077424
 Variable       Old X    -DE/DX   Delta X   Delta X   Delta X     New X
                                 (Linear)    (Quad)   (Total)
    R1        2.69741  -0.00862   0.00000  -0.02062  -0.02062   2.67679
    R2        1.83301  -0.02736   0.00000  -0.05081  -0.05081   1.78220
    R3        2.07079  -0.00883   0.00000  -0.02551  -0.02551   2.04528
    R4        2.07042  -0.00973   0.00000  -0.02810  -0.02810   2.04232
    R5        2.07139  -0.00937   0.00000  -0.02710  -0.02710   2.04429
    A1        1.88957   0.00522   0.00000   0.03174   0.03174   1.92131
    A2        1.90313   0.01068   0.00000   0.06521   0.06392   1.96706
    A3        1.88457   0.00471   0.00000   0.02620   0.02540   1.90997
    A4        1.87421   0.00681   0.00000   0.04339   0.04210   1.91631
    A5        1.95200  -0.00924   0.00000  -0.06018  -0.06097   1.89103
    A6        1.92058  -0.00615   0.00000  -0.03233  -0.03401   1.88657
    A7        1.92719  -0.00566   0.00000  -0.03518  -0.03593   1.89126
    D1        0.01464  -0.00140   0.00000  -0.00893  -0.00964   0.00500
    D2       -2.10977   0.00061   0.00000   0.00944   0.00943  -2.10035
    D3        2.09516   0.00104   0.00000   0.01322   0.01394   2.10910
         Item               Value     Threshold  Converged?
 Maximum Force            0.027357     0.000450     NO 
 RMS     Force            0.009837     0.000300     NO 
 Maximum Displacement     0.087945     0.001800     NO 
 RMS     Displacement     0.040003     0.001200     NO 
 Predicted change in Energy=-2.339325D-03
 GradGradGradGradGradGradGradGradGradGradGradGradGradGradGradGradGradGrad

 Leave Link  103 at Sat Dec 21 15:10:49 2019, MaxMem= 2684354560 cpu:       0.0
 (Enter /opt/g09gh/gaussian/g09/l202.exe)
                          Input orientation:                          
 ---------------------------------------------------------------------
 Center     Atomic      Atomic             Coordinates (Angstroms)
 Number     Number       Type             X           Y           Z
 ---------------------------------------------------------------------
      1          8           0        0.745519    0.098264   -0.008552
      2          6           0       -0.666068   -0.017092    0.015429
      3          1           0       -1.001050   -1.046242    0.021945
      4          1           0       -1.081515    0.470407   -0.855071
      5          1           0       -1.058487    0.469531    0.898309
      6          1           0        1.140300   -0.758168   -0.018959
 ---------------------------------------------------------------------
                    Distance matrix (angstroms):
                    1          2          3          4          5
     1  O    0.000000
     2  C    1.416496   0.000000
     3  H    2.088380   1.082315   0.000000
     4  H    2.047716   1.080750   1.753812   0.000000
     5  H    2.052967   1.081791   1.751822   1.753531   0.000000
     6  H    0.943099   1.952778   2.161028   2.673002   2.680166
                    6
     6  H    0.000000
 Stoichiometry    CH4O
 Framework group  C1[X(CH4O)]
 Deg. of freedom    12
 Full point group                 C1      NOp   1
 Largest Abelian subgroup         C1      NOp   1
 Largest concise Abelian subgroup C1      NOp   1
                         Standard orientation:                         
 ---------------------------------------------------------------------
 Center     Atomic      Atomic             Coordinates (Angstroms)
 Number     Number       Type             X           Y           Z
 ---------------------------------------------------------------------
      1          8           0        0.745417   -0.121562   -0.000872
      2          6           0       -0.664105    0.018829    0.000380
      3          1           0       -0.980834    1.053763   -0.000676
      4          1           0       -1.072469   -0.461036    0.878439
      5          1           0       -1.080857   -0.460935   -0.875072
      6          1           0        1.155456    0.727729    0.002009
 ---------------------------------------------------------------------
 Rotational constants (GHZ):    132.4653471     24.9021798     24.0532460
 Leave Link  202 at Sat Dec 21 15:10:49 2019, MaxMem= 2684354560 cpu:       0.0
 (Enter /opt/g09gh/gaussian/g09/l301.exe)
 Standard basis: 6-31G(d) (6D, 7F)
 Ernie: Thresh=  0.10000D-02 Tol=  0.10000D-05 Strict=F.
 There are    38 symmetry adapted basis functions of A   symmetry.
 Integral buffers will be    131072 words long.
 Raffenetti 1 integral format.
 Two-electron integral symmetry is turned on.
    38 basis functions,    72 primitive gaussians,    38 cartesian basis functions
     9 alpha electrons        9 beta electrons
       nuclear repulsion energy        40.5555853702 Hartrees.
 IExCor=    0 DFT=F Ex=HF Corr=None ExCW=0 ScaHFX=  1.000000
 ScaDFX=  1.000000  1.000000  1.000000  1.000000 ScalE2=  1.000000  1.000000
 IRadAn=      0 IRanWt=     -1 IRanGd=            0 ICorTp=0
 NAtoms=    6 NActive=    6 NUniq=    6 SFac= 7.50D-01 NAtFMM=   80 NAOKFM=F Big=F
 Leave Link  301 at Sat Dec 21 15:10:49 2019, MaxMem= 2684354560 cpu:       0.2
 (Enter /opt/g09gh/gaussian/g09/l302.exe)
 NPDir=0 NMtPBC=     1 NCelOv=     1 NCel=       1 NClECP=     1 NCelD=      1
         NCelK=      1 NCelE2=     1 NClLst=     1 CellRange=     0.0.
 One-electron integrals computed using PRISM.
 NBasis=    38 RedAO= T  NBF=    38
 NBsUse=    38 1.00D-06 NBFU=    38
 Leave Link  302 at Sat Dec 21 15:10:49 2019, MaxMem= 2684354560 cpu:       0.4
 (Enter /opt/g09gh/gaussian/g09/l303.exe)
 DipDrv:  MaxL=1.
 Leave Link  303 at Sat Dec 21 15:10:49 2019, MaxMem= 2684354560 cpu:       0.1
 (Enter /opt/g09gh/gaussian/g09/l401.exe)
 Initial guess read from the read-write file.
 B after Tr=     0.000000    0.000000    0.000000
         Rot=    1.000000    0.000000    0.000000    0.000000 Ang=   0.00 deg.
 Guess basis will be translated and rotated to current coordinates.
 Initial guess orbital symmetries:
       Occupied  (A) (A) (A) (A) (A) (A) (A) (A) (A)
       Virtual   (A) (A) (A) (A) (A) (A) (A) (A) (A) (A) (A) (A)
                 (A) (A) (A) (A) (A) (A) (A) (A) (A) (A) (A) (A)
                 (A) (A) (A) (A) (A)
 The electronic state of the initial guess is 1-A.
 Generating alternative initial guess.
 Harris functional with IExCor=  205 diagonalized for initial guess.
 ExpMin= 1.61D-01 ExpMax= 5.48D+03 ExpMxC= 8.25D+02 IAcc=1 IRadAn=         1 AccDes= 0.00D+00
 HarFok:  IExCor=  205 AccDes= 0.00D+00 IRadAn=         1 IDoV= 1
 ScaDFX=  1.000000  1.000000  1.000000  1.000000
 FoFCou: FMM=F IPFlag=           0 FMFlag=      100000 FMFlg1=           0
         NFxFlg=           0 DoJE=T BraDBF=F KetDBF=T FulRan=T
         Omega=  0.000000  0.000000  1.000000  0.000000  0.000000 ICntrl=     500 IOpCl=  0
         NMat0=    1 NMatS0=    1 NMatT0=    0 NMatD0=    1 NMtDS0=    0 NMtDT0=    0
         I1Cent=           4 NGrid=           0.
 Petite list used in FoFCou.
 Harris En= -115.212500166130    
 Leave Link  401 at Sat Dec 21 15:10:50 2019, MaxMem= 2684354560 cpu:       0.8
 (Enter /opt/g09gh/gaussian/g09/l502.exe)
 Closed shell SCF:
 Requested convergence on RMS density matrix=1.00D-08 within 128 cycles.
 Requested convergence on MAX density matrix=1.00D-06.
 Requested convergence on             energy=1.00D-06.
 No special actions if energy rises.
 Using DIIS extrapolation, IDIIS=  1040.
 Integral symmetry usage will be decided dynamically.
 Keep R1 ints in memory in canonical form, NReq=1117925.
 IEnd=       23000 IEndB=       23000 NGot=  2684354560 MDV=  2684074744
 LenX=  2684074744 LenY=  2684072859
 Symmetry not used in FoFDir.
 MinBra= 0 MaxBra= 2 Meth= 1.
 IRaf=       0 NMat=   1 IRICut=       1 DoRegI=T DoRafI=F ISym2E= 0 JSym2E=0.

 Cycle   1  Pass 1  IDiag  1:
 E= -112.734866525618    
 DIIS: error= 1.15D-01 at cycle   1 NSaved=   1.
 NSaved= 1 IEnMin= 1 EnMin= -112.734866525618     IErMin= 1 ErrMin= 1.15D-01
 ErrMax= 1.15D-01 EMaxC= 1.00D-01 BMatC= 5.76D-01 BMatP= 5.76D-01
 IDIUse=3 WtCom= 0.00D+00 WtEn= 1.00D+00
 Coeff-Com:  0.100D+01
 Coeff-En:   0.100D+01
 Coeff:      0.100D+01
 Recover alternate guess density for next cycle.
 RMSDP=5.74D-02 MaxDP=6.06D-01              OVMax= 0.00D+00

 Cycle   2  Pass 1  IDiag  1:
 E= -114.922220703826     Delta-E=       -2.187354178208 Rises=F Damp=F
 DIIS: error= 5.51D-02 at cycle   2 NSaved=   2.
 NSaved= 2 IEnMin= 2 EnMin= -114.922220703826     IErMin= 2 ErrMin= 5.51D-02
 ErrMax= 5.51D-02 EMaxC= 1.00D-01 BMatC= 1.69D-01 BMatP= 5.76D-01
 IDIUse=3 WtCom= 4.49D-01 WtEn= 5.51D-01
 Coeff-Com:  0.188D+00 0.812D+00
 Coeff-En:   0.000D+00 0.100D+01
 Coeff:      0.846D-01 0.915D+00
 Gap=     0.647 Goal=   None    Shift=    0.000
 RMSDP=9.50D-03 MaxDP=1.01D-01 DE=-2.19D+00 OVMax= 1.01D-01

 Cycle   3  Pass 1  IDiag  1:
 E= -115.011631294936     Delta-E=       -0.089410591110 Rises=F Damp=F
 DIIS: error= 2.52D-02 at cycle   3 NSaved=   3.
 NSaved= 3 IEnMin= 3 EnMin= -115.011631294936     IErMin= 3 ErrMin= 2.52D-02
 ErrMax= 2.52D-02 EMaxC= 1.00D-01 BMatC= 2.91D-02 BMatP= 1.69D-01
 IDIUse=3 WtCom= 7.48D-01 WtEn= 2.52D-01
 Coeff-Com:  0.292D-01 0.229D+00 0.742D+00
 Coeff-En:   0.000D+00 0.000D+00 0.100D+01
 Coeff:      0.219D-01 0.171D+00 0.807D+00
 Gap=     0.679 Goal=   None    Shift=    0.000
 RMSDP=3.74D-03 MaxDP=4.21D-02 DE=-8.94D-02 OVMax= 3.71D-02

 Cycle   4  Pass 1  IDiag  1:
 E= -115.031785900653     Delta-E=       -0.020154605717 Rises=F Damp=F
 DIIS: error= 4.99D-03 at cycle   4 NSaved=   4.
 NSaved= 4 IEnMin= 4 EnMin= -115.031785900653     IErMin= 4 ErrMin= 4.99D-03
 ErrMax= 4.99D-03 EMaxC= 1.00D-01 BMatC= 1.65D-03 BMatP= 2.91D-02
 IDIUse=3 WtCom= 9.50D-01 WtEn= 4.99D-02
 Coeff-Com: -0.615D-02-0.182D-01 0.149D+00 0.876D+00
 Coeff-En:   0.000D+00 0.000D+00 0.000D+00 0.100D+01
 Coeff:     -0.584D-02-0.173D-01 0.141D+00 0.882D+00
 Gap=     0.665 Goal=   None    Shift=    0.000
 RMSDP=7.23D-04 MaxDP=9.93D-03 DE=-2.02D-02 OVMax= 9.90D-03

 Cycle   5  Pass 1  IDiag  1:
 E= -115.033019588825     Delta-E=       -0.001233688171 Rises=F Damp=F
 DIIS: error= 1.06D-03 at cycle   5 NSaved=   5.
 NSaved= 5 IEnMin= 5 EnMin= -115.033019588825     IErMin= 5 ErrMin= 1.06D-03
 ErrMax= 1.06D-03 EMaxC= 1.00D-01 BMatC= 7.43D-05 BMatP= 1.65D-03
 IDIUse=3 WtCom= 9.89D-01 WtEn= 1.06D-02
 Coeff-Com: -0.189D-02-0.738D-02 0.194D-01 0.222D+00 0.768D+00
 Coeff-En:   0.000D+00 0.000D+00 0.000D+00 0.000D+00 0.100D+01
 Coeff:     -0.187D-02-0.730D-02 0.192D-01 0.220D+00 0.770D+00
 Gap=     0.665 Goal=   None    Shift=    0.000
 RMSDP=1.93D-04 MaxDP=1.94D-03 DE=-1.23D-03 OVMax= 2.27D-03

 Cycle   6  Pass 1  IDiag  1:
 E= -115.033085589145     Delta-E=       -0.000066000321 Rises=F Damp=F
 DIIS: error= 3.33D-04 at cycle   6 NSaved=   6.
 NSaved= 6 IEnMin= 6 EnMin= -115.033085589145     IErMin= 6 ErrMin= 3.33D-04
 ErrMax= 3.33D-04 EMaxC= 1.00D-01 BMatC= 3.23D-06 BMatP= 7.43D-05
 IDIUse=3 WtCom= 9.97D-01 WtEn= 3.33D-03
 Coeff-Com:  0.245D-03 0.165D-02-0.119D-01-0.747D-01-0.413D-02 0.109D+01
 Coeff-En:   0.000D+00 0.000D+00 0.000D+00 0.000D+00 0.000D+00 0.100D+01
 Coeff:      0.244D-03 0.164D-02-0.119D-01-0.744D-01-0.412D-02 0.109D+01
 Gap=     0.665 Goal=   None    Shift=    0.000
 RMSDP=6.97D-05 MaxDP=5.40D-04 DE=-6.60D-05 OVMax= 7.75D-04

 Cycle   7  Pass 1  IDiag  1:
 E= -115.033090306156     Delta-E=       -0.000004717011 Rises=F Damp=F
 DIIS: error= 3.79D-05 at cycle   7 NSaved=   7.
 NSaved= 7 IEnMin= 7 EnMin= -115.033090306156     IErMin= 7 ErrMin= 3.79D-05
 ErrMax= 3.79D-05 EMaxC= 1.00D-01 BMatC= 7.27D-08 BMatP= 3.23D-06
 IDIUse=1 WtCom= 1.00D+00 WtEn= 0.00D+00
 Coeff-Com:  0.579D-04 0.864D-04 0.130D-03 0.602D-03-0.201D-01-0.140D+00
 Coeff-Com:  0.116D+01
 Coeff:      0.579D-04 0.864D-04 0.130D-03 0.602D-03-0.201D-01-0.140D+00
 Coeff:      0.116D+01
 Gap=     0.665 Goal=   None    Shift=    0.000
 RMSDP=1.43D-05 MaxDP=9.62D-05 DE=-4.72D-06 OVMax= 1.58D-04

 Cycle   8  Pass 1  IDiag  1:
 E= -115.033090464063     Delta-E=       -0.000000157907 Rises=F Damp=F
 DIIS: error= 7.62D-06 at cycle   8 NSaved=   8.
 NSaved= 8 IEnMin= 8 EnMin= -115.033090464063     IErMin= 8 ErrMin= 7.62D-06
 ErrMax= 7.62D-06 EMaxC= 1.00D-01 BMatC= 2.64D-09 BMatP= 7.27D-08
 IDIUse=1 WtCom= 1.00D+00 WtEn= 0.00D+00
 Coeff-Com: -0.120D-04-0.566D-04 0.270D-03 0.206D-02 0.371D-02-0.801D-02
 Coeff-Com: -0.221D+00 0.122D+01
 Coeff:     -0.120D-04-0.566D-04 0.270D-03 0.206D-02 0.371D-02-0.801D-02
 Coeff:     -0.221D+00 0.122D+01
 Gap=     0.665 Goal=   None    Shift=    0.000
 RMSDP=2.41D-06 MaxDP=2.33D-05 DE=-1.58D-07 OVMax= 3.07D-05

 Cycle   9  Pass 1  IDiag  1:
 E= -115.033090469991     Delta-E=       -0.000000005928 Rises=F Damp=F
 DIIS: error= 1.36D-06 at cycle   9 NSaved=   9.
 NSaved= 9 IEnMin= 9 EnMin= -115.033090469991     IErMin= 9 ErrMin= 1.36D-06
 ErrMax= 1.36D-06 EMaxC= 1.00D-01 BMatC= 1.05D-10 BMatP= 2.64D-09
 IDIUse=1 WtCom= 1.00D+00 WtEn= 0.00D+00
 Coeff-Com: -0.392D-06 0.110D-04-0.400D-04-0.471D-03-0.546D-03 0.604D-02
 Coeff-Com:  0.225D-01-0.317D+00 0.129D+01
 Coeff:     -0.392D-06 0.110D-04-0.400D-04-0.471D-03-0.546D-03 0.604D-02
 Coeff:      0.225D-01-0.317D+00 0.129D+01
 Gap=     0.665 Goal=   None    Shift=    0.000
 RMSDP=6.30D-07 MaxDP=4.69D-06 DE=-5.93D-09 OVMax= 6.46D-06

 Cycle  10  Pass 1  IDiag  1:
 E= -115.033090470247     Delta-E=       -0.000000000256 Rises=F Damp=F
 DIIS: error= 2.99D-07 at cycle  10 NSaved=  10.
 NSaved=10 IEnMin=10 EnMin= -115.033090470247     IErMin=10 ErrMin= 2.99D-07
 ErrMax= 2.99D-07 EMaxC= 1.00D-01 BMatC= 3.12D-12 BMatP= 1.05D-10
 IDIUse=1 WtCom= 1.00D+00 WtEn= 0.00D+00
 Coeff-Com:  0.209D-06-0.102D-05 0.452D-05 0.531D-04-0.211D-05-0.122D-02
 Coeff-Com:  0.276D-02 0.292D-01-0.290D+00 0.126D+01
 Coeff:      0.209D-06-0.102D-05 0.452D-05 0.531D-04-0.211D-05-0.122D-02
 Coeff:      0.276D-02 0.292D-01-0.290D+00 0.126D+01
 Gap=     0.665 Goal=   None    Shift=    0.000
 RMSDP=1.23D-07 MaxDP=9.64D-07 DE=-2.56D-10 OVMax= 1.58D-06

 Cycle  11  Pass 1  IDiag  1:
 E= -115.033090470255     Delta-E=       -0.000000000008 Rises=F Damp=F
 DIIS: error= 5.57D-08 at cycle  11 NSaved=  11.
 NSaved=11 IEnMin=11 EnMin= -115.033090470255     IErMin=11 ErrMin= 5.57D-08
 ErrMax= 5.57D-08 EMaxC= 1.00D-01 BMatC= 1.36D-13 BMatP= 3.12D-12
 IDIUse=1 WtCom= 1.00D+00 WtEn= 0.00D+00
 Coeff-Com: -0.556D-07-0.171D-06 0.396D-06 0.422D-05 0.346D-04 0.498D-04
 Coeff-Com: -0.155D-02 0.466D-02 0.246D-01-0.286D+00 0.126D+01
 Coeff:     -0.556D-07-0.171D-06 0.396D-06 0.422D-05 0.346D-04 0.498D-04
 Coeff:     -0.155D-02 0.466D-02 0.246D-01-0.286D+00 0.126D+01
 Gap=     0.665 Goal=   None    Shift=    0.000
 RMSDP=2.48D-08 MaxDP=1.58D-07 DE=-8.38D-12 OVMax= 3.38D-07

 Cycle  12  Pass 1  IDiag  1:
 E= -115.033090470256     Delta-E=        0.000000000000 Rises=F Damp=F
 DIIS: error= 1.26D-08 at cycle  12 NSaved=  12.
 NSaved=12 IEnMin=12 EnMin= -115.033090470256     IErMin=12 ErrMin= 1.26D-08
 ErrMax= 1.26D-08 EMaxC= 1.00D-01 BMatC= 7.90D-15 BMatP= 1.36D-13
 IDIUse=1 WtCom= 1.00D+00 WtEn= 0.00D+00
 Coeff-Com: -0.487D-08 0.137D-06-0.413D-06-0.491D-05-0.618D-05 0.678D-04
 Coeff-Com:  0.165D-03-0.288D-02 0.124D-01-0.200D-01-0.250D+00 0.126D+01
 Coeff:     -0.487D-08 0.137D-06-0.413D-06-0.491D-05-0.618D-05 0.678D-04
 Coeff:      0.165D-03-0.288D-02 0.124D-01-0.200D-01-0.250D+00 0.126D+01
 Gap=     0.665 Goal=   None    Shift=    0.000
 RMSDP=7.09D-09 MaxDP=5.42D-08 DE=-3.13D-13 OVMax= 9.02D-08

 SCF Done:  E(RHF) =  -115.033090470     A.U. after   12 cycles
             Convg  =    0.7092D-08             -V/T =  2.0016
 KE= 1.148487177998D+02 PE=-3.521351569372D+02 EE= 8.169776329689D+01
 Leave Link  502 at Sat Dec 21 15:10:50 2019, MaxMem= 2684354560 cpu:       0.4
 (Enter /opt/g09gh/gaussian/g09/l701.exe)
 Compute integral first derivatives.
 ... and contract with generalized density number  0.
 Leave Link  701 at Sat Dec 21 15:10:50 2019, MaxMem= 2684354560 cpu:       0.5
 (Enter /opt/g09gh/gaussian/g09/l702.exe)
 L702 exits ... SP integral derivatives will be done elsewhere.
 Leave Link  702 at Sat Dec 21 15:10:50 2019, MaxMem= 2684354560 cpu:       0.1
 (Enter /opt/g09gh/gaussian/g09/l703.exe)
 Compute integral first derivatives, UseDBF=F ICtDFT=           0.
 Integral derivatives from FoFDir, PRISM(SPDF).
 Calling FoFJK, ICntrl=      2127 FMM=F ISym2X=0 I1Cent= 0 IOpClX= 0 NMat=1 NMatS=1 NMatT=0.
 FoFCou: FMM=F IPFlag=           0 FMFlag=      100000 FMFlg1=         800
         NFxFlg=           0 DoJE=F BraDBF=F KetDBF=F FulRan=T
         Omega=  0.000000  0.000000  1.000000  0.000000  0.000000 ICntrl=    2127 IOpCl=  0
         NMat0=    1 NMatS0=    1 NMatT0=    0 NMatD0=    1 NMtDS0=    0 NMtDT0=    0
         I1Cent=           0 NGrid=           0.
 Symmetry not used in FoFCou.
 Leave Link  703 at Sat Dec 21 15:10:50 2019, MaxMem= 2684354560 cpu:       0.7
 (Enter /opt/g09gh/gaussian/g09/l716.exe)
 Dipole        =-3.70018352D-01 6.88506461D-01 2.61390342D-03
 ***** Axes restored to original set *****
 -------------------------------------------------------------------
 Center     Atomic                   Forces (Hartrees/Bohr)
 Number     Number              X              Y              Z
 -------------------------------------------------------------------
      1        8          -0.010217318    0.000117565    0.000641863
      2        6           0.008989811    0.002458920    0.000004191
      3        1           0.000998117   -0.002538466   -0.000246124
      4        1          -0.000623457    0.000747111   -0.002136056
      5        1           0.000528261    0.000809962    0.001711178
      6        1           0.000324585   -0.001595092    0.000024947
 -------------------------------------------------------------------
 Cartesian Forces:  Max     0.010217318 RMS     0.003425445
 Leave Link  716 at Sat Dec 21 15:10:50 2019, MaxMem= 2684354560 cpu:       0.1
 (Enter /opt/g09gh/gaussian/g09/l103.exe)

 GradGradGradGradGradGradGradGradGradGradGradGradGradGradGradGradGradGrad
 Berny optimization.
 Using GEDIIS/GDIIS optimizer.
 Internal  Forces:  Max     0.009990066 RMS     0.002904239
 Search for a local minimum.
 Step number   2 out of a maximum of  100
 All quantities printed in internal units (Hartrees-Bohrs-Radians)
 RMS Force = .29042D-02 SwitMx=.10000D-02 MixMth= 1
 Mixed Optimization -- RFO/linear search
 Update second derivatives using D2CorX and points    1    2
 DE= -2.11D-03 DEPred=-2.34D-03 R= 9.01D-01
 SS=  1.41D+00  RLast= 1.39D-01 DXNew= 5.0454D-01 4.1605D-01
 Trust test= 9.01D-01 RLast= 1.39D-01 DXMaxT set to 4.16D-01
 The second derivative matrix:
                          R1        R2        R3        R4        R5
           R1           0.39781
           R2          -0.05949   0.53853
           R3          -0.01955   0.01106   0.34865
           R4          -0.02155   0.01206   0.00784   0.35030
           R5          -0.02057   0.00787   0.00613   0.00671   0.34618
           A1           0.01127  -0.00363  -0.00311  -0.00340  -0.00251
           A2           0.02304  -0.01473  -0.00906  -0.00993  -0.00786
           A3           0.00889  -0.00028  -0.00149  -0.00163  -0.00102
           A4           0.01496  -0.00519  -0.00426  -0.00466  -0.00347
           A5          -0.02127  -0.00084   0.00302   0.00328   0.00187
           A6          -0.01241   0.01093   0.00599   0.00657   0.00535
           A7          -0.01279   0.00482   0.00379   0.00414   0.00311
           D1          -0.00065   0.00776   0.00298   0.00327   0.00296
           D2           0.00028  -0.00020  -0.00012  -0.00013  -0.00010
           D3           0.00079  -0.00825  -0.00318  -0.00350  -0.00316
                          A1        A2        A3        A4        A5
           A1           0.16124
           A2           0.00400   0.17143
           A3           0.00046   0.00201   0.15998
           A4           0.00172   0.00548   0.00066   0.16238
           A5          -0.00079  -0.00415   0.00027  -0.00118   0.15882
           A6          -0.00276  -0.00748  -0.00153  -0.00376   0.00327
           A7          -0.00155  -0.00486  -0.00062  -0.00214   0.00114
           D1          -0.00159  -0.00358  -0.00114  -0.00213   0.00266
           D2           0.00005   0.00015   0.00003   0.00007  -0.00006
           D3           0.00170   0.00383   0.00121   0.00227  -0.00283
                          A6        A7        D1        D2        D3
           A6           0.16479
           A7           0.00331   0.16192
           D1           0.00206   0.00184   0.01372
           D2          -0.00010  -0.00006  -0.00004   0.01329
           D3          -0.00221  -0.00196  -0.00047   0.00005   0.01381
 Use linear search instead of GDIIS.
     Eigenvalues ---    0.01329   0.09972   0.10323   0.15780   0.16000
     Eigenvalues ---    0.16000   0.17497   0.33772   0.34159   0.34249
     Eigenvalues ---    0.40122   0.567881000.000001000.000001000.00000
 RFO step:  Lambda=-2.79163601D-04 EMin= 1.32948372D-02
 Quartic linear search produced a step of -0.07650.
 Iteration  1 RMS(Cart)=  0.01059909 RMS(Int)=  0.00005378
 Iteration  2 RMS(Cart)=  0.00002828 RMS(Int)=  0.00004557
 Iteration  3 RMS(Cart)=  0.00000000 RMS(Int)=  0.00004557
 Variable       Old X    -DE/DX   Delta X   Delta X   Delta X     New X
                                 (Linear)    (Quad)   (Total)
    R1        2.67679  -0.00999   0.00158  -0.02516  -0.02358   2.65321
    R2        1.78220   0.00158   0.00389  -0.00433  -0.00045   1.78175
    R3        2.04528   0.00210   0.00195   0.00212   0.00407   2.04935
    R4        2.04232   0.00230   0.00215   0.00228   0.00443   2.04675
    R5        2.04429   0.00157   0.00207   0.00046   0.00253   2.04682
    A1        1.92131  -0.00067  -0.00243   0.00065  -0.00178   1.91953
    A2        1.96706  -0.00246  -0.00489  -0.00628  -0.01110   1.95596
    A3        1.90997   0.00044  -0.00194   0.00659   0.00470   1.91467
    A4        1.91631  -0.00107  -0.00322   0.00006  -0.00309   1.91322
    A5        1.89103   0.00073   0.00466  -0.00531  -0.00060   1.89044
    A6        1.88657   0.00137   0.00260   0.00177   0.00447   1.89103
    A7        1.89126   0.00113   0.00275   0.00340   0.00620   1.89746
    D1        0.00500   0.00006   0.00074  -0.00208  -0.00130   0.00370
    D2       -2.10035   0.00044  -0.00072   0.00421   0.00349  -2.09686
    D3        2.10910  -0.00057  -0.00107  -0.00397  -0.00507   2.10403
         Item               Value     Threshold  Converged?
 Maximum Force            0.009990     0.000450     NO 
 RMS     Force            0.002904     0.000300     NO 
 Maximum Displacement     0.023372     0.001800     NO 
 RMS     Displacement     0.010614     0.001200     NO 
 Predicted change in Energy=-1.544412D-04
 GradGradGradGradGradGradGradGradGradGradGradGradGradGradGradGradGradGrad

 Leave Link  103 at Sat Dec 21 15:10:50 2019, MaxMem= 2684354560 cpu:       0.0
 (Enter /opt/g09gh/gaussian/g09/l202.exe)
                          Input orientation:                          
 ---------------------------------------------------------------------
 Center     Atomic      Atomic             Coordinates (Angstroms)
 Number     Number       Type             X           Y           Z
 ---------------------------------------------------------------------
      1          8           0        0.736463    0.098048   -0.007372
      2          6           0       -0.662889   -0.014151    0.014725
      3          1           0       -0.988682   -1.048514    0.019740
      4          1           0       -1.081895    0.470410   -0.858615
      5          1           0       -1.052626    0.470380    0.901577
      6          1           0        1.128329   -0.759472   -0.016955
 ---------------------------------------------------------------------
                    Distance matrix (angstroms):
                    1          2          3          4          5
     1  O    0.000000
     2  C    1.404017   0.000000
     3  H    2.071585   1.084469   0.000000
     4  H    2.041982   1.083093   1.757079   0.000000
     5  H    2.040995   1.083130   1.757488   1.760436   0.000000
     6  H    0.942864   1.940353   2.136967   2.665725   2.666984
                    6
     6  H    0.000000
 Stoichiometry    CH4O
 Framework group  C1[X(CH4O)]
 Deg. of freedom    12
 Full point group                 C1      NOp   1
 Largest Abelian subgroup         C1      NOp   1
 Largest concise Abelian subgroup C1      NOp   1
                         Standard orientation:                         
 ---------------------------------------------------------------------
 Center     Atomic      Atomic             Coordinates (Angstroms)
 Number     Number       Type             X           Y           Z
 ---------------------------------------------------------------------
      1          8           0        0.738666   -0.122552    0.000165
      2          6           0       -0.658263    0.018347   -0.000023
      3          1           0       -0.962797    1.059170   -0.004566
      4          1           0       -1.072998   -0.453756    0.882136
      5          1           0       -1.072103   -0.461830   -0.878282
      6          1           0        1.148152    0.726749   -0.000470
 ---------------------------------------------------------------------
 Rotational constants (GHZ):    131.8040163     25.2861874     24.4176177
 Leave Link  202 at Sat Dec 21 15:10:50 2019, MaxMem= 2684354560 cpu:       0.0
 (Enter /opt/g09gh/gaussian/g09/l301.exe)
 Standard basis: 6-31G(d) (6D, 7F)
 Ernie: Thresh=  0.10000D-02 Tol=  0.10000D-05 Strict=F.
 There are    38 symmetry adapted basis functions of A   symmetry.
 Integral buffers will be    131072 words long.
 Raffenetti 1 integral format.
 Two-electron integral symmetry is turned on.
    38 basis functions,    72 primitive gaussians,    38 cartesian basis functions
     9 alpha electrons        9 beta electrons
       nuclear repulsion energy        40.7465886231 Hartrees.
 IExCor=    0 DFT=F Ex=HF Corr=None ExCW=0 ScaHFX=  1.000000
 ScaDFX=  1.000000  1.000000  1.000000  1.000000 ScalE2=  1.000000  1.000000
 IRadAn=      0 IRanWt=     -1 IRanGd=            0 ICorTp=0
 NAtoms=    6 NActive=    6 NUniq=    6 SFac= 7.50D-01 NAtFMM=   80 NAOKFM=F Big=F
 Leave Link  301 at Sat Dec 21 15:10:50 2019, MaxMem= 2684354560 cpu:       0.2
 (Enter /opt/g09gh/gaussian/g09/l302.exe)
 NPDir=0 NMtPBC=     1 NCelOv=     1 NCel=       1 NClECP=     1 NCelD=      1
         NCelK=      1 NCelE2=     1 NClLst=     1 CellRange=     0.0.
 One-electron integrals computed using PRISM.
 NBasis=    38 RedAO= T  NBF=    38
 NBsUse=    38 1.00D-06 NBFU=    38
 Leave Link  302 at Sat Dec 21 15:10:51 2019, MaxMem= 2684354560 cpu:       0.6
 (Enter /opt/g09gh/gaussian/g09/l303.exe)
 DipDrv:  MaxL=1.
 Leave Link  303 at Sat Dec 21 15:10:51 2019, MaxMem= 2684354560 cpu:       0.1
 (Enter /opt/g09gh/gaussian/g09/l401.exe)
 Initial guess read from the read-write file.
 B after Tr=     0.000000    0.000000    0.000000
         Rot=    1.000000    0.000000    0.000000    0.000000 Ang=   0.00 deg.
 Guess basis will be translated and rotated to current coordinates.
 Initial guess orbital symmetries:
       Occupied  (A) (A) (A) (A) (A) (A) (A) (A) (A)
       Virtual   (A) (A) (A) (A) (A) (A) (A) (A) (A) (A) (A) (A)
                 (A) (A) (A) (A) (A) (A) (A) (A) (A) (A) (A) (A)
                 (A) (A) (A) (A) (A)
 The electronic state of the initial guess is 1-A.
 Generating alternative initial guess.
 Harris functional with IExCor=  205 diagonalized for initial guess.
 ExpMin= 1.61D-01 ExpMax= 5.48D+03 ExpMxC= 8.25D+02 IAcc=1 IRadAn=         1 AccDes= 0.00D+00
 HarFok:  IExCor=  205 AccDes= 0.00D+00 IRadAn=         1 IDoV= 1
 ScaDFX=  1.000000  1.000000  1.000000  1.000000
 FoFCou: FMM=F IPFlag=           0 FMFlag=      100000 FMFlg1=           0
         NFxFlg=           0 DoJE=T BraDBF=F KetDBF=T FulRan=T
         Omega=  0.000000  0.000000  1.000000  0.000000  0.000000 ICntrl=     500 IOpCl=  0
         NMat0=    1 NMatS0=    1 NMatT0=    0 NMatD0=    1 NMtDS0=    0 NMtDT0=    0
         I1Cent=           4 NGrid=           0.
 Petite list used in FoFCou.
 Harris En= -115.212937635041    
 Leave Link  401 at Sat Dec 21 15:10:51 2019, MaxMem= 2684354560 cpu:       0.8
 (Enter /opt/g09gh/gaussian/g09/l502.exe)
 Closed shell SCF:
 Requested convergence on RMS density matrix=1.00D-08 within 128 cycles.
 Requested convergence on MAX density matrix=1.00D-06.
 Requested convergence on             energy=1.00D-06.
 No special actions if energy rises.
 Using DIIS extrapolation, IDIIS=  1040.
 Integral symmetry usage will be decided dynamically.
 Keep R1 ints in memory in canonical form, NReq=1117925.
 IEnd=       23000 IEndB=       23000 NGot=  2684354560 MDV=  2684074744
 LenX=  2684074744 LenY=  2684072859
 Symmetry not used in FoFDir.
 MinBra= 0 MaxBra= 2 Meth= 1.
 IRaf=       0 NMat=   1 IRICut=       1 DoRegI=T DoRafI=F ISym2E= 0 JSym2E=0.

 Cycle   1  Pass 1  IDiag  1:
 E= -115.033158735318    
 DIIS: error= 9.86D-04 at cycle   1 NSaved=   1.
 NSaved= 1 IEnMin= 1 EnMin= -115.033158735318     IErMin= 1 ErrMin= 9.86D-04
 ErrMax= 9.86D-04 EMaxC= 1.00D-01 BMatC= 6.15D-05 BMatP= 6.15D-05
 IDIUse=3 WtCom= 9.90D-01 WtEn= 9.86D-03
 Coeff-Com:  0.100D+01
 Coeff-En:   0.100D+01
 Coeff:      0.100D+01
 Gap=     0.664 Goal=   None    Shift=    0.000
 RMSDP=1.96D-04 MaxDP=1.31D-03              OVMax= 2.03D-03

 Cycle   2  Pass 1  IDiag  1:
 E= -115.033235950436     Delta-E=       -0.000077215119 Rises=F Damp=F
 DIIS: error= 2.38D-04 at cycle   2 NSaved=   2.
 NSaved= 2 IEnMin= 2 EnMin= -115.033235950436     IErMin= 2 ErrMin= 2.38D-04
 ErrMax= 2.38D-04 EMaxC= 1.00D-01 BMatC= 4.17D-06 BMatP= 6.15D-05
 IDIUse=3 WtCom= 9.98D-01 WtEn= 2.38D-03
 Coeff-Com: -0.146D+00 0.115D+01
 Coeff-En:   0.000D+00 0.100D+01
 Coeff:     -0.146D+00 0.115D+01
 Gap=     0.663 Goal=   None    Shift=    0.000
 RMSDP=7.16D-05 MaxDP=4.65D-04 DE=-7.72D-05 OVMax= 8.32D-04

 Cycle   3  Pass 1  IDiag  1:
 E= -115.033242310860     Delta-E=       -0.000006360424 Rises=F Damp=F
 DIIS: error= 1.05D-04 at cycle   3 NSaved=   3.
 NSaved= 3 IEnMin= 3 EnMin= -115.033242310860     IErMin= 3 ErrMin= 1.05D-04
 ErrMax= 1.05D-04 EMaxC= 1.00D-01 BMatC= 6.20D-07 BMatP= 4.17D-06
 IDIUse=3 WtCom= 9.99D-01 WtEn= 1.05D-03
 Coeff-Com: -0.828D-01 0.262D+00 0.820D+00
 Coeff-En:   0.000D+00 0.000D+00 0.100D+01
 Coeff:     -0.827D-01 0.262D+00 0.821D+00
 Gap=     0.663 Goal=   None    Shift=    0.000
 RMSDP=2.23D-05 MaxDP=2.13D-04 DE=-6.36D-06 OVMax= 3.23D-04

 Cycle   4  Pass 1  IDiag  1:
 E= -115.033243004648     Delta-E=       -0.000000693788 Rises=F Damp=F
 DIIS: error= 3.02D-05 at cycle   4 NSaved=   4.
 NSaved= 4 IEnMin= 4 EnMin= -115.033243004648     IErMin= 4 ErrMin= 3.02D-05
 ErrMax= 3.02D-05 EMaxC= 1.00D-01 BMatC= 4.96D-08 BMatP= 6.20D-07
 IDIUse=1 WtCom= 1.00D+00 WtEn= 0.00D+00
 Coeff-Com:  0.797D-02-0.866D-01 0.713D-01 0.101D+01
 Coeff:      0.797D-02-0.866D-01 0.713D-01 0.101D+01
 Gap=     0.663 Goal=   None    Shift=    0.000
 RMSDP=1.00D-05 MaxDP=6.00D-05 DE=-6.94D-07 OVMax= 1.37D-04

 Cycle   5  Pass 1  IDiag  1:
 E= -115.033243089972     Delta-E=       -0.000000085324 Rises=F Damp=F
 DIIS: error= 1.29D-05 at cycle   5 NSaved=   5.
 NSaved= 5 IEnMin= 5 EnMin= -115.033243089972     IErMin= 5 ErrMin= 1.29D-05
 ErrMax= 1.29D-05 EMaxC= 1.00D-01 BMatC= 3.22D-09 BMatP= 4.96D-08
 IDIUse=1 WtCom= 1.00D+00 WtEn= 0.00D+00
 Coeff-Com:  0.617D-02-0.147D-01-0.680D-01-0.120D+00 0.120D+01
 Coeff:      0.617D-02-0.147D-01-0.680D-01-0.120D+00 0.120D+01
 Gap=     0.663 Goal=   None    Shift=    0.000
 RMSDP=4.12D-06 MaxDP=2.50D-05 DE=-8.53D-08 OVMax= 6.51D-05

 Cycle   6  Pass 1  IDiag  1:
 E= -115.033243099117     Delta-E=       -0.000000009146 Rises=F Damp=F
 DIIS: error= 2.05D-06 at cycle   6 NSaved=   6.
 NSaved= 6 IEnMin= 6 EnMin= -115.033243099117     IErMin= 6 ErrMin= 2.05D-06
 ErrMax= 2.05D-06 EMaxC= 1.00D-01 BMatC= 2.52D-10 BMatP= 3.22D-09
 IDIUse=1 WtCom= 1.00D+00 WtEn= 0.00D+00
 Coeff-Com: -0.196D-03 0.460D-02-0.916D-02-0.818D-01 0.958D-01 0.991D+00
 Coeff:     -0.196D-03 0.460D-02-0.916D-02-0.818D-01 0.958D-01 0.991D+00
 Gap=     0.663 Goal=   None    Shift=    0.000
 RMSDP=8.37D-07 MaxDP=4.82D-06 DE=-9.15D-09 OVMax= 1.25D-05

 Cycle   7  Pass 1  IDiag  1:
 E= -115.033243099620     Delta-E=       -0.000000000502 Rises=F Damp=F
 DIIS: error= 5.50D-07 at cycle   7 NSaved=   7.
 NSaved= 7 IEnMin= 7 EnMin= -115.033243099620     IErMin= 7 ErrMin= 5.50D-07
 ErrMax= 5.50D-07 EMaxC= 1.00D-01 BMatC= 1.63D-11 BMatP= 2.52D-10
 IDIUse=1 WtCom= 1.00D+00 WtEn= 0.00D+00
 Coeff-Com: -0.519D-03 0.114D-02 0.709D-02 0.162D-01-0.118D+00-0.380D-01
 Coeff-Com:  0.113D+01
 Coeff:     -0.519D-03 0.114D-02 0.709D-02 0.162D-01-0.118D+00-0.380D-01
 Coeff:      0.113D+01
 Gap=     0.663 Goal=   None    Shift=    0.000
 RMSDP=2.29D-07 MaxDP=1.72D-06 DE=-5.02D-10 OVMax= 2.76D-06

 Cycle   8  Pass 1  IDiag  1:
 E= -115.033243099656     Delta-E=       -0.000000000036 Rises=F Damp=F
 DIIS: error= 8.91D-08 at cycle   8 NSaved=   8.
 NSaved= 8 IEnMin= 8 EnMin= -115.033243099656     IErMin= 8 ErrMin= 8.91D-08
 ErrMax= 8.91D-08 EMaxC= 1.00D-01 BMatC= 5.43D-13 BMatP= 1.63D-11
 IDIUse=1 WtCom= 1.00D+00 WtEn= 0.00D+00
 Coeff-Com:  0.151D-03-0.514D-03-0.149D-02-0.136D-02 0.275D-01-0.218D-01
 Coeff-Com: -0.307D+00 0.130D+01
 Coeff:      0.151D-03-0.514D-03-0.149D-02-0.136D-02 0.275D-01-0.218D-01
 Coeff:     -0.307D+00 0.130D+01
 Gap=     0.663 Goal=   None    Shift=    0.000
 RMSDP=5.33D-08 MaxDP=4.83D-07 DE=-3.60D-11 OVMax= 7.44D-07

 Cycle   9  Pass 1  IDiag  1:
 E= -115.033243099658     Delta-E=       -0.000000000002 Rises=F Damp=F
 DIIS: error= 2.35D-08 at cycle   9 NSaved=   9.
 NSaved= 9 IEnMin= 9 EnMin= -115.033243099658     IErMin= 9 ErrMin= 2.35D-08
 ErrMax= 2.35D-08 EMaxC= 1.00D-01 BMatC= 2.95D-14 BMatP= 5.43D-13
 IDIUse=1 WtCom= 1.00D+00 WtEn= 0.00D+00
 Coeff-Com: -0.745D-05 0.517D-04-0.112D-04-0.488D-03-0.139D-03 0.721D-02
 Coeff-Com:  0.133D-01-0.303D+00 0.128D+01
 Coeff:     -0.745D-05 0.517D-04-0.112D-04-0.488D-03-0.139D-03 0.721D-02
 Coeff:      0.133D-01-0.303D+00 0.128D+01
 Gap=     0.663 Goal=   None    Shift=    0.000
 RMSDP=1.36D-08 MaxDP=1.46D-07 DE=-1.88D-12 OVMax= 2.07D-07

 Cycle  10  Pass 1  IDiag  1:
 E= -115.033243099658     Delta-E=        0.000000000000 Rises=F Damp=F
 DIIS: error= 5.71D-09 at cycle  10 NSaved=  10.
 NSaved=10 IEnMin=10 EnMin= -115.033243099658     IErMin=10 ErrMin= 5.71D-09
 ErrMax= 5.71D-09 EMaxC= 1.00D-01 BMatC= 1.58D-15 BMatP= 2.95D-14
 IDIUse=1 WtCom= 1.00D+00 WtEn= 0.00D+00
 Coeff-Com: -0.674D-05 0.195D-04 0.754D-04 0.163D-03-0.146D-02-0.419D-03
 Coeff-Com:  0.131D-01-0.337D-02-0.277D+00 0.127D+01
 Coeff:     -0.674D-05 0.195D-04 0.754D-04 0.163D-03-0.146D-02-0.419D-03
 Coeff:      0.131D-01-0.337D-02-0.277D+00 0.127D+01
 Gap=     0.663 Goal=   None    Shift=    0.000
 RMSDP=3.24D-09 MaxDP=4.42D-08 DE=-2.84D-14 OVMax= 5.33D-08

 SCF Done:  E(RHF) =  -115.033243100     A.U. after   10 cycles
             Convg  =    0.3245D-08             -V/T =  2.0014
 KE= 1.148694181233D+02 PE=-3.525239497547D+02 EE= 8.187469990865D+01
 Leave Link  502 at Sat Dec 21 15:10:51 2019, MaxMem= 2684354560 cpu:       0.4
 (Enter /opt/g09gh/gaussian/g09/l701.exe)
 Compute integral first derivatives.
 ... and contract with generalized density number  0.
 Leave Link  701 at Sat Dec 21 15:10:51 2019, MaxMem= 2684354560 cpu:       0.5
 (Enter /opt/g09gh/gaussian/g09/l702.exe)
 L702 exits ... SP integral derivatives will be done elsewhere.
 Leave Link  702 at Sat Dec 21 15:10:51 2019, MaxMem= 2684354560 cpu:       0.1
 (Enter /opt/g09gh/gaussian/g09/l703.exe)
 Compute integral first derivatives, UseDBF=F ICtDFT=           0.
 Integral derivatives from FoFDir, PRISM(SPDF).
 Calling FoFJK, ICntrl=      2127 FMM=F ISym2X=0 I1Cent= 0 IOpClX= 0 NMat=1 NMatS=1 NMatT=0.
 FoFCou: FMM=F IPFlag=           0 FMFlag=      100000 FMFlg1=         800
         NFxFlg=           0 DoJE=F BraDBF=F KetDBF=F FulRan=T
         Omega=  0.000000  0.000000  1.000000  0.000000  0.000000 ICntrl=    2127 IOpCl=  0
         NMat0=    1 NMatS0=    1 NMatT0=    0 NMatD0=    1 NMtDS0=    0 NMtDT0=    0
         I1Cent=           0 NGrid=           0.
 Symmetry not used in FoFCou.
 Leave Link  703 at Sat Dec 21 15:10:51 2019, MaxMem= 2684354560 cpu:       0.6
 (Enter /opt/g09gh/gaussian/g09/l716.exe)
 Dipole        =-3.51173475D-01 6.88723489D-01-7.27595695D-04
 ***** Axes restored to original set *****
 -------------------------------------------------------------------
 Center     Atomic                   Forces (Hartrees/Bohr)
 Number     Number              X              Y              Z
 -------------------------------------------------------------------
      1        8          -0.000895025    0.000933767   -0.000018010
      2        6           0.001645333    0.000286043    0.000069226
      3        1          -0.000581205   -0.000732788    0.000054648
      4        1          -0.000598571    0.000405498   -0.000567235
      5        1          -0.000679007    0.000330709    0.000512968
      6        1           0.001108475   -0.001223229   -0.000051598
 -------------------------------------------------------------------
 Cartesian Forces:  Max     0.001645333 RMS     0.000735999
 Leave Link  716 at Sat Dec 21 15:10:51 2019, MaxMem= 2684354560 cpu:       0.1
 (Enter /opt/g09gh/gaussian/g09/l103.exe)

 GradGradGradGradGradGradGradGradGradGradGradGradGradGradGradGradGradGrad
 Berny optimization.
 Using GEDIIS/GDIIS optimizer.
 Internal  Forces:  Max     0.001573729 RMS     0.000645210
 Search for a local minimum.
 Step number   3 out of a maximum of  100
 All quantities printed in internal units (Hartrees-Bohrs-Radians)
 RMS Force = .64521D-03 SwitMx=.10000D-02 MixMth= 2
 Mixed Optimization -- En-DIIS/RFO-DIIS
 Update second derivatives using D2CorX and points    1    2    3
 DE= -1.53D-04 DEPred=-1.54D-04 R= 9.88D-01
 SS=  1.41D+00  RLast= 2.92D-02 DXNew= 6.9972D-01 8.7728D-02
 Trust test= 9.88D-01 RLast= 2.92D-02 DXMaxT set to 4.16D-01
 The second derivative matrix:
                          R1        R2        R3        R4        R5
           R1           0.40289
           R2          -0.00557   0.54870
           R3           0.01069   0.00864   0.34257
           R4           0.00857   0.00892   0.00137   0.34345
           R5           0.00745   0.00791   0.00182   0.00204   0.34340
           A1           0.04246   0.00370  -0.00384  -0.00452  -0.00185
           A2           0.02963  -0.00352  -0.00374  -0.00468  -0.00267
           A3           0.01801  -0.00255  -0.00427  -0.00451  -0.00318
           A4           0.03238   0.00086  -0.00358  -0.00420  -0.00209
           A5          -0.03784  -0.00355   0.00414   0.00460   0.00218
           A6          -0.03057   0.00350   0.00463   0.00543   0.00332
           A7          -0.01740  -0.00155   0.00089   0.00131   0.00025
           D1           0.00062   0.00795   0.00289   0.00317   0.00294
           D2          -0.01538  -0.00326   0.00058   0.00077  -0.00012
           D3           0.01699  -0.00483  -0.00377  -0.00429  -0.00301
                          A1        A2        A3        A4        A5
           A1           0.16568
           A2           0.01019   0.17353
           A3          -0.00087   0.00330   0.15878
           A4           0.00520   0.00905   0.00021   0.16485
           A5          -0.00227  -0.00717   0.00127  -0.00250   0.15909
           A6          -0.00705  -0.01134  -0.00126  -0.00671   0.00502
           A7          -0.00509  -0.00621  -0.00129  -0.00422   0.00286
           D1          -0.00143  -0.00331  -0.00120  -0.00199   0.00260
           D2          -0.00190  -0.00295   0.00077  -0.00154   0.00057
           D3           0.00382   0.00703   0.00047   0.00399  -0.00351
                          A6        A7        D1        D2        D3
           A6           0.16825
           A7           0.00557   0.16278
           D1           0.00189   0.00168   0.01372
           D2           0.00192   0.00170  -0.00011   0.01413
           D3          -0.00434  -0.00379  -0.00040  -0.00087   0.01481
 Use linear search instead of GDIIS.
     Eigenvalues ---    0.01330   0.10034   0.10352   0.15095   0.16000
     Eigenvalues ---    0.16070   0.17559   0.34117   0.34159   0.34672
     Eigenvalues ---    0.43223   0.550011000.000001000.000001000.00000
 RFO step:  Lambda=-1.97376247D-05 EMin= 1.32977477D-02
 Quartic linear search produced a step of -0.01976.
 Iteration  1 RMS(Cart)=  0.00297302 RMS(Int)=  0.00000599
 Iteration  2 RMS(Cart)=  0.00000513 RMS(Int)=  0.00000108
 Iteration  3 RMS(Cart)=  0.00000000 RMS(Int)=  0.00000108
 Variable       Old X    -DE/DX   Delta X   Delta X   Delta X     New X
                                 (Linear)    (Quad)   (Total)
    R1        2.65321   0.00019   0.00047  -0.00155  -0.00109   2.65212
    R2        1.78175   0.00157   0.00001   0.00270   0.00271   1.78447
    R3        2.04935   0.00087  -0.00008   0.00276   0.00268   2.05203
    R4        2.04675   0.00087  -0.00009   0.00277   0.00268   2.04943
    R5        2.04682   0.00081  -0.00005   0.00246   0.00241   2.04923
    A1        1.91953   0.00089   0.00004   0.00534   0.00538   1.92491
    A2        1.95596   0.00037   0.00022   0.00160   0.00181   1.95777
    A3        1.91467   0.00021  -0.00009   0.00167   0.00158   1.91624
    A4        1.91322   0.00043   0.00006   0.00241   0.00247   1.91568
    A5        1.89044  -0.00026   0.00001  -0.00169  -0.00168   1.88876
    A6        1.89103  -0.00036  -0.00009  -0.00173  -0.00182   1.88921
    A7        1.89746  -0.00043  -0.00012  -0.00247  -0.00260   1.89486
    D1        0.00370   0.00001   0.00003   0.00096   0.00099   0.00469
    D2       -2.09686  -0.00005  -0.00007   0.00092   0.00085  -2.09601
    D3        2.10403   0.00009   0.00010   0.00145   0.00155   2.10558
         Item               Value     Threshold  Converged?
 Maximum Force            0.001574     0.000450     NO 
 RMS     Force            0.000645     0.000300     NO 
 Maximum Displacement     0.008937     0.001800     NO 
 RMS     Displacement     0.002974     0.001200     NO 
 Predicted change in Energy=-9.931623D-06
 GradGradGradGradGradGradGradGradGradGradGradGradGradGradGradGradGradGrad

 Leave Link  103 at Sat Dec 21 15:10:51 2019, MaxMem= 2684354560 cpu:       0.0
 (Enter /opt/g09gh/gaussian/g09/l202.exe)
                          Input orientation:                          
 ---------------------------------------------------------------------
 Center     Atomic      Atomic             Coordinates (Angstroms)
 Number     Number       Type             X           Y           Z
 ---------------------------------------------------------------------
      1          8           0        0.736617    0.097116   -0.007135
      2          6           0       -0.662243   -0.014024    0.014961
      3          1           0       -0.991088   -1.048908    0.020057
      4          1           0       -1.083028    0.471144   -0.858950
      5          1           0       -1.054616    0.471242    0.901804
      6          1           0        1.133058   -0.759870   -0.017637
 ---------------------------------------------------------------------
                    Distance matrix (angstroms):
                    1          2          3          4          5
     1  O    0.000000
     2  C    1.403442   0.000000
     3  H    2.073421   1.085887   0.000000
     4  H    2.043672   1.084513   1.758313   0.000000
     5  H    2.043198   1.084404   1.758513   1.760984   0.000000
     6  H    0.944299   1.944339   2.144052   2.671000   2.673374
                    6
     6  H    0.000000
 Stoichiometry    CH4O
 Framework group  C1[X(CH4O)]
 Deg. of freedom    12
 Full point group                 C1      NOp   1
 Largest Abelian subgroup         C1      NOp   1
 Largest concise Abelian subgroup C1      NOp   1
                         Standard orientation:                         
 ---------------------------------------------------------------------
 Center     Atomic      Atomic             Coordinates (Angstroms)
 Number     Number       Type             X           Y           Z
 ---------------------------------------------------------------------
      1          8           0        0.738462   -0.122726    0.000075
      2          6           0       -0.657848    0.018579   -0.000044
      3          1           0       -0.964324    1.060307   -0.005197
      4          1           0       -1.074768   -0.453137    0.883036
      5          1           0       -1.074941   -0.462349   -0.877924
      6          1           0        1.153422    0.725513   -0.000251
 ---------------------------------------------------------------------
 Rotational constants (GHZ):    131.7294464     25.2674805     24.3999105
 Leave Link  202 at Sat Dec 21 15:10:51 2019, MaxMem= 2684354560 cpu:       0.0
 (Enter /opt/g09gh/gaussian/g09/l301.exe)
 Standard basis: 6-31G(d) (6D, 7F)
 Ernie: Thresh=  0.10000D-02 Tol=  0.10000D-05 Strict=F.
 There are    38 symmetry adapted basis functions of A   symmetry.
 Integral buffers will be    131072 words long.
 Raffenetti 1 integral format.
 Two-electron integral symmetry is turned on.
    38 basis functions,    72 primitive gaussians,    38 cartesian basis functions
     9 alpha electrons        9 beta electrons
       nuclear repulsion energy        40.7247859708 Hartrees.
 IExCor=    0 DFT=F Ex=HF Corr=None ExCW=0 ScaHFX=  1.000000
 ScaDFX=  1.000000  1.000000  1.000000  1.000000 ScalE2=  1.000000  1.000000
 IRadAn=      0 IRanWt=     -1 IRanGd=            0 ICorTp=0
 NAtoms=    6 NActive=    6 NUniq=    6 SFac= 7.50D-01 NAtFMM=   80 NAOKFM=F Big=F
 Leave Link  301 at Sat Dec 21 15:10:51 2019, MaxMem= 2684354560 cpu:       0.2
 (Enter /opt/g09gh/gaussian/g09/l302.exe)
 NPDir=0 NMtPBC=     1 NCelOv=     1 NCel=       1 NClECP=     1 NCelD=      1
         NCelK=      1 NCelE2=     1 NClLst=     1 CellRange=     0.0.
 One-electron integrals computed using PRISM.
 NBasis=    38 RedAO= T  NBF=    38
 NBsUse=    38 1.00D-06 NBFU=    38
 Leave Link  302 at Sat Dec 21 15:10:52 2019, MaxMem= 2684354560 cpu:       0.4
 (Enter /opt/g09gh/gaussian/g09/l303.exe)
 DipDrv:  MaxL=1.
 Leave Link  303 at Sat Dec 21 15:10:52 2019, MaxMem= 2684354560 cpu:       0.1
 (Enter /opt/g09gh/gaussian/g09/l401.exe)
 Initial guess read from the read-write file.
 B after Tr=     0.000000    0.000000    0.000000
         Rot=    1.000000    0.000000    0.000000    0.000000 Ang=   0.00 deg.
 Guess basis will be translated and rotated to current coordinates.
 Initial guess orbital symmetries:
       Occupied  (A) (A) (A) (A) (A) (A) (A) (A) (A)
       Virtual   (A) (A) (A) (A) (A) (A) (A) (A) (A) (A) (A) (A)
                 (A) (A) (A) (A) (A) (A) (A) (A) (A) (A) (A) (A)
                 (A) (A) (A) (A) (A)
 The electronic state of the initial guess is 1-A.
 Leave Link  401 at Sat Dec 21 15:10:52 2019, MaxMem= 2684354560 cpu:       0.3
 (Enter /opt/g09gh/gaussian/g09/l502.exe)
 Closed shell SCF:
 Requested convergence on RMS density matrix=1.00D-08 within 128 cycles.
 Requested convergence on MAX density matrix=1.00D-06.
 Requested convergence on             energy=1.00D-06.
 No special actions if energy rises.
 Using DIIS extrapolation, IDIIS=  1040.
 Integral symmetry usage will be decided dynamically.
 Keep R1 ints in memory in canonical form, NReq=1117925.
 IEnd=       23000 IEndB=       23000 NGot=  2684354560 MDV=  2684074744
 LenX=  2684074744 LenY=  2684072859
 Symmetry not used in FoFDir.
 MinBra= 0 MaxBra= 2 Meth= 1.
 IRaf=       0 NMat=   1 IRICut=       1 DoRegI=T DoRafI=F ISym2E= 0 JSym2E=0.

 Cycle   1  Pass 1  IDiag  1:
 E= -115.033246238645    
 DIIS: error= 2.48D-04 at cycle   1 NSaved=   1.
 NSaved= 1 IEnMin= 1 EnMin= -115.033246238645     IErMin= 1 ErrMin= 2.48D-04
 ErrMax= 2.48D-04 EMaxC= 1.00D-01 BMatC= 4.39D-06 BMatP= 4.39D-06
 IDIUse=3 WtCom= 9.98D-01 WtEn= 2.48D-03
 Coeff-Com:  0.100D+01
 Coeff-En:   0.100D+01
 Coeff:      0.100D+01
 Gap=     0.663 Goal=   None    Shift=    0.000
 RMSDP=5.35D-05 MaxDP=4.60D-04              OVMax= 5.69D-04

 Cycle   2  Pass 1  IDiag  1:
 E= -115.033251472450     Delta-E=       -0.000005233806 Rises=F Damp=F
 DIIS: error= 8.19D-05 at cycle   2 NSaved=   2.
 NSaved= 2 IEnMin= 2 EnMin= -115.033251472450     IErMin= 2 ErrMin= 8.19D-05
 ErrMax= 8.19D-05 EMaxC= 1.00D-01 BMatC= 3.43D-07 BMatP= 4.39D-06
 IDIUse=1 WtCom= 1.00D+00 WtEn= 0.00D+00
 Coeff-Com: -0.309D-01 0.103D+01
 Coeff:     -0.309D-01 0.103D+01
 Gap=     0.663 Goal=   None    Shift=    0.000
 RMSDP=1.60D-05 MaxDP=1.31D-04 DE=-5.23D-06 OVMax= 2.37D-04

 Cycle   3  Pass 1  IDiag  1:
 E= -115.033251890017     Delta-E=       -0.000000417567 Rises=F Damp=F
 DIIS: error= 3.57D-05 at cycle   3 NSaved=   3.
 NSaved= 3 IEnMin= 3 EnMin= -115.033251890017     IErMin= 3 ErrMin= 3.57D-05
 ErrMax= 3.57D-05 EMaxC= 1.00D-01 BMatC= 4.10D-08 BMatP= 3.43D-07
 IDIUse=1 WtCom= 1.00D+00 WtEn= 0.00D+00
 Coeff-Com: -0.783D-01 0.153D+00 0.925D+00
 Coeff:     -0.783D-01 0.153D+00 0.925D+00
 Gap=     0.663 Goal=   None    Shift=    0.000
 RMSDP=5.69D-06 MaxDP=5.56D-05 DE=-4.18D-07 OVMax= 6.80D-05

 Cycle   4  Pass 1  IDiag  1:
 E= -115.033251944189     Delta-E=       -0.000000054172 Rises=F Damp=F
 DIIS: error= 5.20D-06 at cycle   4 NSaved=   4.
 NSaved= 4 IEnMin= 4 EnMin= -115.033251944189     IErMin= 4 ErrMin= 5.20D-06
 ErrMax= 5.20D-06 EMaxC= 1.00D-01 BMatC= 1.21D-09 BMatP= 4.10D-08
 IDIUse=1 WtCom= 1.00D+00 WtEn= 0.00D+00
 Coeff-Com:  0.928D-02-0.538D-01-0.111D+00 0.116D+01
 Coeff:      0.928D-02-0.538D-01-0.111D+00 0.116D+01
 Gap=     0.663 Goal=   None    Shift=    0.000
 RMSDP=1.93D-06 MaxDP=1.48D-05 DE=-5.42D-08 OVMax= 2.32D-05

 Cycle   5  Pass 1  IDiag  1:
 E= -115.033251947043     Delta-E=       -0.000000002854 Rises=F Damp=F
 DIIS: error= 1.70D-06 at cycle   5 NSaved=   5.
 NSaved= 5 IEnMin= 5 EnMin= -115.033251947043     IErMin= 5 ErrMin= 1.70D-06
 ErrMax= 1.70D-06 EMaxC= 1.00D-01 BMatC= 9.14D-11 BMatP= 1.21D-09
 IDIUse=1 WtCom= 1.00D+00 WtEn= 0.00D+00
 Coeff-Com:  0.431D-02-0.773D-02-0.547D-01-0.700D-02 0.107D+01
 Coeff:      0.431D-02-0.773D-02-0.547D-01-0.700D-02 0.107D+01
 Gap=     0.663 Goal=   None    Shift=    0.000
 RMSDP=5.24D-07 MaxDP=4.63D-06 DE=-2.85D-09 OVMax= 6.40D-06

 Cycle   6  Pass 1  IDiag  1:
 E= -115.033251947236     Delta-E=       -0.000000000193 Rises=F Damp=F
 DIIS: error= 4.33D-07 at cycle   6 NSaved=   6.
 NSaved= 6 IEnMin= 6 EnMin= -115.033251947236     IErMin= 6 ErrMin= 4.33D-07
 ErrMax= 4.33D-07 EMaxC= 1.00D-01 BMatC= 1.07D-11 BMatP= 9.14D-11
 IDIUse=1 WtCom= 1.00D+00 WtEn= 0.00D+00
 Coeff-Com:  0.176D-03 0.211D-02-0.295D-02-0.744D-01 0.171D+00 0.904D+00
 Coeff:      0.176D-03 0.211D-02-0.295D-02-0.744D-01 0.171D+00 0.904D+00
 Gap=     0.663 Goal=   None    Shift=    0.000
 RMSDP=1.34D-07 MaxDP=1.36D-06 DE=-1.93D-10 OVMax= 1.75D-06

 Cycle   7  Pass 1  IDiag  1:
 E= -115.033251947252     Delta-E=       -0.000000000016 Rises=F Damp=F
 DIIS: error= 1.35D-07 at cycle   7 NSaved=   7.
 NSaved= 7 IEnMin= 7 EnMin= -115.033251947252     IErMin= 7 ErrMin= 1.35D-07
 ErrMax= 1.35D-07 EMaxC= 1.00D-01 BMatC= 1.16D-12 BMatP= 1.07D-11
 IDIUse=1 WtCom= 1.00D+00 WtEn= 0.00D+00
 Coeff-Com: -0.604D-03 0.118D-02 0.745D-02-0.902D-03-0.152D+00 0.685D-01
 Coeff-Com:  0.108D+01
 Coeff:     -0.604D-03 0.118D-02 0.745D-02-0.902D-03-0.152D+00 0.685D-01
 Coeff:      0.108D+01
 Gap=     0.663 Goal=   None    Shift=    0.000
 RMSDP=5.45D-08 MaxDP=5.08D-07 DE=-1.64D-11 OVMax= 7.10D-07

 Cycle   8  Pass 1  IDiag  1:
 E= -115.033251947254     Delta-E=       -0.000000000002 Rises=F Damp=F
 DIIS: error= 1.94D-08 at cycle   8 NSaved=   8.
 NSaved= 8 IEnMin= 8 EnMin= -115.033251947254     IErMin= 8 ErrMin= 1.94D-08
 ErrMax= 1.94D-08 EMaxC= 1.00D-01 BMatC= 3.17D-14 BMatP= 1.16D-12
 IDIUse=1 WtCom= 1.00D+00 WtEn= 0.00D+00
 Coeff-Com:  0.164D-03-0.377D-03-0.207D-02 0.272D-02 0.376D-01-0.486D-01
 Coeff-Com: -0.314D+00 0.132D+01
 Coeff:      0.164D-03-0.377D-03-0.207D-02 0.272D-02 0.376D-01-0.486D-01
 Coeff:     -0.314D+00 0.132D+01
 Gap=     0.663 Goal=   None    Shift=    0.000
 RMSDP=1.15D-08 MaxDP=1.05D-07 DE=-2.19D-12 OVMax= 1.45D-07

 Cycle   9  Pass 1  IDiag  1:
 E= -115.033251947255     Delta-E=        0.000000000000 Rises=F Damp=F
 DIIS: error= 5.04D-09 at cycle   9 NSaved=   9.
 NSaved= 9 IEnMin= 9 EnMin= -115.033251947255     IErMin= 9 ErrMin= 5.04D-09
 ErrMax= 5.04D-09 EMaxC= 1.00D-01 BMatC= 1.52D-15 BMatP= 3.17D-14
 IDIUse=1 WtCom= 1.00D+00 WtEn= 0.00D+00
 Coeff-Com: -0.113D-04 0.394D-04 0.156D-03-0.710D-03-0.188D-02 0.962D-02
 Coeff-Com:  0.268D-01-0.334D+00 0.130D+01
 Coeff:     -0.113D-04 0.394D-04 0.156D-03-0.710D-03-0.188D-02 0.962D-02
 Coeff:      0.268D-01-0.334D+00 0.130D+01
 Gap=     0.663 Goal=   None    Shift=    0.000
 RMSDP=2.72D-09 MaxDP=3.01D-08 DE=-2.56D-13 OVMax= 3.95D-08

 SCF Done:  E(RHF) =  -115.033251947     A.U. after    9 cycles
             Convg  =    0.2715D-08             -V/T =  2.0015
 KE= 1.148599034335D+02 PE=-3.524732806287D+02 EE= 8.185533927720D+01
 Leave Link  502 at Sat Dec 21 15:10:52 2019, MaxMem= 2684354560 cpu:       0.5
 (Enter /opt/g09gh/gaussian/g09/l701.exe)
 Compute integral first derivatives.
 ... and contract with generalized density number  0.
 Leave Link  701 at Sat Dec 21 15:10:52 2019, MaxMem= 2684354560 cpu:       0.5
 (Enter /opt/g09gh/gaussian/g09/l702.exe)
 L702 exits ... SP integral derivatives will be done elsewhere.
 Leave Link  702 at Sat Dec 21 15:10:52 2019, MaxMem= 2684354560 cpu:       0.1
 (Enter /opt/g09gh/gaussian/g09/l703.exe)
 Compute integral first derivatives, UseDBF=F ICtDFT=           0.
 Integral derivatives from FoFDir, PRISM(SPDF).
 Calling FoFJK, ICntrl=      2127 FMM=F ISym2X=0 I1Cent= 0 IOpClX= 0 NMat=1 NMatS=1 NMatT=0.
 FoFCou: FMM=F IPFlag=           0 FMFlag=      100000 FMFlg1=         800
         NFxFlg=           0 DoJE=F BraDBF=F KetDBF=F FulRan=T
         Omega=  0.000000  0.000000  1.000000  0.000000  0.000000 ICntrl=    2127 IOpCl=  0
         NMat0=    1 NMatS0=    1 NMatT0=    0 NMatD0=    1 NMtDS0=    0 NMtDT0=    0
         I1Cent=           0 NGrid=           0.
 Symmetry not used in FoFCou.
 Leave Link  703 at Sat Dec 21 15:10:52 2019, MaxMem= 2684354560 cpu:       0.6
 (Enter /opt/g09gh/gaussian/g09/l716.exe)
 Dipole        =-3.46055624D-01 6.88577420D-01-5.92900839D-04
 ***** Axes restored to original set *****
 -------------------------------------------------------------------
 Center     Atomic                   Forces (Hartrees/Bohr)
 Number     Number              X              Y              Z
 -------------------------------------------------------------------
      1        8           0.000058722    0.000099549    0.000040383
      2        6           0.000099196   -0.000266026   -0.000091420
      3        1          -0.000060790    0.000110134    0.000043695
      4        1           0.000062441   -0.000012346    0.000081231
      5        1           0.000041342   -0.000017411   -0.000051082
      6        1          -0.000200912    0.000086100   -0.000022806
 -------------------------------------------------------------------
 Cartesian Forces:  Max     0.000266026 RMS     0.000101451
 Leave Link  716 at Sat Dec 21 15:10:53 2019, MaxMem= 2684354560 cpu:       0.1
 (Enter /opt/g09gh/gaussian/g09/l103.exe)

 GradGradGradGradGradGradGradGradGradGradGradGradGradGradGradGradGradGrad
 Berny optimization.
 Using GEDIIS/GDIIS optimizer.
 Internal  Forces:  Max     0.000260305 RMS     0.000108077
 Search for a local minimum.
 Step number   4 out of a maximum of  100
 All quantities printed in internal units (Hartrees-Bohrs-Radians)
 RMS Force = .10808D-03 SwitMx=.10000D-02 MixMth= 2
 Mixed Optimization -- En-DIIS/RFO-DIIS
 Swaping is turned off.
 Update second derivatives using D2CorX and points    1    2    3    4
 DE= -8.85D-06 DEPred=-9.93D-06 R= 8.91D-01
 SS=  1.41D+00  RLast= 9.30D-03 DXNew= 6.9972D-01 2.7895D-02
 Trust test= 8.91D-01 RLast= 9.30D-03 DXMaxT set to 4.16D-01
 The second derivative matrix:
                          R1        R2        R3        R4        R5
           R1           0.39605
           R2           0.00465   0.56109
           R3           0.01733   0.01511   0.34586
           R4           0.01510   0.01605   0.00506   0.34755
           R5           0.01366   0.01279   0.00418   0.00475   0.34500
           A1           0.04476   0.02331   0.00772   0.00753   0.00787
           A2           0.03505  -0.01741  -0.01251  -0.01350  -0.01056
           A3           0.01863   0.00320  -0.00088  -0.00097  -0.00032
           A4           0.03409   0.00670  -0.00025  -0.00067   0.00064
           A5          -0.03966  -0.00487   0.00357   0.00392   0.00181
           A6          -0.03314   0.00455   0.00556   0.00627   0.00427
           A7          -0.02156   0.00233   0.00349   0.00380   0.00279
           D1           0.00187   0.00386   0.00032   0.00057   0.00066
           D2          -0.01539  -0.00382   0.00040   0.00058  -0.00034
           D3           0.01693  -0.00344  -0.00308  -0.00358  -0.00236
                          A1        A2        A3        A4        A5
           A1           0.18520
           A2           0.00291   0.17092
           A3           0.00481   0.00118   0.16042
           A4           0.01181   0.00577   0.00211   0.16693
           A5          -0.00474  -0.00490   0.00060  -0.00306   0.15892
           A6          -0.00802  -0.00886  -0.00150  -0.00666   0.00452
           A7          -0.00591  -0.00249  -0.00157  -0.00402   0.00218
           D1          -0.00402  -0.00366  -0.00195  -0.00306   0.00323
           D2          -0.00153  -0.00302   0.00095  -0.00134   0.00039
           D3           0.00417   0.00694   0.00050   0.00404  -0.00344
                          A6        A7        D1        D2        D3
           A6           0.16742
           A7           0.00429   0.16057
           D1           0.00250   0.00267   0.01376
           D2           0.00186   0.00169  -0.00022   0.01416
           D3          -0.00434  -0.00390  -0.00036  -0.00085   0.01477
     Eigenvalues ---    0.01323   0.10043   0.10353   0.15182   0.16000
     Eigenvalues ---    0.16492   0.17737   0.34122   0.34145   0.35207
     Eigenvalues ---    0.43466   0.567401000.000001000.000001000.00000
 En-DIIS/RFO-DIIS IScMMF=        0 using points:     4    3
 RFO step:  Lambda=-3.48463830D-07.
 DIIS coeffs:      0.90277      0.09723
 Iteration  1 RMS(Cart)=  0.00061785 RMS(Int)=  0.00000041
 Iteration  2 RMS(Cart)=  0.00000030 RMS(Int)=  0.00000011
 Variable       Old X    -DE/DX   Delta X   Delta X   Delta X     New X
                                  (DIIS)     (GDIIS)  (Total)
    R1        2.65212  -0.00013   0.00011  -0.00038  -0.00027   2.65185
    R2        1.78447  -0.00016  -0.00026   0.00009  -0.00017   1.78429
    R3        2.05203  -0.00009  -0.00026   0.00012  -0.00014   2.05189
    R4        2.04943  -0.00010  -0.00026   0.00010  -0.00016   2.04927
    R5        2.04923  -0.00006  -0.00023   0.00014  -0.00009   2.04914
    A1        1.92491  -0.00026  -0.00052  -0.00078  -0.00130   1.92361
    A2        1.95777   0.00017  -0.00018   0.00127   0.00110   1.95887
    A3        1.91624  -0.00006  -0.00015  -0.00015  -0.00030   1.91594
    A4        1.91568  -0.00007  -0.00024  -0.00016  -0.00040   1.91528
    A5        1.88876   0.00001   0.00016   0.00001   0.00017   1.88893
    A6        1.88921  -0.00005   0.00018  -0.00048  -0.00031   1.88891
    A7        1.89486  -0.00001   0.00025  -0.00055  -0.00030   1.89457
    D1        0.00469   0.00004  -0.00010   0.00136   0.00126   0.00595
    D2       -2.09601  -0.00004  -0.00008   0.00061   0.00053  -2.09548
    D3        2.10558   0.00005  -0.00015   0.00147   0.00132   2.10690
         Item               Value     Threshold  Converged?
 Maximum Force            0.000260     0.000450     YES
 RMS     Force            0.000108     0.000300     YES
 Maximum Displacement     0.001230     0.001800     YES
 RMS     Displacement     0.000618     0.001200     YES
 Predicted change in Energy=-3.857919D-07
 Optimization completed.
    -- Stationary point found.
                           ----------------------------
                           !   Optimized Parameters   !
                           ! (Angstroms and Degrees)  !
 --------------------------                            --------------------------
 ! Name  Definition              Value          Derivative Info.                !
 --------------------------------------------------------------------------------
 ! R1    R(1,2)                  1.4034         -DE/DX =   -0.0001              !
 ! R2    R(1,6)                  0.9443         -DE/DX =   -0.0002              !
 ! R3    R(2,3)                  1.0859         -DE/DX =   -0.0001              !
 ! R4    R(2,4)                  1.0845         -DE/DX =   -0.0001              !
 ! R5    R(2,5)                  1.0844         -DE/DX =   -0.0001              !
 ! A1    A(2,1,6)              110.2894         -DE/DX =   -0.0003              !
 ! A2    A(1,2,3)              112.1722         -DE/DX =    0.0002              !
 ! A3    A(1,2,4)              109.7925         -DE/DX =   -0.0001              !
 ! A4    A(1,2,5)              109.7606         -DE/DX =   -0.0001              !
 ! A5    A(3,2,4)              108.2179         -DE/DX =    0.0                 !
 ! A6    A(3,2,5)              108.2439         -DE/DX =    0.0                 !
 ! A7    A(4,2,5)              108.5676         -DE/DX =    0.0                 !
 ! D1    D(6,1,2,3)              0.2686         -DE/DX =    0.0                 !
 ! D2    D(6,1,2,4)           -120.0925         -DE/DX =    0.0                 !
 ! D3    D(6,1,2,5)            120.6409         -DE/DX =    0.0                 !
 --------------------------------------------------------------------------------
 GradGradGradGradGradGradGradGradGradGradGradGradGradGradGradGradGradGrad

 Largest change from initial coordinates is atom    5       2.298 Angstoms.
 Leave Link  103 at Sat Dec 21 15:10:53 2019, MaxMem= 2684354560 cpu:       0.0
 (Enter /opt/g09gh/gaussian/g09/l202.exe)
                          Input orientation:                          
 ---------------------------------------------------------------------
 Center     Atomic      Atomic             Coordinates (Angstroms)
 Number     Number       Type             X           Y           Z
 ---------------------------------------------------------------------
      1          8           0        0.736617    0.097116   -0.007135
      2          6           0       -0.662243   -0.014024    0.014961
      3          1           0       -0.991088   -1.048908    0.020057
      4          1           0       -1.083028    0.471144   -0.858950
      5          1           0       -1.054616    0.471242    0.901804
      6          1           0        1.133058   -0.759870   -0.017637
 ---------------------------------------------------------------------
                    Distance matrix (angstroms):
                    1          2          3          4          5
     1  O    0.000000
     2  C    1.403442   0.000000
     3  H    2.073421   1.085887   0.000000
     4  H    2.043672   1.084513   1.758313   0.000000
     5  H    2.043198   1.084404   1.758513   1.760984   0.000000
     6  H    0.944299   1.944339   2.144052   2.671000   2.673374
                    6
     6  H    0.000000
 Stoichiometry    CH4O
 Framework group  C1[X(CH4O)]
 Deg. of freedom    12
 Full point group                 C1      NOp   1
 Largest Abelian subgroup         C1      NOp   1
 Largest concise Abelian subgroup C1      NOp   1
                         Standard orientation:                         
 ---------------------------------------------------------------------
 Center     Atomic      Atomic             Coordinates (Angstroms)
 Number     Number       Type             X           Y           Z
 ---------------------------------------------------------------------
      1          8           0        0.738462   -0.122726    0.000075
      2          6           0       -0.657848    0.018579   -0.000044
      3          1           0       -0.964324    1.060307   -0.005197
      4          1           0       -1.074768   -0.453137    0.883036
      5          1           0       -1.074941   -0.462349   -0.877924
      6          1           0        1.153422    0.725513   -0.000251
 ---------------------------------------------------------------------
 Rotational constants (GHZ):    131.7294464     25.2674805     24.3999105
 Leave Link  202 at Sat Dec 21 15:10:53 2019, MaxMem= 2684354560 cpu:       0.0
 (Enter /opt/g09gh/gaussian/g09/l601.exe)
 Copying SCF densities to generalized density rwf, IOpCl= 0 IROHF=0.

 **********************************************************************

            Population analysis using the SCF density.

 **********************************************************************

 Orbital symmetries:
       Occupied  (A) (A) (A) (A) (A) (A) (A) (A) (A)
       Virtual   (A) (A) (A) (A) (A) (A) (A) (A) (A) (A) (A) (A)
                 (A) (A) (A) (A) (A) (A) (A) (A) (A) (A) (A) (A)
                 (A) (A) (A) (A) (A)
 The electronic state is 1-A.
 Alpha  occ. eigenvalues --  -20.55313 -11.26686  -1.35786  -0.92722  -0.69344
 Alpha  occ. eigenvalues --   -0.61919  -0.59599  -0.49674  -0.44093
 Alpha virt. eigenvalues --    0.22195   0.27834   0.32585   0.33196   0.39536
 Alpha virt. eigenvalues --    0.76312   0.76392   0.79694   1.08399   1.13525
 Alpha virt. eigenvalues --    1.13558   1.18396   1.21832   1.25012   1.27271
 Alpha virt. eigenvalues --    1.44744   1.72622   1.76017   1.81639   2.04514
 Alpha virt. eigenvalues --    2.42803   2.45899   2.51060   2.60753   2.73591
 Alpha virt. eigenvalues --    2.90036   3.16695   4.13976   4.64487
          Condensed to atoms (all electrons):
              1          2          3          4          5          6
     1  O    8.367453   0.214711  -0.029935  -0.041768  -0.041723   0.266185
     2  C    0.214711   4.781033   0.392845   0.399089   0.399166  -0.025373
     3  H   -0.029935   0.392845   0.579896  -0.035099  -0.034952  -0.010350
     4  H   -0.041768   0.399089  -0.035099   0.558791  -0.042656   0.003308
     5  H   -0.041723   0.399166  -0.034952  -0.042656   0.558216   0.003348
     6  H    0.266185  -0.025373  -0.010350   0.003308   0.003348   0.321018
 Mulliken atomic charges:
              1
     1  O   -0.734923
     2  C   -0.161470
     3  H    0.137594
     4  H    0.158335
     5  H    0.158600
     6  H    0.441864
 Sum of Mulliken atomic charges =   0.00000
 Mulliken charges with hydrogens summed into heavy atoms:
              1
     1  O   -0.293059
     2  C    0.293059
 Sum of Mulliken charges with hydrogens summed into heavy atoms =   0.00000
 Electronic spatial extent (au):  <R**2>=             82.9396
 Charge=              0.0000 electrons
 Dipole moment (field-independent basis, Debye):
    X=             -0.8796    Y=              1.7502    Z=             -0.0015  Tot=              1.9588
 Quadrupole moment (field-independent basis, Debye-Ang):
   XX=            -12.5093   YY=            -12.1485   ZZ=            -13.5397
   XY=              2.2533   XZ=              0.0001   YZ=              0.0006
 Traceless Quadrupole moment (field-independent basis, Debye-Ang):
   XX=              0.2232   YY=              0.5841   ZZ=             -0.8072
   XY=              2.2533   XZ=              0.0001   YZ=              0.0006
 Octapole moment (field-independent basis, Debye-Ang**2):
  XXX=              4.5402  YYY=              1.7797  ZZZ=              0.0043  XYY=              2.0406
  XXY=              2.6374  XXZ=             -0.0022  XZZ=              0.4366  YZZ=             -0.1833
  YYZ=             -0.0073  XYZ=             -0.0022
 Hexadecapole moment (field-independent basis, Debye-Ang**3):
 XXXX=            -58.1466 YYYY=            -19.0335 ZZZZ=            -18.4181 XXXY=              3.8256
 XXXZ=              0.0007 YYYX=              1.6603 YYYZ=              0.0001 ZZZX=             -0.0062
 ZZZY=              0.0022 XXYY=            -12.1035 XXZZ=            -13.2674 YYZZ=             -6.4306
 XXYZ=              0.0021 YYXZ=              0.0079 ZZXY=              0.9382
 N-N= 4.072478597080D+01 E-N=-3.524732806203D+02  KE= 1.148599034335D+02
 No NMR shielding tensors so no spin-rotation constants.
 Leave Link  601 at Sat Dec 21 15:10:53 2019, MaxMem= 2684354560 cpu:       0.5
 (Enter /opt/g09gh/gaussian/g09/l9999.exe)
 1\1\GINC-NODE43\FOpt\RHF\6-31G(d)\C1H4O1\BDW2292\21-Dec-2019\0\\#P opt
 =(,maxcycle=400) HF/6-31G* MaxDisk=100GB\\methanol Rotatable Bond Opti
 mization on bme-nova.bme.utexas.edu\\0,1\O,0.73661711,0.0971159821,-0.
 0071354115\C,-0.6622427025,-0.0140235385,0.014960691\H,-0.9910877257,-
 1.0489081211,0.0200572719\H,-1.0830284213,0.4711440104,-0.8589501732\H
 ,-1.0546163903,0.471241798,0.9018043978\H,1.1330581299,-0.7598701308,-
 0.017636776\\Version=EM64L-G09RevA.02\State=1-A\HF=-115.0332519\RMSD=2
 .715e-09\RMSF=1.015e-04\Dipole=-0.3608344,-0.6809434,0.0028847\Quadrup
 ole=0.0932995,0.5063562,-0.5996557,-1.6676032,-0.0198643,0.0330681\PG=
 C01 [X(C1H4O1)]\\@


 NOT WHAT WE DID SHALL BE THE TEST
 WHEN ACT AND WILL ARE DONE,
 BUT WHAT OUR LORD INFERS WE WOULD-
 HAD WE DIVINER BEEN.
           EMILY DICKINSON  POEMS NO. CLXXV
 Job cpu time:  0 days  0 hours  0 minutes 14.3 seconds.
 File lengths (MBytes):  RWF=      5 Int=      0 D2E=      0 Chk=      1 Scr=      1
 Normal termination of Gaussian 09 at Sat Dec 21 15:10:53 2019.
