 Entering Gaussian System, Link 0=g09
 Input=methanol-sp-6-1-2-3-211.com
 Output=methanol-sp-6-1-2-3-211.log
 Initial command:
 /opt/g09gh/gaussian/g09/l1.exe /scratch/bdw2292/Gau-methanol/Gau-56159.inp -scrdir=/scratch/bdw2292/Gau-methanol/
 Entering Link 1 = /opt/g09gh/gaussian/g09/l1.exe PID=     56160.
  
 Copyright (c) 1988,1990,1992,1993,1995,1998,2003,2009, Gaussian, Inc.
                  All Rights Reserved.
  
 This is part of the Gaussian(R) 09 program.  It is based on
 the Gaussian(R) 03 system (copyright 2003, Gaussian, Inc.),
 the Gaussian(R) 98 system (copyright 1998, Gaussian, Inc.),
 the Gaussian(R) 94 system (copyright 1995, Gaussian, Inc.),
 the Gaussian 92(TM) system (copyright 1992, Gaussian, Inc.),
 the Gaussian 90(TM) system (copyright 1990, Gaussian, Inc.),
 the Gaussian 88(TM) system (copyright 1988, Gaussian, Inc.),
 the Gaussian 86(TM) system (copyright 1986, Carnegie Mellon
 University), and the Gaussian 82(TM) system (copyright 1983,
 Carnegie Mellon University). Gaussian is a federally registered
 trademark of Gaussian, Inc.
  
 This software contains proprietary and confidential information,
 including trade secrets, belonging to Gaussian, Inc.
  
 This software is provided under written license and may be
 used, copied, transmitted, or stored only in accord with that
 written license.
  
 The following legend is applicable only to US Government
 contracts under FAR:
  
                    RESTRICTED RIGHTS LEGEND
  
 Use, reproduction and disclosure by the US Government is
 subject to restrictions as set forth in subparagraphs (a)
 and (c) of the Commercial Computer Software - Restricted
 Rights clause in FAR 52.227-19.
  
 Gaussian, Inc.
 340 Quinnipiac St., Bldg. 40, Wallingford CT 06492
  
  
 ---------------------------------------------------------------
 Warning -- This program may not be used in any manner that
 competes with the business of Gaussian, Inc. or will provide
 assistance to any competitor of Gaussian, Inc.  The licensee
 of this program is prohibited from giving any competitor of
 Gaussian, Inc. access to this program.  By using this program,
 the user acknowledges that Gaussian, Inc. is engaged in the
 business of creating and licensing software in the field of
 computational chemistry and represents and warrants to the
 licensee that it is not a competitor of Gaussian, Inc. and that
 it will not use this program in any manner prohibited above.
 ---------------------------------------------------------------
  

 Cite this work as:
 Gaussian 09, Revision A.02,
 M. J. Frisch, G. W. Trucks, H. B. Schlegel, G. E. Scuseria, 
 M. A. Robb, J. R. Cheeseman, G. Scalmani, V. Barone, B. Mennucci, 
 G. A. Petersson, H. Nakatsuji, M. Caricato, X. Li, H. P. Hratchian, 
 A. F. Izmaylov, J. Bloino, G. Zheng, J. L. Sonnenberg, M. Hada, 
 M. Ehara, K. Toyota, R. Fukuda, J. Hasegawa, M. Ishida, T. Nakajima, 
 Y. Honda, O. Kitao, H. Nakai, T. Vreven, J. A. Montgomery, Jr., 
 J. E. Peralta, F. Ogliaro, M. Bearpark, J. J. Heyd, E. Brothers, 
 K. N. Kudin, V. N. Staroverov, R. Kobayashi, J. Normand, 
 K. Raghavachari, A. Rendell, J. C. Burant, S. S. Iyengar, J. Tomasi, 
 M. Cossi, N. Rega, J. M. Millam, M. Klene, J. E. Knox, J. B. Cross, 
 V. Bakken, C. Adamo, J. Jaramillo, R. Gomperts, R. E. Stratmann, 
 O. Yazyev, A. J. Austin, R. Cammi, C. Pomelli, J. W. Ochterski, 
 R. L. Martin, K. Morokuma, V. G. Zakrzewski, G. A. Voth, 
 P. Salvador, J. J. Dannenberg, S. Dapprich, A. D. Daniels, 
 O. Farkas, J. B. Foresman, J. V. Ortiz, J. Cioslowski, 
 and D. J. Fox, Gaussian, Inc., Wallingford CT, 2009.
 
 ******************************************
 Gaussian 09:  EM64L-G09RevA.02 11-Jun-2009
                21-Dec-2019 
 ******************************************
 %RWF=/scratch/bdw2292/Gau-methanol/,100GB
 %Nosave
 %Chk=methanol-sp-6-1-2-3-211.chk
 %Mem=20GB
 %Nproc=4
 Will use up to    4 processors via shared memory.
 -------------------------------------------------------------------
 #P MP2/6-311++G** SP SCF=(qc,maxcycle=800) Guess=Indo MaxDisk=100GB
 -------------------------------------------------------------------
 1/38=1/1;
 2/12=2,17=6,18=5,40=1/2;
 3/5=4,6=6,7=1111,11=9,16=1,25=1,30=1/1,2,3;
 4/5=4,11=3/1;
 5/5=2,7=800,8=3,38=5/8;
 8/10=2/1;
 9/16=-3/6;
 6/7=2,8=2,9=2,10=2/1;
 99/5=1,9=1/99;
 Leave Link    1 at Sat Dec 21 15:14:25 2019, MaxMem= 2684354560 cpu:       0.2
 (Enter /opt/g09gh/gaussian/g09/l101.exe)
 -----------------------------------------------------------------
 methanol Rotatable Bond SP Calculation on bme-nova.bme.utexas.edu
 -----------------------------------------------------------------
 Symbolic Z-matrix:
 Charge =  0 Multiplicity = 1
 O                    -0.68292  -0.36969  -0.34507 
 C                     0.69456  -0.11038  -0.07708 
 H                     1.17478   0.1719   -1.02046 
 H                     1.13311  -1.01616   0.35637 
 H                     0.75453   0.71767   0.63904 
 H                    -1.19302  -0.13895   0.4472 
 
 NAtoms=      6 NQM=      6 NQMF=      0 NMic=      0 NMicF=      0 NTot=      6.
                    Isotopes and Nuclear Properties:
 (Nuclear quadrupole moments (NQMom) in fm**2, nuclear magnetic moments (NMagM)
  in nuclear magnetons)

  Atom         1           2           3           4           5           6
 IAtWgt=          16          12           1           1           1           1
 AtmWgt=  15.9949146  12.0000000   1.0078250   1.0078250   1.0078250   1.0078250
 NucSpn=           0           0           1           1           1           1
 AtZEff=   0.0000000   0.0000000   0.0000000   0.0000000   0.0000000   0.0000000
 NQMom=    0.0000000   0.0000000   0.0000000   0.0000000   0.0000000   0.0000000
 NMagM=    0.0000000   0.0000000   2.7928460   2.7928460   2.7928460   2.7928460
 Leave Link  101 at Sat Dec 21 15:14:25 2019, MaxMem= 2684354560 cpu:       0.2
 (Enter /opt/g09gh/gaussian/g09/l202.exe)
                          Input orientation:                          
 ---------------------------------------------------------------------
 Center     Atomic      Atomic             Coordinates (Angstroms)
 Number     Number       Type             X           Y           Z
 ---------------------------------------------------------------------
      1          8           0       -0.682923   -0.369687   -0.345072
      2          6           0        0.694563   -0.110380   -0.077075
      3          1           0        1.174783    0.171904   -1.020457
      4          1           0        1.133110   -1.016156    0.356372
      5          1           0        0.754534    0.717666    0.639035
      6          1           0       -1.193022   -0.138945    0.447199
 ---------------------------------------------------------------------
                    Distance matrix (angstroms):
                    1          2          3          4          5
     1  O    0.000000
     2  C    1.427070   0.000000
     3  H    2.049521   1.095566   0.000000
     4  H    2.051322   1.095733   1.819033   0.000000
     5  H    2.053554   1.096390   1.796769   1.797041   0.000000
     6  H    0.970122   1.959249   2.803059   2.487697   2.136249
                    6
     6  H    0.000000
 Stoichiometry    CH4O
 Framework group  C1[X(CH4O)]
 Deg. of freedom    12
 Full point group                 C1      NOp   1
 Largest Abelian subgroup         C1      NOp   1
 Largest concise Abelian subgroup C1      NOp   1
                         Standard orientation:                         
 ---------------------------------------------------------------------
 Center     Atomic      Atomic             Coordinates (Angstroms)
 Number     Number       Type             X           Y           Z
 ---------------------------------------------------------------------
      1          8           0       -0.744070   -0.129681    0.003761
      2          6           0        0.675403    0.017354    0.001293
      3          1           0        1.104376   -0.855165   -0.503641
      4          1           0        1.010527    0.100646    1.041189
      5          1           0        0.924370    0.931972   -0.549669
      6          1           0       -1.139128    0.755867   -0.025724
 ---------------------------------------------------------------------
 Rotational constants (GHZ):    124.4687112     24.8498611     23.9624121
 Leave Link  202 at Sat Dec 21 15:14:25 2019, MaxMem= 2684354560 cpu:       0.0
 (Enter /opt/g09gh/gaussian/g09/l301.exe)
 Standard basis: 6-311++G(d,p) (5D, 7F)
 Ernie: Thresh=  0.10000D-02 Tol=  0.10000D-05 Strict=F.
 There are    72 symmetry adapted basis functions of A   symmetry.
 Integral buffers will be    131072 words long.
 Raffenetti 1 integral format.
 Two-electron integral symmetry is turned on.
    72 basis functions,   108 primitive gaussians,    74 cartesian basis functions
     9 alpha electrons        9 beta electrons
       nuclear repulsion energy        40.1950356379 Hartrees.
 IExCor=    0 DFT=F Ex=HF Corr=None ExCW=0 ScaHFX=  1.000000
 ScaDFX=  1.000000  1.000000  1.000000  1.000000 ScalE2=  1.000000  1.000000
 IRadAn=      0 IRanWt=     -1 IRanGd=            0 ICorTp=0
 NAtoms=    6 NActive=    6 NUniq=    6 SFac= 7.50D-01 NAtFMM=   80 NAOKFM=F Big=F
 Leave Link  301 at Sat Dec 21 15:14:25 2019, MaxMem= 2684354560 cpu:       0.2
 (Enter /opt/g09gh/gaussian/g09/l302.exe)
 NPDir=0 NMtPBC=     1 NCelOv=     1 NCel=       1 NClECP=     1 NCelD=      1
         NCelK=      1 NCelE2=     1 NClLst=     1 CellRange=     0.0.
 One-electron integrals computed using PRISM.
 NBasis=    72 RedAO= T  NBF=    72
 NBsUse=    72 1.00D-06 NBFU=    72
 Leave Link  302 at Sat Dec 21 15:14:25 2019, MaxMem= 2684354560 cpu:       0.5
 (Enter /opt/g09gh/gaussian/g09/l303.exe)
 DipDrv:  MaxL=1.
 Leave Link  303 at Sat Dec 21 15:14:25 2019, MaxMem= 2684354560 cpu:       0.1
 (Enter /opt/g09gh/gaussian/g09/l401.exe)
 Projected INDO guess.
 Initial guess orbital symmetries:
       Occupied  (A) (A) (A) (A) (A) (A) (A) (A) (A)
       Virtual   (A) (A) (A) (A) (A) (A) (A) (A) (A) (A) (A) (A)
                 (A) (A) (A) (A) (A) (A) (A) (A) (A) (A) (A) (A)
                 (A) (A) (A) (A) (A) (A) (A) (A) (A) (A) (A) (A)
                 (A) (A) (A) (A) (A) (A) (A) (A) (A) (A) (A) (A)
                 (A) (A) (A) (A) (A) (A) (A) (A) (A) (A) (A) (A)
                 (A) (A) (A)
 The electronic state of the initial guess is 1-A.
 Leave Link  401 at Sat Dec 21 15:14:25 2019, MaxMem= 2684354560 cpu:       0.2
 (Enter /opt/g09gh/gaussian/g09/l508.exe)
 Direct SCF.
 Tight linear equation convergence will be used.
 RHF wavefunction.
 Quadratic Convergence SCF Method.
 Line search only if initial step raises energy.
 Integral symmetry usage will be decided dynamically.
 ReadGW:  IGet=1 IStart=           2 Next=           2 LGW=           0.
 Keep R1 ints in memory in canonical form, NReq=4716137.
 Symmetry not used in FoFDir.
 MinBra= 0 MaxBra= 2 Meth= 1.
 IRaf=       0 NMat=   1 IRICut=       1 DoRegI=T DoRafI=F ISym2E= 0 JSym2E=0.
 Iteration   1 EE= -114.493910321613                                    Grad=2.169D+00
 Gradient too large for Newton-Raphson -- use scaled steepest descent instead.
     ILin= 1 X=0.000D+00 Y=-1.144939103216D+02 DE= 0.00D+00
     ILin= 2 X=3.000D-01 Y=-1.147699282972D+02 DE=-2.76D-01
     ILin= 3 X=4.243D-01 Y=-1.148577946173D+02 DE=-3.64D-01
     ILin= 4 X=6.000D-01 Y=-1.149552123013D+02 DE=-4.61D-01
     ILin= 5 X=8.485D-01 Y=-1.150387050800D+02 DE=-5.45D-01
     ILin= 6 X=1.200D+00 Y=-1.150469185758D+02 DE=-5.53D-01
     ILin= 7 X=1.697D+00 Y=-1.148366796808D+02 DE=-3.43D-01
     An  expanding polynomial of degree  7 produced  1.0467
 Iteration   2 EE= -115.059250033718     Delta-E=       -0.565339712104 Grad=1.775D-01
 Gradient too large for Newton-Raphson -- use scaled steepest descent instead.
     ILin= 1 X=0.000D+00 Y=-1.150592500337D+02 DE= 0.00D+00
     ILin= 2 X=1.047D+00 Y=-1.150721070088D+02 DE=-1.29D-02
     ILin= 3 X=1.480D+00 Y=-1.150631146339D+02 DE=-3.86D-03
     An  expanding polynomial of degree  3 produced  0.7987
 Iteration   3 EE= -115.073510711973     Delta-E=       -0.014260678255 Grad=6.397D-02
 Gradient too large for Newton-Raphson -- use scaled steepest descent instead.
     ILin= 1 X=0.000D+00 Y=-1.150735107120D+02 DE= 0.00D+00
     ILin= 2 X=7.987D-01 Y=-1.150759792713D+02 DE=-2.47D-03
     ILin= 3 X=1.129D+00 Y=-1.150760356654D+02 DE=-2.52D-03
     ILin= 4 X=1.597D+00 Y=-1.150751373390D+02 DE=-1.63D-03
     An  expanding polynomial of degree  4 produced  0.9969
 Iteration   4 EE= -115.076081554133     Delta-E=       -0.002570842160 Grad=3.359D-02
 Gradient too large for Newton-Raphson -- use scaled steepest descent instead.
     ILin= 1 X=0.000D+00 Y=-1.150760815541D+02 DE= 0.00D+00
     ILin= 2 X=9.969D-01 Y=-1.150766447819D+02 DE=-5.63D-04
     ILin= 3 X=1.410D+00 Y=-1.150763712116D+02 DE=-2.90D-04
     An  expanding polynomial of degree  3 produced  0.8229
 Iteration   5 EE= -115.076671277720     Delta-E=       -0.000589723587 Grad=1.483D-02
 Gradient too large for Newton-Raphson -- use scaled steepest descent instead.
     ILin= 1 X=0.000D+00 Y=-1.150766712777D+02 DE= 0.00D+00
     ILin= 2 X=8.229D-01 Y=-1.150768146397D+02 DE=-1.43D-04
     ILin= 3 X=1.164D+00 Y=-1.150768146259D+02 DE=-1.43D-04
     An  expanding polynomial of degree  3 produced  0.9932
 Iteration   6 EE= -115.076818991501     Delta-E=       -0.000147713780 Grad=8.438D-03
 QCNR:  CnvC1=3.37D-09 CnvC2=3.37D-08
 LinEq1:  Iter=  0 NonCon=     1 RMS=1.87D-04 Max=1.22D-03
 AX will form     1 AO Fock derivatives at one time.
 LinEq1:  Iter=  1 NonCon=     1 RMS=1.07D-04 Max=1.05D-03
 LinEq1:  Iter=  2 NonCon=     1 RMS=4.66D-06 Max=3.62D-05
 LinEq1:  Iter=  3 NonCon=     1 RMS=1.19D-06 Max=7.16D-06
 LinEq1:  Iter=  4 NonCon=     1 RMS=2.11D-07 Max=1.50D-06
 LinEq1:  Iter=  5 NonCon=     1 RMS=2.07D-08 Max=1.29D-07
 LinEq1:  Iter=  6 NonCon=     0 RMS=2.42D-09 Max=1.72D-08
 Linear equations converged to 3.367D-09 3.367D-08 after     6 iterations.
 Angle between quadratic step and gradient=  46.97 degrees.
     ILin= 1 X=0.000D+00 Y=-1.150768189915D+02 DE= 0.00D+00
     ILin= 2 X=1.000D+00 Y=-1.150768703273D+02 DE=-5.13D-05
     ILin= 3 X=1.414D+00 Y=-1.150768616506D+02 DE=-4.27D-05
     An  expanding polynomial of degree  3 produced  1.0022
 Iteration   7 EE= -115.076870327449     Delta-E=       -0.000051335949 Grad=1.757D-05
 QCNR:  CnvC1=1.76D-10 CnvC2=1.76D-09
 LinEq1:  Iter=  0 NonCon=     1 RMS=3.45D-07 Max=2.14D-06
 LinEq1:  Iter=  1 NonCon=     1 RMS=7.98D-08 Max=5.50D-07
 LinEq1:  Iter=  2 NonCon=     1 RMS=2.40D-08 Max=1.56D-07
 LinEq1:  Iter=  3 NonCon=     1 RMS=5.72D-09 Max=3.50D-08
 LinEq1:  Iter=  4 NonCon=     1 RMS=1.21D-09 Max=6.34D-09
 LinEq1:  Iter=  5 NonCon=     1 RMS=3.39D-10 Max=2.08D-09
 LinEq1:  Iter=  6 NonCon=     0 RMS=8.29D-11 Max=4.84D-10
 Linear equations converged to 1.757D-10 1.757D-09 after     6 iterations.
 Angle between quadratic step and gradient=  44.08 degrees.
     ILin= 1 X=0.000D+00 Y=-1.150768703274D+02 DE= 0.00D+00
     ILin= 2 X=1.000D+00 Y=-1.150768703276D+02 DE=-1.97D-10
 Iteration   8 EE= -115.076870327647     Delta-E=       -0.000000000197 Grad=8.303D-09
 Rotation gradient small -- convergence achieved.
 SCF Done:  E(RHF) =  -115.076870328     a.u. after    8 cycles
            Convg  =    0.8303D-08                    37 Fock formations.
              S**2 =  0.0000                  -V/T =  2.0013
 Leave Link  508 at Sat Dec 21 15:14:26 2019, MaxMem= 2684354560 cpu:       1.5
 (Enter /opt/g09gh/gaussian/g09/l801.exe)
 ExpMin= 3.60D-02 ExpMax= 8.59D+03 ExpMxC= 1.30D+03 IAcc=3 IRadAn=         5 AccDes= 0.00D+00
 HarFok:  IExCor=  205 AccDes= 0.00D+00 IRadAn=         5 IDoV=-2
 ScaDFX=  1.000000  1.000000  1.000000  1.000000
 Largest valence mixing into a core orbital is  1.38D-04
 Largest core mixing into a valence orbital is  3.63D-05
 Range of M.O.s used for correlation:     3    72
 NBasis=    72 NAE=     9 NBE=     9 NFC=     2 NFV=     0
 NROrb=     70 NOA=     7 NOB=     7 NVA=    63 NVB=    63

 **** Warning!!: The largest alpha MO coefficient is  0.15069099D+02

 Leave Link  801 at Sat Dec 21 15:14:26 2019, MaxMem= 2684354560 cpu:       0.3
 (Enter /opt/g09gh/gaussian/g09/l906.exe)
 FulOut=F Deriv=F AODrv=F NAtomX=     6
   MMem=       70710  MDisk=           7 MDiskD=           7
  W3Min=       32634 MinDsk=      124366 NBas6D=          74
 NBas2D=        2865    NTT=        2775    LW2=     2000000
    MDV=  2684310757 MDiskM=      503436 NBas2p=        2865
 Fully in-core method, ICMem=    14330399.
 IMap=   1   2   3   4   5   6   7
 JobTyp=1 Pass  1 fully in-core, NPsUse=  4.
 Compute canonical integrals, IntTyp=   4.
 Symmetry not used in FoFDir.
 MinBra= 0 MaxBra= 2 Meth= 1.
 IRaf=       0 NMat=   1 IRICut=       1 DoRegI=T DoRafI=F ISym2E= 0 JSym2E=0.
 Spin components of T(2) and E(2):
     alpha-alpha T2 =       0.1213365225D-01 E2=     -0.4329957775D-01
     alpha-beta  T2 =       0.7822215994D-01 E2=     -0.2794873996D+00
     beta-beta   T2 =       0.1213365225D-01 E2=     -0.4329957775D-01
 The integrals were generated   1 times.
 ANorm=    0.1049994983D+01
 E2 =    -0.3660865551D+00 EUMP2 =    -0.11544295688276D+03
 Leave Link  906 at Sat Dec 21 15:14:26 2019, MaxMem= 2684354560 cpu:       1.3
 (Enter /opt/g09gh/gaussian/g09/l601.exe)
 Copying SCF densities to generalized density rwf, IOpCl= 0 IROHF=0.

 **********************************************************************

            Population analysis using the SCF density.

 **********************************************************************

 Orbital symmetries:
       Occupied  (A) (A) (A) (A) (A) (A) (A) (A) (A)
       Virtual   (A) (A) (A) (A) (A) (A) (A) (A) (A) (A) (A) (A)
                 (A) (A) (A) (A) (A) (A) (A) (A) (A) (A) (A) (A)
                 (A) (A) (A) (A) (A) (A) (A) (A) (A) (A) (A) (A)
                 (A) (A) (A) (A) (A) (A) (A) (A) (A) (A) (A) (A)
                 (A) (A) (A) (A) (A) (A) (A) (A) (A) (A) (A) (A)
                 (A) (A) (A)
 The electronic state is 1-A.
 Alpha  occ. eigenvalues --  -20.55481 -11.27613  -1.35330  -0.92373  -0.68714
 Alpha  occ. eigenvalues --   -0.62351  -0.59278  -0.50164  -0.44929
 Alpha virt. eigenvalues --    0.03874   0.06381   0.07383   0.08007   0.12643
 Alpha virt. eigenvalues --    0.14709   0.15640   0.18350   0.25779   0.28714
 Alpha virt. eigenvalues --    0.29586   0.30572   0.30715   0.33829   0.35454
 Alpha virt. eigenvalues --    0.39286   0.47816   0.56933   0.57186   0.70465
 Alpha virt. eigenvalues --    0.77550   0.84548   0.84948   0.86276   1.06825
 Alpha virt. eigenvalues --    1.19653   1.22794   1.28990   1.38191   1.43148
 Alpha virt. eigenvalues --    1.64623   1.68916   1.70161   1.77440   1.78169
 Alpha virt. eigenvalues --    1.84181   1.96661   1.97316   2.05990   2.24723
 Alpha virt. eigenvalues --    2.33518   2.41007   2.47949   2.71523   2.75491
 Alpha virt. eigenvalues --    2.81306   2.82934   2.87221   2.97161   3.20265
 Alpha virt. eigenvalues --    3.32704   3.47154   3.54654   3.65404   4.15747
 Alpha virt. eigenvalues --    4.20222   4.29158   4.43348   5.57108   5.90156
 Alpha virt. eigenvalues --    6.19273  25.05155  51.59672
          Condensed to atoms (all electrons):
              1          2          3          4          5          6
     1  O    8.090984   0.160955  -0.060451  -0.059749  -0.047227   0.303633
     2  C    0.160955   4.838960   0.426525   0.412504   0.409092  -0.030142
     3  H   -0.060451   0.426525   0.579892  -0.045523  -0.036366   0.005110
     4  H   -0.059749   0.412504  -0.045523   0.612865  -0.038041  -0.002130
     5  H   -0.047227   0.409092  -0.036366  -0.038041   0.623322  -0.009064
     6  H    0.303633  -0.030142   0.005110  -0.002130  -0.009064   0.475727
 Mulliken atomic charges:
              1
     1  O   -0.388145
     2  C   -0.217893
     3  H    0.130814
     4  H    0.120073
     5  H    0.098285
     6  H    0.256866
 Sum of Mulliken atomic charges =   0.00000
 Mulliken charges with hydrogens summed into heavy atoms:
              1
     1  O   -0.131279
     2  C    0.131279
 Sum of Mulliken charges with hydrogens summed into heavy atoms =   0.00000
 Electronic spatial extent (au):  <R**2>=             84.4313
 Charge=              0.0000 electrons
 Dipole moment (field-independent basis, Debye):
    X=              1.0954    Y=              1.7520    Z=             -0.0875  Tot=              2.0681
 Quadrupole moment (field-independent basis, Debye-Ang):
   XX=            -13.2080   YY=            -12.1507   ZZ=            -13.6712
   XY=             -2.4874   XZ=              0.0027   YZ=              0.0153
 Traceless Quadrupole moment (field-independent basis, Debye-Ang):
   XX=             -0.1981   YY=              0.8593   ZZ=             -0.6612
   XY=             -2.4874   XZ=              0.0027   YZ=              0.0153
 Octapole moment (field-independent basis, Debye-Ang**2):
  XXX=             -3.9777  YYY=              1.3722  ZZZ=              0.5414  XYY=             -1.6882
  XXY=              2.5999  XXZ=             -0.2138  XZZ=             -0.0781  YZZ=              0.3105
  YYZ=             -0.6607  XYZ=              0.2063
 Hexadecapole moment (field-independent basis, Debye-Ang**3):
 XXXX=            -62.0142 YYYY=            -20.1031 ZZZZ=            -19.7686 XXXY=             -4.4102
 XXXZ=             -0.0811 YYYX=             -2.6866 YYYZ=             -0.0673 ZZZX=              0.5908
 ZZZY=              0.1032 XXYY=            -12.7201 XXZZ=            -14.3989 YYZZ=             -6.7822
 XXYZ=              0.1775 YYXZ=             -0.6376 ZZXY=             -0.5101
 N-N= 4.019503563790D+01 E-N=-3.515423106172D+02  KE= 1.149231660223D+02
 Leave Link  601 at Sat Dec 21 15:14:26 2019, MaxMem= 2684354560 cpu:       0.1
 (Enter /opt/g09gh/gaussian/g09/l9999.exe)
 1\1\GINC-NODE42\SP\RMP2-FC\6-311++G(d,p)\C1H4O1\BDW2292\21-Dec-2019\0\
 \#P MP2/6-311++G** SP SCF=(qc,maxcycle=800) Guess=Indo MaxDisk=100GB\\
 methanol Rotatable Bond SP Calculation on bme-nova.bme.utexas.edu\\0,1
 \O,0,-0.682923,-0.369687,-0.345072\C,0,0.694563,-0.11038,-0.077075\H,0
 ,1.174783,0.171904,-1.020457\H,0,1.13311,-1.016156,0.356372\H,0,0.7545
 34,0.717666,0.639035\H,0,-1.193022,-0.138945,0.447199\\Version=EM64L-G
 09RevA.02\State=1-A\HF=-115.0768703\MP2=-115.4429569\RMSD=0.000e+00\PG
 =C01 [X(C1H4O1)]\\@


 IF YOU GIVE EVERYONE A PIECE OF YOUR MIND,
 PRETTY SOON IT WILL BE ALL GONE.
 Job cpu time:  0 days  0 hours  0 minutes  4.7 seconds.
 File lengths (MBytes):  RWF=      5 Int=      0 D2E=      0 Chk=      1 Scr=      1
 Normal termination of Gaussian 09 at Sat Dec 21 15:14:26 2019.
