 Entering Gaussian System, Link 0=g09
 Input=methanol-sp-6-1-2-3-181.com
 Output=methanol-sp-6-1-2-3-181.log
 Initial command:
 /opt/g09gh/gaussian/g09/l1.exe /scratch/bdw2292/Gau-methanol/Gau-6602.inp -scrdir=/scratch/bdw2292/Gau-methanol/
 Entering Link 1 = /opt/g09gh/gaussian/g09/l1.exe PID=      6603.
  
 Copyright (c) 1988,1990,1992,1993,1995,1998,2003,2009, Gaussian, Inc.
                  All Rights Reserved.
  
 This is part of the Gaussian(R) 09 program.  It is based on
 the Gaussian(R) 03 system (copyright 2003, Gaussian, Inc.),
 the Gaussian(R) 98 system (copyright 1998, Gaussian, Inc.),
 the Gaussian(R) 94 system (copyright 1995, Gaussian, Inc.),
 the Gaussian 92(TM) system (copyright 1992, Gaussian, Inc.),
 the Gaussian 90(TM) system (copyright 1990, Gaussian, Inc.),
 the Gaussian 88(TM) system (copyright 1988, Gaussian, Inc.),
 the Gaussian 86(TM) system (copyright 1986, Carnegie Mellon
 University), and the Gaussian 82(TM) system (copyright 1983,
 Carnegie Mellon University). Gaussian is a federally registered
 trademark of Gaussian, Inc.
  
 This software contains proprietary and confidential information,
 including trade secrets, belonging to Gaussian, Inc.
  
 This software is provided under written license and may be
 used, copied, transmitted, or stored only in accord with that
 written license.
  
 The following legend is applicable only to US Government
 contracts under FAR:
  
                    RESTRICTED RIGHTS LEGEND
  
 Use, reproduction and disclosure by the US Government is
 subject to restrictions as set forth in subparagraphs (a)
 and (c) of the Commercial Computer Software - Restricted
 Rights clause in FAR 52.227-19.
  
 Gaussian, Inc.
 340 Quinnipiac St., Bldg. 40, Wallingford CT 06492
  
  
 ---------------------------------------------------------------
 Warning -- This program may not be used in any manner that
 competes with the business of Gaussian, Inc. or will provide
 assistance to any competitor of Gaussian, Inc.  The licensee
 of this program is prohibited from giving any competitor of
 Gaussian, Inc. access to this program.  By using this program,
 the user acknowledges that Gaussian, Inc. is engaged in the
 business of creating and licensing software in the field of
 computational chemistry and represents and warrants to the
 licensee that it is not a competitor of Gaussian, Inc. and that
 it will not use this program in any manner prohibited above.
 ---------------------------------------------------------------
  

 Cite this work as:
 Gaussian 09, Revision A.02,
 M. J. Frisch, G. W. Trucks, H. B. Schlegel, G. E. Scuseria, 
 M. A. Robb, J. R. Cheeseman, G. Scalmani, V. Barone, B. Mennucci, 
 G. A. Petersson, H. Nakatsuji, M. Caricato, X. Li, H. P. Hratchian, 
 A. F. Izmaylov, J. Bloino, G. Zheng, J. L. Sonnenberg, M. Hada, 
 M. Ehara, K. Toyota, R. Fukuda, J. Hasegawa, M. Ishida, T. Nakajima, 
 Y. Honda, O. Kitao, H. Nakai, T. Vreven, J. A. Montgomery, Jr., 
 J. E. Peralta, F. Ogliaro, M. Bearpark, J. J. Heyd, E. Brothers, 
 K. N. Kudin, V. N. Staroverov, R. Kobayashi, J. Normand, 
 K. Raghavachari, A. Rendell, J. C. Burant, S. S. Iyengar, J. Tomasi, 
 M. Cossi, N. Rega, J. M. Millam, M. Klene, J. E. Knox, J. B. Cross, 
 V. Bakken, C. Adamo, J. Jaramillo, R. Gomperts, R. E. Stratmann, 
 O. Yazyev, A. J. Austin, R. Cammi, C. Pomelli, J. W. Ochterski, 
 R. L. Martin, K. Morokuma, V. G. Zakrzewski, G. A. Voth, 
 P. Salvador, J. J. Dannenberg, S. Dapprich, A. D. Daniels, 
 O. Farkas, J. B. Foresman, J. V. Ortiz, J. Cioslowski, 
 and D. J. Fox, Gaussian, Inc., Wallingford CT, 2009.
 
 ******************************************
 Gaussian 09:  EM64L-G09RevA.02 11-Jun-2009
                21-Dec-2019 
 ******************************************
 %RWF=/scratch/bdw2292/Gau-methanol/,100GB
 %Nosave
 %Chk=methanol-sp-6-1-2-3-181.chk
 %Mem=20GB
 %Nproc=4
 Will use up to    4 processors via shared memory.
 -------------------------------------------------------------------
 #P MP2/6-311++G** SP SCF=(qc,maxcycle=800) Guess=Indo MaxDisk=100GB
 -------------------------------------------------------------------
 1/38=1/1;
 2/12=2,17=6,18=5,40=1/2;
 3/5=4,6=6,7=1111,11=9,16=1,25=1,30=1/1,2,3;
 4/5=4,11=3/1;
 5/5=2,7=800,8=3,38=5/8;
 8/10=2/1;
 9/16=-3/6;
 6/7=2,8=2,9=2,10=2/1;
 99/5=1,9=1/99;
 Leave Link    1 at Sat Dec 21 15:14:23 2019, MaxMem= 2684354560 cpu:       0.2
 (Enter /opt/g09gh/gaussian/g09/l101.exe)
 -----------------------------------------------------------------
 methanol Rotatable Bond SP Calculation on bme-nova.bme.utexas.edu
 -----------------------------------------------------------------
 Symbolic Z-matrix:
 Charge =  0 Multiplicity = 1
 O                     0.73967   0.12492  -0.00053 
 C                    -0.68143  -0.00023   0.00589 
 H                    -1.1095    1.0081   -0.00845 
 H                    -0.97473  -0.56003   0.90117 
 H                    -0.97315  -0.54985  -0.8968 
 H                     1.1181   -0.76849  -0.00129 
 
 NAtoms=      6 NQM=      6 NQMF=      0 NMic=      0 NMicF=      0 NTot=      6.
                    Isotopes and Nuclear Properties:
 (Nuclear quadrupole moments (NQMom) in fm**2, nuclear magnetic moments (NMagM)
  in nuclear magnetons)

  Atom         1           2           3           4           5           6
 IAtWgt=          16          12           1           1           1           1
 AtmWgt=  15.9949146  12.0000000   1.0078250   1.0078250   1.0078250   1.0078250
 NucSpn=           0           0           1           1           1           1
 AtZEff=   0.0000000   0.0000000   0.0000000   0.0000000   0.0000000   0.0000000
 NQMom=    0.0000000   0.0000000   0.0000000   0.0000000   0.0000000   0.0000000
 NMagM=    0.0000000   0.0000000   2.7928460   2.7928460   2.7928460   2.7928460
 Leave Link  101 at Sat Dec 21 15:14:23 2019, MaxMem= 2684354560 cpu:       0.2
 (Enter /opt/g09gh/gaussian/g09/l202.exe)
                          Input orientation:                          
 ---------------------------------------------------------------------
 Center     Atomic      Atomic             Coordinates (Angstroms)
 Number     Number       Type             X           Y           Z
 ---------------------------------------------------------------------
      1          8           0        0.739667    0.124918   -0.000526
      2          6           0       -0.681427   -0.000233    0.005894
      3          1           0       -1.109505    1.008100   -0.008454
      4          1           0       -0.974726   -0.560029    0.901170
      5          1           0       -0.973149   -0.549851   -0.896798
      6          1           0        1.118099   -0.768493   -0.001290
 ---------------------------------------------------------------------
                    Distance matrix (angstroms):
                    1          2          3          4          5
     1  O    0.000000
     2  C    1.426609   0.000000
     3  H    2.049271   1.095533   0.000000
     4  H    2.054593   1.095863   1.817859   0.000000
     5  H    2.047524   1.096373   1.798599   1.797997   0.000000
     6  H    0.970255   1.956673   2.849308   2.288626   2.285401
                    6
     6  H    0.000000
 Stoichiometry    CH4O
 Framework group  C1[X(CH4O)]
 Deg. of freedom    12
 Full point group                 C1      NOp   1
 Largest Abelian subgroup         C1      NOp   1
 Largest concise Abelian subgroup C1      NOp   1
                         Standard orientation:                         
 ---------------------------------------------------------------------
 Center     Atomic      Atomic             Coordinates (Angstroms)
 Number     Number       Type             X           Y           Z
 ---------------------------------------------------------------------
      1          8           0       -0.743706    0.130396   -0.003498
      2          6           0        0.675076   -0.018835   -0.002276
      3          1           0        1.120137    0.982144   -0.014652
      4          1           0        0.961054   -0.608160   -0.880814
      5          1           0        0.955221   -0.547999    0.916168
      6          1           0       -1.137219   -0.756140    0.020941
 ---------------------------------------------------------------------
 Rotational constants (GHZ):    124.3701148     24.9068848     23.9551703
 Leave Link  202 at Sat Dec 21 15:14:23 2019, MaxMem= 2684354560 cpu:       0.0
 (Enter /opt/g09gh/gaussian/g09/l301.exe)
 Standard basis: 6-311++G(d,p) (5D, 7F)
 Ernie: Thresh=  0.10000D-02 Tol=  0.10000D-05 Strict=F.
 There are    72 symmetry adapted basis functions of A   symmetry.
 Integral buffers will be    131072 words long.
 Raffenetti 1 integral format.
 Two-electron integral symmetry is turned on.
    72 basis functions,   108 primitive gaussians,    74 cartesian basis functions
     9 alpha electrons        9 beta electrons
       nuclear repulsion energy        40.2041623236 Hartrees.
 IExCor=    0 DFT=F Ex=HF Corr=None ExCW=0 ScaHFX=  1.000000
 ScaDFX=  1.000000  1.000000  1.000000  1.000000 ScalE2=  1.000000  1.000000
 IRadAn=      0 IRanWt=     -1 IRanGd=            0 ICorTp=0
 NAtoms=    6 NActive=    6 NUniq=    6 SFac= 7.50D-01 NAtFMM=   80 NAOKFM=F Big=F
 Leave Link  301 at Sat Dec 21 15:14:23 2019, MaxMem= 2684354560 cpu:       0.2
 (Enter /opt/g09gh/gaussian/g09/l302.exe)
 NPDir=0 NMtPBC=     1 NCelOv=     1 NCel=       1 NClECP=     1 NCelD=      1
         NCelK=      1 NCelE2=     1 NClLst=     1 CellRange=     0.0.
 One-electron integrals computed using PRISM.
 NBasis=    72 RedAO= T  NBF=    72
 NBsUse=    72 1.00D-06 NBFU=    72
 Leave Link  302 at Sat Dec 21 15:14:23 2019, MaxMem= 2684354560 cpu:       0.5
 (Enter /opt/g09gh/gaussian/g09/l303.exe)
 DipDrv:  MaxL=1.
 Leave Link  303 at Sat Dec 21 15:14:23 2019, MaxMem= 2684354560 cpu:       0.1
 (Enter /opt/g09gh/gaussian/g09/l401.exe)
 Projected INDO guess.
 Initial guess orbital symmetries:
       Occupied  (A) (A) (A) (A) (A) (A) (A) (A) (A)
       Virtual   (A) (A) (A) (A) (A) (A) (A) (A) (A) (A) (A) (A)
                 (A) (A) (A) (A) (A) (A) (A) (A) (A) (A) (A) (A)
                 (A) (A) (A) (A) (A) (A) (A) (A) (A) (A) (A) (A)
                 (A) (A) (A) (A) (A) (A) (A) (A) (A) (A) (A) (A)
                 (A) (A) (A) (A) (A) (A) (A) (A) (A) (A) (A) (A)
                 (A) (A) (A)
 The electronic state of the initial guess is 1-A.
 Leave Link  401 at Sat Dec 21 15:14:23 2019, MaxMem= 2684354560 cpu:       0.2
 (Enter /opt/g09gh/gaussian/g09/l508.exe)
 Direct SCF.
 Tight linear equation convergence will be used.
 RHF wavefunction.
 Quadratic Convergence SCF Method.
 Line search only if initial step raises energy.
 Integral symmetry usage will be decided dynamically.
 ReadGW:  IGet=1 IStart=           2 Next=           2 LGW=           0.
 Keep R1 ints in memory in canonical form, NReq=4716137.
 Symmetry not used in FoFDir.
 MinBra= 0 MaxBra= 2 Meth= 1.
 IRaf=       0 NMat=   1 IRICut=       1 DoRegI=T DoRafI=F ISym2E= 0 JSym2E=0.
 Iteration   1 EE= -114.495855786777                                    Grad=2.168D+00
 Gradient too large for Newton-Raphson -- use scaled steepest descent instead.
     ILin= 1 X=0.000D+00 Y=-1.144958557868D+02 DE= 0.00D+00
     ILin= 2 X=3.000D-01 Y=-1.147714440739D+02 DE=-2.76D-01
     ILin= 3 X=4.243D-01 Y=-1.148591588781D+02 DE=-3.63D-01
     ILin= 4 X=6.000D-01 Y=-1.149563919250D+02 DE=-4.61D-01
     ILin= 5 X=8.485D-01 Y=-1.150396879685D+02 DE=-5.44D-01
     ILin= 6 X=1.200D+00 Y=-1.150477638059D+02 DE=-5.52D-01
     ILin= 7 X=1.697D+00 Y=-1.148376318399D+02 DE=-3.42D-01
     An  expanding polynomial of degree  7 produced  1.0464
 Iteration   2 EE= -115.060134301276     Delta-E=       -0.564278514499 Grad=1.772D-01
 Gradient too large for Newton-Raphson -- use scaled steepest descent instead.
     ILin= 1 X=0.000D+00 Y=-1.150601343013D+02 DE= 0.00D+00
     ILin= 2 X=1.046D+00 Y=-1.150728974631D+02 DE=-1.28D-02
     ILin= 3 X=1.480D+00 Y=-1.150639101136D+02 DE=-3.78D-03
     An  expanding polynomial of degree  3 produced  0.7972
 Iteration   3 EE= -115.074310258846     Delta-E=       -0.014175957570 Grad=6.364D-02
 Gradient too large for Newton-Raphson -- use scaled steepest descent instead.
     ILin= 1 X=0.000D+00 Y=-1.150743102588D+02 DE= 0.00D+00
     ILin= 2 X=7.972D-01 Y=-1.150767537640D+02 DE=-2.44D-03
     ILin= 3 X=1.127D+00 Y=-1.150768143544D+02 DE=-2.50D-03
     ILin= 4 X=1.594D+00 Y=-1.150759367664D+02 DE=-1.63D-03
     An  expanding polynomial of degree  4 produced  0.9981
 Iteration   4 EE= -115.076857548237     Delta-E=       -0.002547289391 Grad=3.340D-02
 Gradient too large for Newton-Raphson -- use scaled steepest descent instead.
     ILin= 1 X=0.000D+00 Y=-1.150768575482D+02 DE= 0.00D+00
     ILin= 2 X=9.981D-01 Y=-1.150774123831D+02 DE=-5.55D-04
     ILin= 3 X=1.411D+00 Y=-1.150771388613D+02 DE=-2.81D-04
     An  expanding polynomial of degree  3 produced  0.8213
 Iteration   5 EE= -115.077439485729     Delta-E=       -0.000581937492 Grad=1.470D-02
 Gradient too large for Newton-Raphson -- use scaled steepest descent instead.
     ILin= 1 X=0.000D+00 Y=-1.150774394857D+02 DE= 0.00D+00
     ILin= 2 X=8.213D-01 Y=-1.150775799872D+02 DE=-1.41D-04
     ILin= 3 X=1.161D+00 Y=-1.150775802308D+02 DE=-1.41D-04
     ILin= 4 X=1.643D+00 Y=-1.150775224172D+02 DE=-8.29D-05
     An  expanding polynomial of degree  4 produced  0.9938
 Iteration   6 EE= -115.077584362573     Delta-E=       -0.000144876844 Grad=8.339D-03
 QCNR:  CnvC1=3.37D-09 CnvC2=3.37D-08
 LinEq1:  Iter=  0 NonCon=     1 RMS=1.85D-04 Max=1.41D-03
 AX will form     1 AO Fock derivatives at one time.
 LinEq1:  Iter=  1 NonCon=     1 RMS=1.05D-04 Max=1.14D-03
 LinEq1:  Iter=  2 NonCon=     1 RMS=4.41D-06 Max=4.10D-05
 LinEq1:  Iter=  3 NonCon=     1 RMS=1.15D-06 Max=7.38D-06
 LinEq1:  Iter=  4 NonCon=     1 RMS=1.92D-07 Max=1.29D-06
 LinEq1:  Iter=  5 NonCon=     1 RMS=1.64D-08 Max=1.15D-07
 LinEq1:  Iter=  6 NonCon=     0 RMS=1.54D-09 Max=7.32D-09
 Linear equations converged to 3.367D-09 3.367D-08 after     6 iterations.
 Angle between quadratic step and gradient=  46.78 degrees.
     ILin= 1 X=0.000D+00 Y=-1.150775843626D+02 DE= 0.00D+00
     ILin= 2 X=1.000D+00 Y=-1.150776341927D+02 DE=-4.98D-05
     ILin= 3 X=1.414D+00 Y=-1.150776257680D+02 DE=-4.14D-05
     An  expanding polynomial of degree  3 produced  1.0021
 Iteration   7 EE= -115.077634192895     Delta-E=       -0.000049830322 Grad=1.706D-05
 QCNR:  CnvC1=1.71D-10 CnvC2=1.71D-09
 LinEq1:  Iter=  0 NonCon=     1 RMS=3.30D-07 Max=2.38D-06
 LinEq1:  Iter=  1 NonCon=     1 RMS=7.84D-08 Max=5.63D-07
 LinEq1:  Iter=  2 NonCon=     1 RMS=2.41D-08 Max=1.68D-07
 LinEq1:  Iter=  3 NonCon=     1 RMS=5.52D-09 Max=3.83D-08
 LinEq1:  Iter=  4 NonCon=     1 RMS=1.08D-09 Max=6.24D-09
 LinEq1:  Iter=  5 NonCon=     1 RMS=2.76D-10 Max=1.64D-09
 LinEq1:  Iter=  6 NonCon=     0 RMS=7.38D-11 Max=4.83D-10
 Linear equations converged to 1.706D-10 1.706D-09 after     6 iterations.
 Angle between quadratic step and gradient=  44.30 degrees.
     ILin= 1 X=0.000D+00 Y=-1.150776341929D+02 DE= 0.00D+00
     ILin= 2 X=1.000D+00 Y=-1.150776341931D+02 DE=-1.83D-10
 Iteration   8 EE= -115.077634193078     Delta-E=       -0.000000000183 Grad=7.285D-09
 Rotation gradient small -- convergence achieved.
 SCF Done:  E(RHF) =  -115.077634193     a.u. after    8 cycles
            Convg  =    0.7285D-08                    38 Fock formations.
              S**2 =  0.0000                  -V/T =  2.0013
 Leave Link  508 at Sat Dec 21 15:14:24 2019, MaxMem= 2684354560 cpu:       1.6
 (Enter /opt/g09gh/gaussian/g09/l801.exe)
 ExpMin= 3.60D-02 ExpMax= 8.59D+03 ExpMxC= 1.30D+03 IAcc=3 IRadAn=         5 AccDes= 0.00D+00
 HarFok:  IExCor=  205 AccDes= 0.00D+00 IRadAn=         5 IDoV=-2
 ScaDFX=  1.000000  1.000000  1.000000  1.000000
 Largest valence mixing into a core orbital is  1.38D-04
 Largest core mixing into a valence orbital is  3.63D-05
 Range of M.O.s used for correlation:     3    72
 NBasis=    72 NAE=     9 NBE=     9 NFC=     2 NFV=     0
 NROrb=     70 NOA=     7 NOB=     7 NVA=    63 NVB=    63

 **** Warning!!: The largest alpha MO coefficient is  0.15130570D+02

 Leave Link  801 at Sat Dec 21 15:14:24 2019, MaxMem= 2684354560 cpu:       0.4
 (Enter /opt/g09gh/gaussian/g09/l906.exe)
 FulOut=F Deriv=F AODrv=F NAtomX=     6
   MMem=       70710  MDisk=           7 MDiskD=           7
  W3Min=       32634 MinDsk=      124366 NBas6D=          74
 NBas2D=        2865    NTT=        2775    LW2=     2000000
    MDV=  2684310757 MDiskM=      503436 NBas2p=        2865
 Fully in-core method, ICMem=    14330399.
 IMap=   1   2   3   4   5   6   7
 JobTyp=1 Pass  1 fully in-core, NPsUse=  4.
 Compute canonical integrals, IntTyp=   4.
 Symmetry not used in FoFDir.
 MinBra= 0 MaxBra= 2 Meth= 1.
 IRaf=       0 NMat=   1 IRICut=       1 DoRegI=T DoRafI=F ISym2E= 0 JSym2E=0.
 Spin components of T(2) and E(2):
     alpha-alpha T2 =       0.1212760682D-01 E2=     -0.4328385269D-01
     alpha-beta  T2 =       0.7820483559D-01 E2=     -0.2794413565D+00
     beta-beta   T2 =       0.1212760682D-01 E2=     -0.4328385269D-01
 The integrals were generated   1 times.
 ANorm=    0.1049980976D+01
 E2 =    -0.3660090619D+00 EUMP2 =    -0.11544364325500D+03
 Leave Link  906 at Sat Dec 21 15:14:24 2019, MaxMem= 2684354560 cpu:       1.5
 (Enter /opt/g09gh/gaussian/g09/l601.exe)
 Copying SCF densities to generalized density rwf, IOpCl= 0 IROHF=0.

 **********************************************************************

            Population analysis using the SCF density.

 **********************************************************************

 Orbital symmetries:
       Occupied  (A) (A) (A) (A) (A) (A) (A) (A) (A)
       Virtual   (A) (A) (A) (A) (A) (A) (A) (A) (A) (A) (A) (A)
                 (A) (A) (A) (A) (A) (A) (A) (A) (A) (A) (A) (A)
                 (A) (A) (A) (A) (A) (A) (A) (A) (A) (A) (A) (A)
                 (A) (A) (A) (A) (A) (A) (A) (A) (A) (A) (A) (A)
                 (A) (A) (A) (A) (A) (A) (A) (A) (A) (A) (A) (A)
                 (A) (A) (A)
 The electronic state is 1-A.
 Alpha  occ. eigenvalues --  -20.55520 -11.27622  -1.35365  -0.92372  -0.68638
 Alpha  occ. eigenvalues --   -0.62308  -0.59395  -0.50303  -0.44878
 Alpha virt. eigenvalues --    0.03896   0.06400   0.07238   0.08071   0.12596
 Alpha virt. eigenvalues --    0.14686   0.15748   0.18390   0.27863   0.28746
 Alpha virt. eigenvalues --    0.29313   0.29649   0.30749   0.32913   0.34791
 Alpha virt. eigenvalues --    0.39229   0.47760   0.56708   0.57360   0.70566
 Alpha virt. eigenvalues --    0.77625   0.84294   0.85142   0.86248   1.06651
 Alpha virt. eigenvalues --    1.18965   1.23061   1.29038   1.38476   1.45083
 Alpha virt. eigenvalues --    1.62918   1.68522   1.69202   1.78344   1.78955
 Alpha virt. eigenvalues --    1.81109   1.96684   1.97631   2.09443   2.24915
 Alpha virt. eigenvalues --    2.32079   2.40093   2.49946   2.73098   2.75522
 Alpha virt. eigenvalues --    2.79450   2.82905   2.86449   3.00588   3.22797
 Alpha virt. eigenvalues --    3.32595   3.43622   3.57300   3.66226   4.12749
 Alpha virt. eigenvalues --    4.20127   4.31787   4.43486   5.56938   5.90532
 Alpha virt. eigenvalues --    6.18676  25.04908  51.59702
          Condensed to atoms (all electrons):
              1          2          3          4          5          6
     1  O    8.087068   0.155256  -0.056618  -0.049911  -0.051999   0.308707
     2  C    0.155256   4.836276   0.424168   0.411149   0.412097  -0.032098
     3  H   -0.056618   0.424168   0.567646  -0.035561  -0.038026   0.007134
     4  H   -0.049911   0.411149  -0.035561   0.620725  -0.045050  -0.006723
     5  H   -0.051999   0.412097  -0.038026  -0.045050   0.624107  -0.006759
     6  H    0.308707  -0.032098   0.007134  -0.006723  -0.006759   0.472648
 Mulliken atomic charges:
              1
     1  O   -0.392503
     2  C   -0.206848
     3  H    0.131257
     4  H    0.105372
     5  H    0.105630
     6  H    0.257092
 Sum of Mulliken atomic charges =   0.00000
 Mulliken charges with hydrogens summed into heavy atoms:
              1
     1  O   -0.135411
     2  C    0.135411
 Sum of Mulliken charges with hydrogens summed into heavy atoms =   0.00000
 Electronic spatial extent (au):  <R**2>=             84.3791
 Charge=              0.0000 electrons
 Dipole moment (field-independent basis, Debye):
    X=              1.1053    Y=             -1.7180    Z=              0.0488  Tot=              2.0434
 Quadrupole moment (field-independent basis, Debye-Ang):
   XX=            -13.1868   YY=            -12.0895   ZZ=            -13.7483
   XY=              2.5590   XZ=             -0.0689   YZ=             -0.0112
 Traceless Quadrupole moment (field-independent basis, Debye-Ang):
   XX=             -0.1786   YY=              0.9187   ZZ=             -0.7401
   XY=              2.5590   XZ=             -0.0689   YZ=             -0.0112
 Octapole moment (field-independent basis, Debye-Ang**2):
  XXX=             -3.9168  YYY=             -0.7679  ZZZ=              0.0741  XYY=             -1.5334
  XXY=             -2.4575  XXZ=              0.0800  XZZ=             -0.2258  YZZ=             -0.8468
  YYZ=             -0.0257  XYZ=              0.0763
 Hexadecapole moment (field-independent basis, Debye-Ang**3):
 XXXX=            -61.8358 YYYY=            -20.1363 ZZZZ=            -19.8393 XXXY=              4.6282
 XXXZ=             -0.1266 YYYX=              3.3965 YYYZ=              0.0102 ZZZX=              0.0009
 ZZZY=             -0.0027 XXYY=            -12.4686 XXZZ=            -14.6001 YYZZ=             -6.7613
 XXYZ=             -0.0192 YYXZ=             -0.0957 ZZXY=             -0.0432
 N-N= 4.020416232355D+01 E-N=-3.515581833255D+02  KE= 1.149226254271D+02
 Leave Link  601 at Sat Dec 21 15:14:24 2019, MaxMem= 2684354560 cpu:       0.1
 (Enter /opt/g09gh/gaussian/g09/l9999.exe)
 1\1\GINC-NODE40\SP\RMP2-FC\6-311++G(d,p)\C1H4O1\BDW2292\21-Dec-2019\0\
 \#P MP2/6-311++G** SP SCF=(qc,maxcycle=800) Guess=Indo MaxDisk=100GB\\
 methanol Rotatable Bond SP Calculation on bme-nova.bme.utexas.edu\\0,1
 \O,0,0.739667,0.124918,-0.000526\C,0,-0.681427,-0.000233,0.005894\H,0,
 -1.109505,1.0081,-0.008454\H,0,-0.974726,-0.560029,0.90117\H,0,-0.9731
 49,-0.549851,-0.896798\H,0,1.118099,-0.768493,-0.00129\\Version=EM64L-
 G09RevA.02\State=1-A\HF=-115.0776342\MP2=-115.4436433\RMSD=0.000e+00\P
 G=C01 [X(C1H4O1)]\\@


 HE WHO LOVES TO READ, AND KNOWS HOW TO REFLECT,
 HAS LAID BY A PERPETUAL FEAST FOR HIS OLD AGE.
 -- UNCLE ESEK, "SCRIBNER'S MONTHLY", SEPT. 1880
 Job cpu time:  0 days  0 hours  0 minutes  5.1 seconds.
 File lengths (MBytes):  RWF=      5 Int=      0 D2E=      0 Chk=      1 Scr=      1
 Normal termination of Gaussian 09 at Sat Dec 21 15:14:24 2019.
