 Entering Gaussian System, Link 0=g09
 Input=methanol-sp-6-1-2-3-121.com
 Output=methanol-sp-6-1-2-3-121.log
 Initial command:
 /opt/g09gh/gaussian/g09/l1.exe /scratch/bdw2292/Gau-methanol/Gau-44795.inp -scrdir=/scratch/bdw2292/Gau-methanol/
 Entering Link 1 = /opt/g09gh/gaussian/g09/l1.exe PID=     44796.
  
 Copyright (c) 1988,1990,1992,1993,1995,1998,2003,2009, Gaussian, Inc.
                  All Rights Reserved.
  
 This is part of the Gaussian(R) 09 program.  It is based on
 the Gaussian(R) 03 system (copyright 2003, Gaussian, Inc.),
 the Gaussian(R) 98 system (copyright 1998, Gaussian, Inc.),
 the Gaussian(R) 94 system (copyright 1995, Gaussian, Inc.),
 the Gaussian 92(TM) system (copyright 1992, Gaussian, Inc.),
 the Gaussian 90(TM) system (copyright 1990, Gaussian, Inc.),
 the Gaussian 88(TM) system (copyright 1988, Gaussian, Inc.),
 the Gaussian 86(TM) system (copyright 1986, Carnegie Mellon
 University), and the Gaussian 82(TM) system (copyright 1983,
 Carnegie Mellon University). Gaussian is a federally registered
 trademark of Gaussian, Inc.
  
 This software contains proprietary and confidential information,
 including trade secrets, belonging to Gaussian, Inc.
  
 This software is provided under written license and may be
 used, copied, transmitted, or stored only in accord with that
 written license.
  
 The following legend is applicable only to US Government
 contracts under FAR:
  
                    RESTRICTED RIGHTS LEGEND
  
 Use, reproduction and disclosure by the US Government is
 subject to restrictions as set forth in subparagraphs (a)
 and (c) of the Commercial Computer Software - Restricted
 Rights clause in FAR 52.227-19.
  
 Gaussian, Inc.
 340 Quinnipiac St., Bldg. 40, Wallingford CT 06492
  
  
 ---------------------------------------------------------------
 Warning -- This program may not be used in any manner that
 competes with the business of Gaussian, Inc. or will provide
 assistance to any competitor of Gaussian, Inc.  The licensee
 of this program is prohibited from giving any competitor of
 Gaussian, Inc. access to this program.  By using this program,
 the user acknowledges that Gaussian, Inc. is engaged in the
 business of creating and licensing software in the field of
 computational chemistry and represents and warrants to the
 licensee that it is not a competitor of Gaussian, Inc. and that
 it will not use this program in any manner prohibited above.
 ---------------------------------------------------------------
  

 Cite this work as:
 Gaussian 09, Revision A.02,
 M. J. Frisch, G. W. Trucks, H. B. Schlegel, G. E. Scuseria, 
 M. A. Robb, J. R. Cheeseman, G. Scalmani, V. Barone, B. Mennucci, 
 G. A. Petersson, H. Nakatsuji, M. Caricato, X. Li, H. P. Hratchian, 
 A. F. Izmaylov, J. Bloino, G. Zheng, J. L. Sonnenberg, M. Hada, 
 M. Ehara, K. Toyota, R. Fukuda, J. Hasegawa, M. Ishida, T. Nakajima, 
 Y. Honda, O. Kitao, H. Nakai, T. Vreven, J. A. Montgomery, Jr., 
 J. E. Peralta, F. Ogliaro, M. Bearpark, J. J. Heyd, E. Brothers, 
 K. N. Kudin, V. N. Staroverov, R. Kobayashi, J. Normand, 
 K. Raghavachari, A. Rendell, J. C. Burant, S. S. Iyengar, J. Tomasi, 
 M. Cossi, N. Rega, J. M. Millam, M. Klene, J. E. Knox, J. B. Cross, 
 V. Bakken, C. Adamo, J. Jaramillo, R. Gomperts, R. E. Stratmann, 
 O. Yazyev, A. J. Austin, R. Cammi, C. Pomelli, J. W. Ochterski, 
 R. L. Martin, K. Morokuma, V. G. Zakrzewski, G. A. Voth, 
 P. Salvador, J. J. Dannenberg, S. Dapprich, A. D. Daniels, 
 O. Farkas, J. B. Foresman, J. V. Ortiz, J. Cioslowski, 
 and D. J. Fox, Gaussian, Inc., Wallingford CT, 2009.
 
 ******************************************
 Gaussian 09:  EM64L-G09RevA.02 11-Jun-2009
                21-Dec-2019 
 ******************************************
 %RWF=/scratch/bdw2292/Gau-methanol/,100GB
 %Nosave
 %Chk=methanol-sp-6-1-2-3-121.chk
 %Mem=20GB
 %Nproc=4
 Will use up to    4 processors via shared memory.
 -------------------------------------------------------------------
 #P MP2/6-311++G** SP SCF=(qc,maxcycle=800) Guess=Indo MaxDisk=100GB
 -------------------------------------------------------------------
 1/38=1/1;
 2/12=2,17=6,18=5,40=1/2;
 3/5=4,6=6,7=1111,11=9,16=1,25=1,30=1/1,2,3;
 4/5=4,11=3/1;
 5/5=2,7=800,8=3,38=5/8;
 8/10=2/1;
 9/16=-3/6;
 6/7=2,8=2,9=2,10=2/1;
 99/5=1,9=1/99;
 Leave Link    1 at Sat Dec 21 15:11:52 2019, MaxMem= 2684354560 cpu:       0.1
 (Enter /opt/g09gh/gaussian/g09/l101.exe)
 -----------------------------------------------------------------
 methanol Rotatable Bond SP Calculation on bme-nova.bme.utexas.edu
 -----------------------------------------------------------------
 Symbolic Z-matrix:
 Charge =  0 Multiplicity = 1
 O                    -0.72298  -0.02255   0.29295 
 C                     0.68427  -0.03076   0.05404 
 H                     1.002     1.00145  -0.13025 
 H                     0.89794  -0.68193  -0.80103 
 H                     1.16726  -0.42436   0.95588 
 H                    -1.14745  -0.58745  -0.37159 
 
 NAtoms=      6 NQM=      6 NQMF=      0 NMic=      0 NMicF=      0 NTot=      6.
                    Isotopes and Nuclear Properties:
 (Nuclear quadrupole moments (NQMom) in fm**2, nuclear magnetic moments (NMagM)
  in nuclear magnetons)

  Atom         1           2           3           4           5           6
 IAtWgt=          16          12           1           1           1           1
 AtmWgt=  15.9949146  12.0000000   1.0078250   1.0078250   1.0078250   1.0078250
 NucSpn=           0           0           1           1           1           1
 AtZEff=   0.0000000   0.0000000   0.0000000   0.0000000   0.0000000   0.0000000
 NQMom=    0.0000000   0.0000000   0.0000000   0.0000000   0.0000000   0.0000000
 NMagM=    0.0000000   0.0000000   2.7928460   2.7928460   2.7928460   2.7928460
 Leave Link  101 at Sat Dec 21 15:11:52 2019, MaxMem= 2684354560 cpu:       0.3
 (Enter /opt/g09gh/gaussian/g09/l202.exe)
                          Input orientation:                          
 ---------------------------------------------------------------------
 Center     Atomic      Atomic             Coordinates (Angstroms)
 Number     Number       Type             X           Y           Z
 ---------------------------------------------------------------------
      1          8           0       -0.722983   -0.022554    0.292947
      2          6           0        0.684266   -0.030762    0.054040
      3          1           0        1.002004    1.001449   -0.130252
      4          1           0        0.897942   -0.681925   -0.801025
      5          1           0        1.167263   -0.424356    0.955875
      6          1           0       -1.147447   -0.587447   -0.371587
 ---------------------------------------------------------------------
                    Distance matrix (angstroms):
                    1          2          3          4          5
     1  O    0.000000
     2  C    1.427408   0.000000
     3  H    2.050185   1.095619   0.000000
     4  H    2.063721   1.095813   1.815079   0.000000
     5  H    2.043024   1.096134   1.799973   1.795988   0.000000
     6  H    0.969989   1.961181   2.683835   2.092118   2.673319
                    6
     6  H    0.000000
 Stoichiometry    CH4O
 Framework group  C1[X(CH4O)]
 Deg. of freedom    12
 Full point group                 C1      NOp   1
 Largest Abelian subgroup         C1      NOp   1
 Largest concise Abelian subgroup C1      NOp   1
                         Standard orientation:                         
 ---------------------------------------------------------------------
 Center     Atomic      Atomic             Coordinates (Angstroms)
 Number     Number       Type             X           Y           Z
 ---------------------------------------------------------------------
      1          8           0        0.744165   -0.129232    0.003341
      2          6           0       -0.675247    0.021503   -0.003102
      3          1           0       -1.066679   -0.499826   -0.883657
      4          1           0       -0.921320    1.089218   -0.018600
      5          1           0       -1.057643   -0.438819    0.915259
      6          1           0        1.143809    0.754264   -0.021117
 ---------------------------------------------------------------------
 Rotational constants (GHZ):    124.6117501     24.8491271     23.9186833
 Leave Link  202 at Sat Dec 21 15:11:52 2019, MaxMem= 2684354560 cpu:       0.0
 (Enter /opt/g09gh/gaussian/g09/l301.exe)
 Standard basis: 6-311++G(d,p) (5D, 7F)
 Ernie: Thresh=  0.10000D-02 Tol=  0.10000D-05 Strict=F.
 There are    72 symmetry adapted basis functions of A   symmetry.
 Integral buffers will be    131072 words long.
 Raffenetti 1 integral format.
 Two-electron integral symmetry is turned on.
    72 basis functions,   108 primitive gaussians,    74 cartesian basis functions
     9 alpha electrons        9 beta electrons
       nuclear repulsion energy        40.1868315151 Hartrees.
 IExCor=    0 DFT=F Ex=HF Corr=None ExCW=0 ScaHFX=  1.000000
 ScaDFX=  1.000000  1.000000  1.000000  1.000000 ScalE2=  1.000000  1.000000
 IRadAn=      0 IRanWt=     -1 IRanGd=            0 ICorTp=0
 NAtoms=    6 NActive=    6 NUniq=    6 SFac= 7.50D-01 NAtFMM=   80 NAOKFM=F Big=F
 Leave Link  301 at Sat Dec 21 15:11:52 2019, MaxMem= 2684354560 cpu:       0.2
 (Enter /opt/g09gh/gaussian/g09/l302.exe)
 NPDir=0 NMtPBC=     1 NCelOv=     1 NCel=       1 NClECP=     1 NCelD=      1
         NCelK=      1 NCelE2=     1 NClLst=     1 CellRange=     0.0.
 One-electron integrals computed using PRISM.
 NBasis=    72 RedAO= T  NBF=    72
 NBsUse=    72 1.00D-06 NBFU=    72
 Leave Link  302 at Sat Dec 21 15:11:52 2019, MaxMem= 2684354560 cpu:       0.4
 (Enter /opt/g09gh/gaussian/g09/l303.exe)
 DipDrv:  MaxL=1.
 Leave Link  303 at Sat Dec 21 15:11:52 2019, MaxMem= 2684354560 cpu:       0.1
 (Enter /opt/g09gh/gaussian/g09/l401.exe)
 Projected INDO guess.
 Initial guess orbital symmetries:
       Occupied  (A) (A) (A) (A) (A) (A) (A) (A) (A)
       Virtual   (A) (A) (A) (A) (A) (A) (A) (A) (A) (A) (A) (A)
                 (A) (A) (A) (A) (A) (A) (A) (A) (A) (A) (A) (A)
                 (A) (A) (A) (A) (A) (A) (A) (A) (A) (A) (A) (A)
                 (A) (A) (A) (A) (A) (A) (A) (A) (A) (A) (A) (A)
                 (A) (A) (A) (A) (A) (A) (A) (A) (A) (A) (A) (A)
                 (A) (A) (A)
 The electronic state of the initial guess is 1-A.
 Leave Link  401 at Sat Dec 21 15:11:52 2019, MaxMem= 2684354560 cpu:       0.2
 (Enter /opt/g09gh/gaussian/g09/l508.exe)
 Direct SCF.
 Tight linear equation convergence will be used.
 RHF wavefunction.
 Quadratic Convergence SCF Method.
 Line search only if initial step raises energy.
 Integral symmetry usage will be decided dynamically.
 ReadGW:  IGet=1 IStart=           2 Next=           2 LGW=           0.
 Keep R1 ints in memory in canonical form, NReq=4716137.
 Symmetry not used in FoFDir.
 MinBra= 0 MaxBra= 2 Meth= 1.
 IRaf=       0 NMat=   1 IRICut=       1 DoRegI=T DoRafI=F ISym2E= 0 JSym2E=0.
 Iteration   1 EE= -114.492310135718                                    Grad=2.169D+00
 Gradient too large for Newton-Raphson -- use scaled steepest descent instead.
     ILin= 1 X=0.000D+00 Y=-1.144923101357D+02 DE= 0.00D+00
     ILin= 2 X=3.000D-01 Y=-1.147686507850D+02 DE=-2.76D-01
     ILin= 3 X=4.243D-01 Y=-1.148566282304D+02 DE=-3.64D-01
     ILin= 4 X=6.000D-01 Y=-1.149541785418D+02 DE=-4.62D-01
     ILin= 5 X=8.485D-01 Y=-1.150378068363D+02 DE=-5.45D-01
     ILin= 6 X=1.200D+00 Y=-1.150461017715D+02 DE=-5.54D-01
     ILin= 7 X=1.697D+00 Y=-1.148357513377D+02 DE=-3.43D-01
     An  expanding polynomial of degree  7 produced  1.0469
 Iteration   2 EE= -115.058413969581     Delta-E=       -0.566103833863 Grad=1.779D-01
 Gradient too large for Newton-Raphson -- use scaled steepest descent instead.
     ILin= 1 X=0.000D+00 Y=-1.150584139696D+02 DE= 0.00D+00
     ILin= 2 X=1.047D+00 Y=-1.150713799961D+02 DE=-1.30D-02
     ILin= 3 X=1.481D+00 Y=-1.150623534475D+02 DE=-3.94D-03
     An  expanding polynomial of degree  3 produced  0.7996
 Iteration   3 EE= -115.072782318206     Delta-E=       -0.014368348624 Grad=6.430D-02
 Gradient too large for Newton-Raphson -- use scaled steepest descent instead.
     ILin= 1 X=0.000D+00 Y=-1.150727823182D+02 DE= 0.00D+00
     ILin= 2 X=7.996D-01 Y=-1.150752752346D+02 DE=-2.49D-03
     ILin= 3 X=1.131D+00 Y=-1.150753280934D+02 DE=-2.55D-03
     ILin= 4 X=1.599D+00 Y=-1.150744109341D+02 DE=-1.63D-03
     An  expanding polynomial of degree  4 produced  0.9956
 Iteration   4 EE= -115.075376383213     Delta-E=       -0.002594065007 Grad=3.376D-02
 Gradient too large for Newton-Raphson -- use scaled steepest descent instead.
     ILin= 1 X=0.000D+00 Y=-1.150753763832D+02 DE= 0.00D+00
     ILin= 2 X=9.956D-01 Y=-1.150759470052D+02 DE=-5.71D-04
     ILin= 3 X=1.408D+00 Y=-1.150756732999D+02 DE=-2.97D-04
     An  expanding polynomial of degree  3 produced  0.8240
 Iteration   5 EE= -115.075972998960     Delta-E=       -0.000596615747 Grad=1.495D-02
 Gradient too large for Newton-Raphson -- use scaled steepest descent instead.
     ILin= 1 X=0.000D+00 Y=-1.150759729990D+02 DE= 0.00D+00
     ILin= 2 X=8.240D-01 Y=-1.150761187517D+02 DE=-1.46D-04
     ILin= 3 X=1.165D+00 Y=-1.150761185146D+02 DE=-1.46D-04
     An  expanding polynomial of degree  3 produced  0.9924
 Iteration   6 EE= -115.076123081789     Delta-E=       -0.000150082829 Grad=8.519D-03
 QCNR:  CnvC1=3.37D-09 CnvC2=3.37D-08
 LinEq1:  Iter=  0 NonCon=     1 RMS=1.89D-04 Max=1.36D-03
 AX will form     1 AO Fock derivatives at one time.
 LinEq1:  Iter=  1 NonCon=     1 RMS=1.08D-04 Max=1.13D-03
 LinEq1:  Iter=  2 NonCon=     1 RMS=4.83D-06 Max=3.49D-05
 LinEq1:  Iter=  3 NonCon=     1 RMS=1.21D-06 Max=7.72D-06
 LinEq1:  Iter=  4 NonCon=     1 RMS=2.00D-07 Max=1.49D-06
 LinEq1:  Iter=  5 NonCon=     1 RMS=1.75D-08 Max=1.45D-07
 LinEq1:  Iter=  6 NonCon=     0 RMS=1.61D-09 Max=1.05D-08
 Linear equations converged to 3.367D-09 3.367D-08 after     6 iterations.
 Angle between quadratic step and gradient=  47.06 degrees.
     ILin= 1 X=0.000D+00 Y=-1.150761230818D+02 DE= 0.00D+00
     ILin= 2 X=1.000D+00 Y=-1.150761756365D+02 DE=-5.26D-05
     ILin= 3 X=1.414D+00 Y=-1.150761667553D+02 DE=-4.37D-05
     An  expanding polynomial of degree  3 produced  1.0022
 Iteration   7 EE= -115.076175636689     Delta-E=       -0.000052554900 Grad=1.795D-05
 QCNR:  CnvC1=1.80D-10 CnvC2=1.80D-09
 LinEq1:  Iter=  0 NonCon=     1 RMS=3.54D-07 Max=3.03D-06
 LinEq1:  Iter=  1 NonCon=     1 RMS=8.03D-08 Max=5.50D-07
 LinEq1:  Iter=  2 NonCon=     1 RMS=2.35D-08 Max=1.46D-07
 LinEq1:  Iter=  3 NonCon=     1 RMS=5.64D-09 Max=3.52D-08
 LinEq1:  Iter=  4 NonCon=     1 RMS=1.25D-09 Max=7.68D-09
 LinEq1:  Iter=  5 NonCon=     1 RMS=3.52D-10 Max=2.34D-09
 LinEq1:  Iter=  6 NonCon=     0 RMS=7.72D-11 Max=4.71D-10
 Linear equations converged to 1.795D-10 1.795D-09 after     6 iterations.
 Angle between quadratic step and gradient=  43.87 degrees.
     ILin= 1 X=0.000D+00 Y=-1.150761756367D+02 DE= 0.00D+00
     ILin= 2 X=1.000D+00 Y=-1.150761756369D+02 DE=-2.09D-10
 Iteration   8 EE= -115.076175636898     Delta-E=       -0.000000000209 Grad=7.752D-09
 Rotation gradient small -- convergence achieved.
 SCF Done:  E(RHF) =  -115.076175637     a.u. after    8 cycles
            Convg  =    0.7752D-08                    37 Fock formations.
              S**2 =  0.0000                  -V/T =  2.0013
 Leave Link  508 at Sat Dec 21 15:11:53 2019, MaxMem= 2684354560 cpu:       2.3
 (Enter /opt/g09gh/gaussian/g09/l801.exe)
 ExpMin= 3.60D-02 ExpMax= 8.59D+03 ExpMxC= 1.30D+03 IAcc=3 IRadAn=         5 AccDes= 0.00D+00
 HarFok:  IExCor=  205 AccDes= 0.00D+00 IRadAn=         5 IDoV=-2
 ScaDFX=  1.000000  1.000000  1.000000  1.000000
 Largest valence mixing into a core orbital is  1.38D-04
 Largest core mixing into a valence orbital is  3.63D-05
 Range of M.O.s used for correlation:     3    72
 NBasis=    72 NAE=     9 NBE=     9 NFC=     2 NFV=     0
 NROrb=     70 NOA=     7 NOB=     7 NVA=    63 NVB=    63

 **** Warning!!: The largest alpha MO coefficient is  0.15012871D+02

 Leave Link  801 at Sat Dec 21 15:11:53 2019, MaxMem= 2684354560 cpu:       0.3
 (Enter /opt/g09gh/gaussian/g09/l906.exe)
 FulOut=F Deriv=F AODrv=F NAtomX=     6
   MMem=       70710  MDisk=           7 MDiskD=           7
  W3Min=       32634 MinDsk=      124366 NBas6D=          74
 NBas2D=        2865    NTT=        2775    LW2=     2000000
    MDV=  2684310785 MDiskM=      503436 NBas2p=        2865
 Fully in-core method, ICMem=    14330399.
 IMap=   1   2   3   4   5   6   7
 JobTyp=1 Pass  1 fully in-core, NPsUse=  4.
 Compute canonical integrals, IntTyp=   4.
 Symmetry not used in FoFDir.
 MinBra= 0 MaxBra= 2 Meth= 1.
 IRaf=       0 NMat=   1 IRICut=       1 DoRegI=T DoRafI=F ISym2E= 0 JSym2E=0.
 Spin components of T(2) and E(2):
     alpha-alpha T2 =       0.1213949058D-01 E2=     -0.4331463266D-01
     alpha-beta  T2 =       0.7823724850D-01 E2=     -0.2795262147D+00
     beta-beta   T2 =       0.1213949058D-01 E2=     -0.4331463266D-01
 The integrals were generated   1 times.
 ANorm=    0.1050007728D+01
 E2 =    -0.3661554800D+00 EUMP2 =    -0.11544233111691D+03
 Leave Link  906 at Sat Dec 21 15:11:53 2019, MaxMem= 2684354560 cpu:       1.8
 (Enter /opt/g09gh/gaussian/g09/l601.exe)
 Copying SCF densities to generalized density rwf, IOpCl= 0 IROHF=0.

 **********************************************************************

            Population analysis using the SCF density.

 **********************************************************************

 Orbital symmetries:
       Occupied  (A) (A) (A) (A) (A) (A) (A) (A) (A)
       Virtual   (A) (A) (A) (A) (A) (A) (A) (A) (A) (A) (A) (A)
                 (A) (A) (A) (A) (A) (A) (A) (A) (A) (A) (A) (A)
                 (A) (A) (A) (A) (A) (A) (A) (A) (A) (A) (A) (A)
                 (A) (A) (A) (A) (A) (A) (A) (A) (A) (A) (A) (A)
                 (A) (A) (A) (A) (A) (A) (A) (A) (A) (A) (A) (A)
                 (A) (A) (A)
 The electronic state is 1-A.
 Alpha  occ. eigenvalues --  -20.55455 -11.27589  -1.35306  -0.92379  -0.68840
 Alpha  occ. eigenvalues --   -0.62089  -0.59317  -0.50302  -0.44788
 Alpha virt. eigenvalues --    0.03852   0.06334   0.07700   0.07807   0.12698
 Alpha virt. eigenvalues --    0.14666   0.15606   0.18323   0.24538   0.28673
 Alpha virt. eigenvalues --    0.30052   0.30746   0.30756   0.34073   0.36542
 Alpha virt. eigenvalues --    0.39380   0.47904   0.56725   0.57446   0.70560
 Alpha virt. eigenvalues --    0.77461   0.84149   0.85042   0.86640   1.07287
 Alpha virt. eigenvalues --    1.19932   1.22961   1.28943   1.37634   1.41447
 Alpha virt. eigenvalues --    1.66156   1.69267   1.70625   1.76603   1.78293
 Alpha virt. eigenvalues --    1.87837   1.94525   1.97605   2.03345   2.24481
 Alpha virt. eigenvalues --    2.35848   2.41408   2.45416   2.72679   2.76178
 Alpha virt. eigenvalues --    2.79618   2.83436   2.85199   2.97071   3.19320
 Alpha virt. eigenvalues --    3.33093   3.50363   3.51430   3.64914   4.20454
 Alpha virt. eigenvalues --    4.21788   4.23841   4.43294   5.57002   5.89820
 Alpha virt. eigenvalues --    6.19960  25.05479  51.59646
          Condensed to atoms (all electrons):
              1          2          3          4          5          6
     1  O    8.096453   0.164776  -0.064437  -0.044816  -0.066628   0.297094
     2  C    0.164776   4.841657   0.421286   0.408017   0.421621  -0.026576
     3  H   -0.064437   0.421286   0.600202  -0.031483  -0.056264   0.002388
     4  H   -0.044816   0.408017  -0.031483   0.612274  -0.033414  -0.010876
     5  H   -0.066628   0.421621  -0.056264  -0.033414   0.603543   0.002331
     6  H    0.297094  -0.026576   0.002388  -0.010876   0.002331   0.479832
 Mulliken atomic charges:
              1
     1  O   -0.382443
     2  C   -0.230781
     3  H    0.128307
     4  H    0.100299
     5  H    0.128812
     6  H    0.255806
 Sum of Mulliken atomic charges =   0.00000
 Mulliken charges with hydrogens summed into heavy atoms:
              1
     1  O   -0.126637
     2  C    0.126637
 Sum of Mulliken charges with hydrogens summed into heavy atoms =   0.00000
 Electronic spatial extent (au):  <R**2>=             84.4851
 Charge=              0.0000 electrons
 Dipole moment (field-independent basis, Debye):
    X=             -1.0778    Y=              1.7850    Z=             -0.0479  Tot=              2.0857
 Quadrupole moment (field-independent basis, Debye-Ang):
   XX=            -13.2113   YY=            -12.1430   ZZ=            -13.6723
   XY=              2.4147   XZ=             -0.0606   YZ=             -0.0092
 Traceless Quadrupole moment (field-independent basis, Debye-Ang):
   XX=             -0.2025   YY=              0.8658   ZZ=             -0.6634
   XY=              2.4147   XZ=             -0.0606   YZ=             -0.0092
 Octapole moment (field-independent basis, Debye-Ang**2):
  XXX=              4.0671  YYY=              2.0985  ZZZ=              0.0376  XYY=              1.7656
  XXY=              2.7343  XXZ=             -0.0828  XZZ=              0.0099  YZZ=             -0.3495
  YYZ=             -0.0735  XYZ=             -0.0884
 Hexadecapole moment (field-independent basis, Debye-Ang**3):
 XXXX=            -62.1528 YYYY=            -20.0218 ZZZZ=            -19.6497 XXXY=              4.1976
 XXXZ=             -0.0841 YYYX=              1.8305 YYYZ=             -0.0038 ZZZX=             -0.0916
 ZZZY=              0.0082 XXYY=            -12.9015 XXZZ=            -14.2701 YYZZ=             -6.8573
 XXYZ=             -0.0008 YYXZ=              0.0172 ZZXY=              1.1845
 N-N= 4.018683151513D+01 E-N=-3.515291102174D+02  KE= 1.149243898289D+02
 Leave Link  601 at Sat Dec 21 15:11:53 2019, MaxMem= 2684354560 cpu:       0.1
 (Enter /opt/g09gh/gaussian/g09/l9999.exe)
 1\1\GINC-NODE37\SP\RMP2-FC\6-311++G(d,p)\C1H4O1\BDW2292\21-Dec-2019\0\
 \#P MP2/6-311++G** SP SCF=(qc,maxcycle=800) Guess=Indo MaxDisk=100GB\\
 methanol Rotatable Bond SP Calculation on bme-nova.bme.utexas.edu\\0,1
 \O,0,-0.722983,-0.022554,0.292947\C,0,0.684266,-0.030762,0.05404\H,0,1
 .002004,1.001449,-0.130252\H,0,0.897942,-0.681925,-0.801025\H,0,1.1672
 63,-0.424356,0.955875\H,0,-1.147447,-0.587447,-0.371587\\Version=EM64L
 -G09RevA.02\State=1-A\HF=-115.0761756\MP2=-115.4423311\RMSD=0.000e+00\
 PG=C01 [X(C1H4O1)]\\@


 YOU WILL NEVER "FIND" TIME FOR ANYTHING.
 IF YOU WANT TIME, YOU MUST MAKE IT.

                        -- CHARLES BIXTON
 Job cpu time:  0 days  0 hours  0 minutes  6.2 seconds.
 File lengths (MBytes):  RWF=      5 Int=      0 D2E=      0 Chk=      1 Scr=      1
 Normal termination of Gaussian 09 at Sat Dec 21 15:11:53 2019.
