 Entering Gaussian System, Link 0=g09
 Input=methanol-opt-6-1-2-3-181.com
 Output=methanol-opt-6-1-2-3-181.log
 Initial command:
 /opt/g09gh/gaussian/g09/l1.exe /scratch/bdw2292/Gau-methanol/Gau-66853.inp -scrdir=/scratch/bdw2292/Gau-methanol/
 Entering Link 1 = /opt/g09gh/gaussian/g09/l1.exe PID=     66854.
  
 Copyright (c) 1988,1990,1992,1993,1995,1998,2003,2009, Gaussian, Inc.
                  All Rights Reserved.
  
 This is part of the Gaussian(R) 09 program.  It is based on
 the Gaussian(R) 03 system (copyright 2003, Gaussian, Inc.),
 the Gaussian(R) 98 system (copyright 1998, Gaussian, Inc.),
 the Gaussian(R) 94 system (copyright 1995, Gaussian, Inc.),
 the Gaussian 92(TM) system (copyright 1992, Gaussian, Inc.),
 the Gaussian 90(TM) system (copyright 1990, Gaussian, Inc.),
 the Gaussian 88(TM) system (copyright 1988, Gaussian, Inc.),
 the Gaussian 86(TM) system (copyright 1986, Carnegie Mellon
 University), and the Gaussian 82(TM) system (copyright 1983,
 Carnegie Mellon University). Gaussian is a federally registered
 trademark of Gaussian, Inc.
  
 This software contains proprietary and confidential information,
 including trade secrets, belonging to Gaussian, Inc.
  
 This software is provided under written license and may be
 used, copied, transmitted, or stored only in accord with that
 written license.
  
 The following legend is applicable only to US Government
 contracts under FAR:
  
                    RESTRICTED RIGHTS LEGEND
  
 Use, reproduction and disclosure by the US Government is
 subject to restrictions as set forth in subparagraphs (a)
 and (c) of the Commercial Computer Software - Restricted
 Rights clause in FAR 52.227-19.
  
 Gaussian, Inc.
 340 Quinnipiac St., Bldg. 40, Wallingford CT 06492
  
  
 ---------------------------------------------------------------
 Warning -- This program may not be used in any manner that
 competes with the business of Gaussian, Inc. or will provide
 assistance to any competitor of Gaussian, Inc.  The licensee
 of this program is prohibited from giving any competitor of
 Gaussian, Inc. access to this program.  By using this program,
 the user acknowledges that Gaussian, Inc. is engaged in the
 business of creating and licensing software in the field of
 computational chemistry and represents and warrants to the
 licensee that it is not a competitor of Gaussian, Inc. and that
 it will not use this program in any manner prohibited above.
 ---------------------------------------------------------------
  

 Cite this work as:
 Gaussian 09, Revision A.02,
 M. J. Frisch, G. W. Trucks, H. B. Schlegel, G. E. Scuseria, 
 M. A. Robb, J. R. Cheeseman, G. Scalmani, V. Barone, B. Mennucci, 
 G. A. Petersson, H. Nakatsuji, M. Caricato, X. Li, H. P. Hratchian, 
 A. F. Izmaylov, J. Bloino, G. Zheng, J. L. Sonnenberg, M. Hada, 
 M. Ehara, K. Toyota, R. Fukuda, J. Hasegawa, M. Ishida, T. Nakajima, 
 Y. Honda, O. Kitao, H. Nakai, T. Vreven, J. A. Montgomery, Jr., 
 J. E. Peralta, F. Ogliaro, M. Bearpark, J. J. Heyd, E. Brothers, 
 K. N. Kudin, V. N. Staroverov, R. Kobayashi, J. Normand, 
 K. Raghavachari, A. Rendell, J. C. Burant, S. S. Iyengar, J. Tomasi, 
 M. Cossi, N. Rega, J. M. Millam, M. Klene, J. E. Knox, J. B. Cross, 
 V. Bakken, C. Adamo, J. Jaramillo, R. Gomperts, R. E. Stratmann, 
 O. Yazyev, A. J. Austin, R. Cammi, C. Pomelli, J. W. Ochterski, 
 R. L. Martin, K. Morokuma, V. G. Zakrzewski, G. A. Voth, 
 P. Salvador, J. J. Dannenberg, S. Dapprich, A. D. Daniels, 
 O. Farkas, J. B. Foresman, J. V. Ortiz, J. Cioslowski, 
 and D. J. Fox, Gaussian, Inc., Wallingford CT, 2009.
 
 ******************************************
 Gaussian 09:  EM64L-G09RevA.02 11-Jun-2009
                21-Dec-2019 
 ******************************************
 %RWF=/scratch/bdw2292/Gau-methanol/,100GB
 %Nosave
 %Chk=methanol-opt-6-1-2-3-181.chk
 %Mem=20GB
 %Nproc=4
 Will use up to    4 processors via shared memory.
 ----------------------------------------------
 #P opt=(,maxcycle=400) HF/6-31G* MaxDisk=100GB
 ----------------------------------------------
 1/6=400,18=20,19=15,38=1/1,3;
 2/9=110,12=2,17=6,18=5,40=1/2;
 3/5=1,6=6,7=1,11=9,16=1,25=1,30=1,71=1/1,2,3;
 4//1;
 5/5=2,38=5/2;
 6/7=2,8=2,9=2,10=2,28=1/1;
 7//1,2,3,16;
 1/6=400,18=20,19=15/3(2);
 2/9=110/2;
 99//99;
 2/9=110/2;
 3/5=1,6=6,7=1,11=9,16=1,25=1,30=1,71=1/1,2,3;
 4/5=5,16=3/1;
 5/5=2,38=5/2;
 7//1,2,3,16;
 1/6=400,18=20,19=15/3(-5);
 2/9=110/2;
 6/7=2,8=2,9=2,10=2,19=2,28=1/1;
 99/9=1/99;
 Leave Link    1 at Sat Dec 21 15:13:10 2019, MaxMem= 2684354560 cpu:       0.3
 (Enter /opt/g09gh/gaussian/g09/l101.exe)
 ---------------------------------------------------------------
 methanol Rotatable Bond Optimization on bme-nova.bme.utexas.edu
 ---------------------------------------------------------------
 Symbolic Z-matrix:
 Charge =  0 Multiplicity = 1
 O                     0.73416   0.11027   0.00466 
 C                    -0.68739  -0.00949  -0.00357 
 H                    -1.11149   1.00051  -0.01937 
 H                    -0.99181  -0.57066   0.88712 
 H                    -0.97208  -0.55547  -0.91071 
 H                     1.1092   -0.78457   0.00518 
 
 NAtoms=      6 NQM=      6 NQMF=      0 NMic=      0 NMicF=      0 NTot=      6.
                    Isotopes and Nuclear Properties:
 (Nuclear quadrupole moments (NQMom) in fm**2, nuclear magnetic moments (NMagM)
  in nuclear magnetons)

  Atom         1           2           3           4           5           6
 IAtWgt=          16          12           1           1           1           1
 AtmWgt=  15.9949146  12.0000000   1.0078250   1.0078250   1.0078250   1.0078250
 NucSpn=           0           0           1           1           1           1
 AtZEff=   0.0000000   0.0000000   0.0000000   0.0000000   0.0000000   0.0000000
 NQMom=    0.0000000   0.0000000   0.0000000   0.0000000   0.0000000   0.0000000
 NMagM=    0.0000000   0.0000000   2.7928460   2.7928460   2.7928460   2.7928460
 Leave Link  101 at Sat Dec 21 15:13:10 2019, MaxMem= 2684354560 cpu:       0.6
 (Enter /opt/g09gh/gaussian/g09/l103.exe)

 GradGradGradGradGradGradGradGradGradGradGradGradGradGradGradGradGradGrad
 Berny optimization.
 Initialization pass.
                           ----------------------------
                           !    Initial Parameters    !
                           ! (Angstroms and Degrees)  !
 --------------------------                            --------------------------
 ! Name  Definition              Value          Derivative Info.                !
 --------------------------------------------------------------------------------
 ! R1    R(1,2)                  1.4266         estimate D2E/DX2                !
 ! R2    R(1,6)                  0.9703         estimate D2E/DX2                !
 ! R3    R(2,3)                  1.0955         estimate D2E/DX2                !
 ! R4    R(2,4)                  1.0959         estimate D2E/DX2                !
 ! R5    R(2,5)                  1.0964         estimate D2E/DX2                !
 ! A1    A(2,1,6)              107.9237         estimate D2E/DX2                !
 ! A2    A(1,2,3)              107.965          estimate D2E/DX2                !
 ! A3    A(1,2,4)              108.3666         estimate D2E/DX2                !
 ! A4    A(1,2,5)              107.7778         estimate D2E/DX2                !
 ! A5    A(3,2,4)              112.1037         estimate D2E/DX2                !
 ! A6    A(3,2,5)              110.2825         estimate D2E/DX2                !
 ! A7    A(4,2,5)              110.2028         estimate D2E/DX2                !
 ! D1    D(6,1,2,3)           -179.1634         estimate D2E/DX2                !
 ! D2    D(6,1,2,4)             59.205          estimate D2E/DX2                !
 ! D3    D(6,1,2,5)            -60.0424         estimate D2E/DX2                !
 --------------------------------------------------------------------------------
 Trust Radius=3.00D-01 FncErr=1.00D-07 GrdErr=1.00D-07
 Number of steps in this run= 100 maximum allowed number of steps= 100.
 GradGradGradGradGradGradGradGradGradGradGradGradGradGradGradGradGradGrad

 Leave Link  103 at Sat Dec 21 15:13:10 2019, MaxMem= 2684354560 cpu:       0.1
 (Enter /opt/g09gh/gaussian/g09/l202.exe)
                          Input orientation:                          
 ---------------------------------------------------------------------
 Center     Atomic      Atomic             Coordinates (Angstroms)
 Number     Number       Type             X           Y           Z
 ---------------------------------------------------------------------
      1          8           0        0.734161    0.110270    0.004662
      2          6           0       -0.687389   -0.009485   -0.003574
      3          1           0       -1.111487    1.000507   -0.019374
      4          1           0       -0.991806   -0.570657    0.887118
      5          1           0       -0.972081   -0.555465   -0.910708
      6          1           0        1.109201   -0.784570    0.005176
 ---------------------------------------------------------------------
                    Distance matrix (angstroms):
                    1          2          3          4          5
     1  O    0.000000
     2  C    1.426609   0.000000
     3  H    2.049272   1.095533   0.000000
     4  H    2.054593   1.095863   1.817858   0.000000
     5  H    2.047527   1.096374   1.798599   1.797998   0.000000
     6  H    0.970255   1.956673   2.849308   2.288626   2.285403
                    6
     6  H    0.000000
 Stoichiometry    CH4O
 Framework group  C1[X(CH4O)]
 Deg. of freedom    12
 Full point group                 C1      NOp   1
 Largest Abelian subgroup         C1      NOp   1
 Largest concise Abelian subgroup C1      NOp   1
                         Standard orientation:                         
 ---------------------------------------------------------------------
 Center     Atomic      Atomic             Coordinates (Angstroms)
 Number     Number       Type             X           Y           Z
 ---------------------------------------------------------------------
      1          8           0       -0.743706    0.130396   -0.003498
      2          6           0        0.675076   -0.018835   -0.002276
      3          1           0        1.120138    0.982144   -0.014650
      4          1           0        0.961053   -0.608157   -0.880816
      5          1           0        0.955224   -0.548001    0.916166
      6          1           0       -1.137219   -0.756140    0.020941
 ---------------------------------------------------------------------
 Rotational constants (GHZ):    124.3701199     24.9068596     23.9551511
 Leave Link  202 at Sat Dec 21 15:13:10 2019, MaxMem= 2684354560 cpu:       0.0
 (Enter /opt/g09gh/gaussian/g09/l301.exe)
 Standard basis: 6-31G(d) (6D, 7F)
 Ernie: Thresh=  0.10000D-02 Tol=  0.10000D-05 Strict=F.
 There are    38 symmetry adapted basis functions of A   symmetry.
 Integral buffers will be    131072 words long.
 Raffenetti 1 integral format.
 Two-electron integral symmetry is turned on.
    38 basis functions,    72 primitive gaussians,    38 cartesian basis functions
     9 alpha electrons        9 beta electrons
       nuclear repulsion energy        40.2041497486 Hartrees.
 IExCor=    0 DFT=F Ex=HF Corr=None ExCW=0 ScaHFX=  1.000000
 ScaDFX=  1.000000  1.000000  1.000000  1.000000 ScalE2=  1.000000  1.000000
 IRadAn=      0 IRanWt=     -1 IRanGd=            0 ICorTp=0
 NAtoms=    6 NActive=    6 NUniq=    6 SFac= 7.50D-01 NAtFMM=   80 NAOKFM=F Big=F
 Leave Link  301 at Sat Dec 21 15:13:10 2019, MaxMem= 2684354560 cpu:       0.5
 (Enter /opt/g09gh/gaussian/g09/l302.exe)
 NPDir=0 NMtPBC=     1 NCelOv=     1 NCel=       1 NClECP=     1 NCelD=      1
         NCelK=      1 NCelE2=     1 NClLst=     1 CellRange=     0.0.
 One-electron integrals computed using PRISM.
 NBasis=    38 RedAO= T  NBF=    38
 NBsUse=    38 1.00D-06 NBFU=    38
 Leave Link  302 at Sat Dec 21 15:13:10 2019, MaxMem= 2684354560 cpu:       0.9
 (Enter /opt/g09gh/gaussian/g09/l303.exe)
 DipDrv:  MaxL=1.
 Leave Link  303 at Sat Dec 21 15:13:10 2019, MaxMem= 2684354560 cpu:       0.2
 (Enter /opt/g09gh/gaussian/g09/l401.exe)
 Harris functional with IExCor=  205 diagonalized for initial guess.
 ExpMin= 1.61D-01 ExpMax= 5.48D+03 ExpMxC= 8.25D+02 IAcc=1 IRadAn=         1 AccDes= 0.00D+00
 HarFok:  IExCor=  205 AccDes= 0.00D+00 IRadAn=         1 IDoV= 1
 ScaDFX=  1.000000  1.000000  1.000000  1.000000
 FoFCou: FMM=F IPFlag=           0 FMFlag=      100000 FMFlg1=           0
         NFxFlg=           0 DoJE=T BraDBF=F KetDBF=T FulRan=T
         Omega=  0.000000  0.000000  1.000000  0.000000  0.000000 ICntrl=     500 IOpCl=  0
         NMat0=    1 NMatS0=    1 NMatT0=    0 NMatD0=    1 NMtDS0=    0 NMtDT0=    0
         I1Cent=           4 NGrid=           0.
 Petite list used in FoFCou.
 Harris En= -115.209913756923    
 Initial guess orbital symmetries:
       Occupied  (A) (A) (A) (A) (A) (A) (A) (A) (A)
       Virtual   (A) (A) (A) (A) (A) (A) (A) (A) (A) (A) (A) (A)
                 (A) (A) (A) (A) (A) (A) (A) (A) (A) (A) (A) (A)
                 (A) (A) (A) (A) (A)
 The electronic state of the initial guess is 1-A.
 Leave Link  401 at Sat Dec 21 15:13:11 2019, MaxMem= 2684354560 cpu:       1.1
 (Enter /opt/g09gh/gaussian/g09/l502.exe)
 Closed shell SCF:
 Requested convergence on RMS density matrix=1.00D-08 within 128 cycles.
 Requested convergence on MAX density matrix=1.00D-06.
 Requested convergence on             energy=1.00D-06.
 No special actions if energy rises.
 Using DIIS extrapolation, IDIIS=  1040.
 Integral symmetry usage will be decided dynamically.
 Keep R1 ints in memory in canonical form, NReq=1117925.
 IEnd=       23000 IEndB=       23000 NGot=  2684354560 MDV=  2684074744
 LenX=  2684074744 LenY=  2684072859
 Symmetry not used in FoFDir.
 MinBra= 0 MaxBra= 2 Meth= 1.
 IRaf=       0 NMat=   1 IRICut=       1 DoRegI=T DoRafI=F ISym2E= 0 JSym2E=0.

 Cycle   1  Pass 1  IDiag  1:
 E= -114.924425011216    
 DIIS: error= 5.42D-02 at cycle   1 NSaved=   1.
 NSaved= 1 IEnMin= 1 EnMin= -114.924425011216     IErMin= 1 ErrMin= 5.42D-02
 ErrMax= 5.42D-02 EMaxC= 1.00D-01 BMatC= 1.66D-01 BMatP= 1.66D-01
 IDIUse=3 WtCom= 4.58D-01 WtEn= 5.42D-01
 Coeff-Com:  0.100D+01
 Coeff-En:   0.100D+01
 Coeff:      0.100D+01
 Gap=     0.652 Goal=   None    Shift=    0.000
 GapD=    0.652 DampG=2.000 DampE=0.500 DampFc=1.0000 IDamp=-1.
 RMSDP=9.24D-03 MaxDP=9.99D-02              OVMax= 9.94D-02

 Cycle   2  Pass 1  IDiag  1:
 E= -115.012578027563     Delta-E=       -0.088153016347 Rises=F Damp=F
 DIIS: error= 2.54D-02 at cycle   2 NSaved=   2.
 NSaved= 2 IEnMin= 2 EnMin= -115.012578027563     IErMin= 2 ErrMin= 2.54D-02
 ErrMax= 2.54D-02 EMaxC= 1.00D-01 BMatC= 2.81D-02 BMatP= 1.66D-01
 IDIUse=3 WtCom= 7.46D-01 WtEn= 2.54D-01
 Coeff-Com:  0.241D+00 0.759D+00
 Coeff-En:   0.000D+00 0.100D+01
 Coeff:      0.180D+00 0.820D+00
 Gap=     0.686 Goal=   None    Shift=    0.000
 RMSDP=3.69D-03 MaxDP=4.38D-02 DE=-8.82D-02 OVMax= 3.68D-02

 Cycle   3  Pass 1  IDiag  1:
 E= -115.031208365765     Delta-E=       -0.018630338202 Rises=F Damp=F
 DIIS: error= 6.21D-03 at cycle   3 NSaved=   3.
 NSaved= 3 IEnMin= 3 EnMin= -115.031208365765     IErMin= 3 ErrMin= 6.21D-03
 ErrMax= 6.21D-03 EMaxC= 1.00D-01 BMatC= 1.99D-03 BMatP= 2.81D-02
 IDIUse=3 WtCom= 9.38D-01 WtEn= 6.21D-02
 Coeff-Com: -0.165D-01 0.181D+00 0.836D+00
 Coeff-En:   0.000D+00 0.000D+00 0.100D+01
 Coeff:     -0.155D-01 0.169D+00 0.846D+00
 Gap=     0.660 Goal=   None    Shift=    0.000
 RMSDP=7.75D-04 MaxDP=1.20D-02 DE=-1.86D-02 OVMax= 1.03D-02

 Cycle   4  Pass 1  IDiag  1:
 E= -115.032652506630     Delta-E=       -0.001444140866 Rises=F Damp=F
 DIIS: error= 1.11D-03 at cycle   4 NSaved=   4.
 NSaved= 4 IEnMin= 4 EnMin= -115.032652506630     IErMin= 4 ErrMin= 1.11D-03
 ErrMax= 1.11D-03 EMaxC= 1.00D-01 BMatC= 6.64D-05 BMatP= 1.99D-03
 IDIUse=3 WtCom= 9.89D-01 WtEn= 1.11D-02
 Coeff-Com: -0.753D-02 0.211D-01 0.210D+00 0.776D+00
 Coeff-En:   0.000D+00 0.000D+00 0.000D+00 0.100D+01
 Coeff:     -0.744D-02 0.209D-01 0.208D+00 0.779D+00
 Gap=     0.661 Goal=   None    Shift=    0.000
 RMSDP=1.72D-04 MaxDP=1.85D-03 DE=-1.44D-03 OVMax= 2.23D-03

 Cycle   5  Pass 1  IDiag  1:
 E= -115.032709280215     Delta-E=       -0.000056773585 Rises=F Damp=F
 DIIS: error= 2.83D-04 at cycle   5 NSaved=   5.
 NSaved= 5 IEnMin= 5 EnMin= -115.032709280215     IErMin= 5 ErrMin= 2.83D-04
 ErrMax= 2.83D-04 EMaxC= 1.00D-01 BMatC= 2.81D-06 BMatP= 6.64D-05
 IDIUse=3 WtCom= 9.97D-01 WtEn= 2.83D-03
 Coeff-Com:  0.180D-02-0.173D-01-0.800D-01-0.340D-01 0.113D+01
 Coeff-En:   0.000D+00 0.000D+00 0.000D+00 0.000D+00 0.100D+01
 Coeff:      0.179D-02-0.172D-01-0.798D-01-0.339D-01 0.113D+01
 Gap=     0.661 Goal=   None    Shift=    0.000
 RMSDP=6.35D-05 MaxDP=5.48D-04 DE=-5.68D-05 OVMax= 6.99D-04

 Cycle   6  Pass 1  IDiag  1:
 E= -115.032713584495     Delta-E=       -0.000004304280 Rises=F Damp=F
 DIIS: error= 3.89D-05 at cycle   6 NSaved=   6.
 NSaved= 6 IEnMin= 6 EnMin= -115.032713584495     IErMin= 6 ErrMin= 3.89D-05
 ErrMax= 3.89D-05 EMaxC= 1.00D-01 BMatC= 6.89D-08 BMatP= 2.81D-06
 IDIUse=1 WtCom= 1.00D+00 WtEn= 0.00D+00
 Coeff-Com:  0.151D-03 0.289D-03-0.103D-02-0.278D-01-0.107D+00 0.113D+01
 Coeff:      0.151D-03 0.289D-03-0.103D-02-0.278D-01-0.107D+00 0.113D+01
 Gap=     0.662 Goal=   None    Shift=    0.000
 RMSDP=1.39D-05 MaxDP=1.34D-04 DE=-4.30D-06 OVMax= 1.75D-04

 Cycle   7  Pass 1  IDiag  1:
 E= -115.032713747948     Delta-E=       -0.000000163452 Rises=F Damp=F
 DIIS: error= 8.03D-06 at cycle   7 NSaved=   7.
 NSaved= 7 IEnMin= 7 EnMin= -115.032713747948     IErMin= 7 ErrMin= 8.03D-06
 ErrMax= 8.03D-06 EMaxC= 1.00D-01 BMatC= 3.77D-09 BMatP= 6.89D-08
 IDIUse=1 WtCom= 1.00D+00 WtEn= 0.00D+00
 Coeff-Com: -0.121D-03 0.687D-03 0.412D-02 0.811D-02-0.166D-01-0.338D+00
 Coeff-Com:  0.134D+01
 Coeff:     -0.121D-03 0.687D-03 0.412D-02 0.811D-02-0.166D-01-0.338D+00
 Coeff:      0.134D+01
 Gap=     0.662 Goal=   None    Shift=    0.000
 RMSDP=4.09D-06 MaxDP=4.76D-05 DE=-1.63D-07 OVMax= 6.06D-05

 Cycle   8  Pass 1  IDiag  1:
 E= -115.032713758019     Delta-E=       -0.000000010071 Rises=F Damp=F
 DIIS: error= 1.92D-06 at cycle   8 NSaved=   8.
 NSaved= 8 IEnMin= 8 EnMin= -115.032713758019     IErMin= 8 ErrMin= 1.92D-06
 ErrMax= 1.92D-06 EMaxC= 1.00D-01 BMatC= 1.10D-10 BMatP= 3.77D-09
 IDIUse=1 WtCom= 1.00D+00 WtEn= 0.00D+00
 Coeff-Com:  0.330D-04-0.223D-03-0.130D-02-0.207D-02 0.740D-02 0.951D-01
 Coeff-Com: -0.497D+00 0.140D+01
 Coeff:      0.330D-04-0.223D-03-0.130D-02-0.207D-02 0.740D-02 0.951D-01
 Coeff:     -0.497D+00 0.140D+01
 Gap=     0.662 Goal=   None    Shift=    0.000
 RMSDP=8.11D-07 MaxDP=6.78D-06 DE=-1.01D-08 OVMax= 1.15D-05

 Cycle   9  Pass 1  IDiag  1:
 E= -115.032713758338     Delta-E=       -0.000000000319 Rises=F Damp=F
 DIIS: error= 2.61D-07 at cycle   9 NSaved=   9.
 NSaved= 9 IEnMin= 9 EnMin= -115.032713758338     IErMin= 9 ErrMin= 2.61D-07
 ErrMax= 2.61D-07 EMaxC= 1.00D-01 BMatC= 2.50D-12 BMatP= 1.10D-10
 IDIUse=1 WtCom= 1.00D+00 WtEn= 0.00D+00
 Coeff-Com: -0.403D-05 0.309D-04 0.174D-03 0.175D-03-0.137D-02-0.897D-02
 Coeff-Com:  0.648D-01-0.284D+00 0.123D+01
 Coeff:     -0.403D-05 0.309D-04 0.174D-03 0.175D-03-0.137D-02-0.897D-02
 Coeff:      0.648D-01-0.284D+00 0.123D+01
 Gap=     0.662 Goal=   None    Shift=    0.000
 RMSDP=8.39D-08 MaxDP=8.08D-07 DE=-3.19D-10 OVMax= 1.23D-06

 Cycle  10  Pass 1  IDiag  1:
 E= -115.032713758345     Delta-E=       -0.000000000006 Rises=F Damp=F
 DIIS: error= 5.38D-08 at cycle  10 NSaved=  10.
 NSaved=10 IEnMin=10 EnMin= -115.032713758345     IErMin=10 ErrMin= 5.38D-08
 ErrMax= 5.38D-08 EMaxC= 1.00D-01 BMatC= 1.42D-13 BMatP= 2.50D-12
 IDIUse=1 WtCom= 1.00D+00 WtEn= 0.00D+00
 Coeff-Com: -0.699D-06 0.398D-05 0.247D-04 0.683D-04-0.811D-04-0.251D-02
 Coeff-Com:  0.925D-02-0.698D-02-0.254D+00 0.125D+01
 Coeff:     -0.699D-06 0.398D-05 0.247D-04 0.683D-04-0.811D-04-0.251D-02
 Coeff:      0.925D-02-0.698D-02-0.254D+00 0.125D+01
 Gap=     0.662 Goal=   None    Shift=    0.000
 RMSDP=2.20D-08 MaxDP=2.01D-07 DE=-6.34D-12 OVMax= 3.13D-07

 Cycle  11  Pass 1  IDiag  1:
 E= -115.032713758345     Delta-E=        0.000000000000 Rises=F Damp=F
 DIIS: error= 1.05D-08 at cycle  11 NSaved=  11.
 NSaved=11 IEnMin=11 EnMin= -115.032713758345     IErMin=11 ErrMin= 1.05D-08
 ErrMax= 1.05D-08 EMaxC= 1.00D-01 BMatC= 4.77D-15 BMatP= 1.42D-13
 IDIUse=1 WtCom= 1.00D+00 WtEn= 0.00D+00
 Coeff-Com:  0.286D-06-0.215D-05-0.119D-04-0.149D-04 0.757D-04 0.748D-03
 Coeff-Com: -0.430D-02 0.154D-01-0.314D-01-0.147D+00 0.117D+01
 Coeff:      0.286D-06-0.215D-05-0.119D-04-0.149D-04 0.757D-04 0.748D-03
 Coeff:     -0.430D-02 0.154D-01-0.314D-01-0.147D+00 0.117D+01
 Gap=     0.662 Goal=   None    Shift=    0.000
 RMSDP=4.41D-09 MaxDP=2.96D-08 DE=-3.98D-13 OVMax= 4.21D-08

 SCF Done:  E(RHF) =  -115.032713758     A.U. after   11 cycles
             Convg  =    0.4408D-08             -V/T =  2.0026
 KE= 1.147303521975D+02 PE=-3.513738085494D+02 EE= 8.140659284497D+01
 Leave Link  502 at Sat Dec 21 15:13:11 2019, MaxMem= 2684354560 cpu:       0.7
 (Enter /opt/g09gh/gaussian/g09/l601.exe)
 Copying SCF densities to generalized density rwf, IOpCl= 0 IROHF=0.

 **********************************************************************

            Population analysis using the SCF density.

 **********************************************************************

 Orbital symmetries:
       Occupied  (A) (A) (A) (A) (A) (A) (A) (A) (A)
       Virtual   (A) (A) (A) (A) (A) (A) (A) (A) (A) (A) (A) (A)
                 (A) (A) (A) (A) (A) (A) (A) (A) (A) (A) (A) (A)
                 (A) (A) (A) (A) (A)
 The electronic state is 1-A.
 Alpha  occ. eigenvalues --  -20.55424 -11.27318  -1.34446  -0.91933  -0.67937
 Alpha  occ. eigenvalues --   -0.61844  -0.58813  -0.49661  -0.44136
 Alpha virt. eigenvalues --    0.22026   0.27890   0.32111   0.32269   0.37464
 Alpha virt. eigenvalues --    0.76881   0.77436   0.78695   1.04686   1.12588
 Alpha virt. eigenvalues --    1.13310   1.17984   1.19724   1.24868   1.27330
 Alpha virt. eigenvalues --    1.41078   1.72009   1.76450   1.86950   2.04390
 Alpha virt. eigenvalues --    2.39057   2.42230   2.51760   2.66817   2.69272
 Alpha virt. eigenvalues --    2.78466   3.15473   4.11864   4.63758
          Condensed to atoms (all electrons):
              1          2          3          4          5          6
     1  O    8.385026   0.206955  -0.032899  -0.040355  -0.041127   0.259623
     2  C    0.206955   4.799454   0.397894   0.392473   0.393196  -0.026188
     3  H   -0.032899   0.397894   0.511885  -0.028739  -0.031023   0.004937
     4  H   -0.040355   0.392473  -0.028739   0.574987  -0.040047  -0.004097
     5  H   -0.041127   0.393196  -0.031023  -0.040047   0.578793  -0.004295
     6  H    0.259623  -0.026188   0.004937  -0.004097  -0.004295   0.337239
 Mulliken atomic charges:
              1
     1  O   -0.737222
     2  C   -0.163784
     3  H    0.177945
     4  H    0.145777
     5  H    0.144503
     6  H    0.432782
 Sum of Mulliken atomic charges =   0.00000
 Mulliken charges with hydrogens summed into heavy atoms:
              1
     1  O   -0.304441
     2  C    0.304441
 Sum of Mulliken charges with hydrogens summed into heavy atoms =   0.00000
 Electronic spatial extent (au):  <R**2>=             83.8861
 Charge=              0.0000 electrons
 Dipole moment (field-independent basis, Debye):
    X=              1.0203    Y=             -1.6738    Z=              0.0459  Tot=              1.9608
 Quadrupole moment (field-independent basis, Debye-Ang):
   XX=            -12.7754   YY=            -11.9531   ZZ=            -13.6329
   XY=              2.4503   XZ=             -0.0660   YZ=             -0.0146
 Traceless Quadrupole moment (field-independent basis, Debye-Ang):
   XX=              0.0117   YY=              0.8340   ZZ=             -0.8458
   XY=              2.4503   XZ=             -0.0660   YZ=             -0.0146
 Octapole moment (field-independent basis, Debye-Ang**2):
  XXX=             -4.3219  YYY=             -0.7233  ZZZ=              0.0562  XYY=             -1.7781
  XXY=             -2.2898  XXZ=              0.0742  XZZ=             -0.5534  YZZ=             -0.6680
  YYZ=             -0.0167  XYZ=              0.0697
 Hexadecapole moment (field-independent basis, Debye-Ang**3):
 XXXX=            -59.4406 YYYY=            -19.3033 ZZZZ=            -18.9622 XXXY=              4.1951
 XXXZ=             -0.1093 YYYX=              3.0504 YYYZ=              0.0007 ZZZX=              0.0036
 ZZZY=             -0.0058 XXYY=            -11.8656 XXZZ=            -13.8240 YYZZ=             -6.4753
 XXYZ=             -0.0219 YYXZ=             -0.0855 ZZXY=             -0.0562
 N-N= 4.020414974863D+01 E-N=-3.513738085321D+02  KE= 1.147303521975D+02
 No NMR shielding tensors so no spin-rotation constants.
 Leave Link  601 at Sat Dec 21 15:13:11 2019, MaxMem= 2684354560 cpu:       0.8
 (Enter /opt/g09gh/gaussian/g09/l701.exe)
 Compute integral first derivatives.
 ... and contract with generalized density number  0.
 Leave Link  701 at Sat Dec 21 15:13:11 2019, MaxMem= 2684354560 cpu:       0.8
 (Enter /opt/g09gh/gaussian/g09/l702.exe)
 L702 exits ... SP integral derivatives will be done elsewhere.
 Leave Link  702 at Sat Dec 21 15:13:11 2019, MaxMem= 2684354560 cpu:       0.1
 (Enter /opt/g09gh/gaussian/g09/l703.exe)
 Compute integral first derivatives, UseDBF=F ICtDFT=           0.
 Integral derivatives from FoFDir, PRISM(SPDF).
 Calling FoFJK, ICntrl=      2127 FMM=F ISym2X=0 I1Cent= 0 IOpClX= 0 NMat=1 NMatS=1 NMatT=0.
 FoFCou: FMM=F IPFlag=           0 FMFlag=      100000 FMFlg1=         800
         NFxFlg=           0 DoJE=F BraDBF=F KetDBF=F FulRan=T
         Omega=  0.000000  0.000000  1.000000  0.000000  0.000000 ICntrl=    2127 IOpCl=  0
         NMat0=    1 NMatS0=    1 NMatT0=    0 NMatD0=    1 NMtDS0=    0 NMtDT0=    0
         I1Cent=           0 NGrid=           0.
 Symmetry not used in FoFCou.
 Leave Link  703 at Sat Dec 21 15:13:12 2019, MaxMem= 2684354560 cpu:       0.9
 (Enter /opt/g09gh/gaussian/g09/l716.exe)
 Dipole        = 4.01417983D-01-6.58519973D-01 1.80532157D-02
 ***** Axes restored to original set *****
 -------------------------------------------------------------------
 Center     Atomic                   Forces (Hartrees/Bohr)
 Number     Number              X              Y              Z
 -------------------------------------------------------------------
      1        8          -0.003031576   -0.017655378    0.000891469
      2        6           0.022301033   -0.007308318   -0.003847724
      3        1           0.004014168   -0.011570462    0.002215880
      4        1          -0.006853338    0.007470068   -0.007079948
      5        1          -0.007163096    0.005343027    0.007835792
      6        1          -0.009267191    0.023721063   -0.000015469
 -------------------------------------------------------------------
 Cartesian Forces:  Max     0.023721063 RMS     0.010500986
 Leave Link  716 at Sat Dec 21 15:13:12 2019, MaxMem= 2684354560 cpu:       0.1
 (Enter /opt/g09gh/gaussian/g09/l103.exe)

 GradGradGradGradGradGradGradGradGradGradGradGradGradGradGradGradGradGrad
 Berny optimization.
 Internal  Forces:  Max     0.025459434 RMS     0.010266569
 Search for a local minimum.
 Step number   1 out of a maximum of  100
 All quantities printed in internal units (Hartrees-Bohrs-Radians)
 RMS Force = .10267D-01 SwitMx=.10000D-02 MixMth= 1
 Mixed Optimization -- RFO/linear search
 Second derivative matrix not updated -- first step.
 The second derivative matrix:
                          R1        R2        R3        R4        R5
           R1           0.41480
           R2           0.00000   0.53325
           R3           0.00000   0.00000   0.34181
           R4           0.00000   0.00000   0.00000   0.34144
           R5           0.00000   0.00000   0.00000   0.00000   0.34086
           A1           0.00000   0.00000   0.00000   0.00000   0.00000
           A2           0.00000   0.00000   0.00000   0.00000   0.00000
           A3           0.00000   0.00000   0.00000   0.00000   0.00000
           A4           0.00000   0.00000   0.00000   0.00000   0.00000
           A5           0.00000   0.00000   0.00000   0.00000   0.00000
           A6           0.00000   0.00000   0.00000   0.00000   0.00000
           A7           0.00000   0.00000   0.00000   0.00000   0.00000
           D1           0.00000   0.00000   0.00000   0.00000   0.00000
           D2           0.00000   0.00000   0.00000   0.00000   0.00000
           D3           0.00000   0.00000   0.00000   0.00000   0.00000
                          A1        A2        A3        A4        A5
           A1           0.16000
           A2           0.00000   0.16000
           A3           0.00000   0.00000   0.16000
           A4           0.00000   0.00000   0.00000   0.16000
           A5           0.00000   0.00000   0.00000   0.00000   0.16000
           A6           0.00000   0.00000   0.00000   0.00000   0.00000
           A7           0.00000   0.00000   0.00000   0.00000   0.00000
           D1           0.00000   0.00000   0.00000   0.00000   0.00000
           D2           0.00000   0.00000   0.00000   0.00000   0.00000
           D3           0.00000   0.00000   0.00000   0.00000   0.00000
                          A6        A7        D1        D2        D3
           A6           0.16000
           A7           0.00000   0.16000
           D1           0.00000   0.00000   0.01340
           D2           0.00000   0.00000   0.00000   0.01340
           D3           0.00000   0.00000   0.00000   0.00000   0.01340
     Eigenvalues ---    0.01340   0.10553   0.10672   0.16000   0.16000
     Eigenvalues ---    0.16000   0.16000   0.34086   0.34144   0.34181
     Eigenvalues ---    0.41480   0.533251000.000001000.000001000.00000
 RFO step:  Lambda=-5.74510521D-03 EMin= 1.33979306D-02
 Linear search not attempted -- first point.
 Iteration  1 RMS(Cart)=  0.05427087 RMS(Int)=  0.00316458
 Iteration  2 RMS(Cart)=  0.00251827 RMS(Int)=  0.00189834
 Iteration  3 RMS(Cart)=  0.00000542 RMS(Int)=  0.00189833
 Iteration  4 RMS(Cart)=  0.00000002 RMS(Int)=  0.00189833
 Variable       Old X    -DE/DX   Delta X   Delta X   Delta X     New X
                                 (Linear)    (Quad)   (Total)
    R1        2.69590  -0.01174   0.00000  -0.02792  -0.02792   2.66798
    R2        1.83352  -0.02546   0.00000  -0.04724  -0.04724   1.78628
    R3        2.07026  -0.01225   0.00000  -0.03525  -0.03525   2.03500
    R4        2.07088  -0.00768   0.00000  -0.02211  -0.02211   2.04877
    R5        2.07185  -0.00728   0.00000  -0.02102  -0.02102   2.05083
    A1        1.88362   0.00114   0.00000   0.00688   0.00688   1.89051
    A2        1.88435  -0.00498   0.00000  -0.03703  -0.03693   1.84742
    A3        1.89135   0.01204   0.00000   0.07372   0.07123   1.96258
    A4        1.88108   0.01400   0.00000   0.09028   0.08778   1.96885
    A5        1.95658  -0.00841   0.00000  -0.06265  -0.06253   1.89405
    A6        1.92479  -0.00534   0.00000  -0.03478  -0.03471   1.89009
    A7        1.92340  -0.00598   0.00000  -0.02126  -0.02562   1.89778
    D1       -3.12699  -0.00155   0.00000  -0.01394  -0.01397  -3.14097
    D2        1.03332   0.00447   0.00000   0.04025   0.04363   1.07695
    D3       -1.04794  -0.00291   0.00000  -0.02580  -0.02914  -1.07708
         Item               Value     Threshold  Converged?
 Maximum Force            0.025459     0.000450     NO 
 RMS     Force            0.010267     0.000300     NO 
 Maximum Displacement     0.095271     0.001800     NO 
 RMS     Displacement     0.053432     0.001200     NO 
 Predicted change in Energy=-2.984978D-03
 GradGradGradGradGradGradGradGradGradGradGradGradGradGradGradGradGradGrad

 Leave Link  103 at Sat Dec 21 15:13:12 2019, MaxMem= 2684354560 cpu:       0.0
 (Enter /opt/g09gh/gaussian/g09/l202.exe)
                          Input orientation:                          
 ---------------------------------------------------------------------
 Center     Atomic      Atomic             Coordinates (Angstroms)
 Number     Number       Type             X           Y           Z
 ---------------------------------------------------------------------
      1          8           0        0.739451    0.113913    0.006373
      2          6           0       -0.664333   -0.035782   -0.009765
      3          1           0       -1.066618    0.963131   -0.011752
      4          1           0       -1.035422   -0.554751    0.866804
      5          1           0       -1.022496   -0.549026   -0.896374
      6          1           0        1.130016   -0.746884    0.008014
 ---------------------------------------------------------------------
                    Distance matrix (angstroms):
                    1          2          3          4          5
     1  O    0.000000
     2  C    1.411835   0.000000
     3  H    1.995842   1.076877   0.000000
     4  H    2.082698   1.084163   1.754081   0.000000
     5  H    2.087797   1.085253   1.752461   1.763235   0.000000
     6  H    0.945259   1.930200   2.783836   2.337425   2.343155
                    6
     6  H    0.000000
 Stoichiometry    CH4O
 Framework group  C1[X(CH4O)]
 Deg. of freedom    12
 Full point group                 C1      NOp   1
 Largest Abelian subgroup         C1      NOp   1
 Largest concise Abelian subgroup C1      NOp   1
                         Standard orientation:                         
 ---------------------------------------------------------------------
 Center     Atomic      Atomic             Coordinates (Angstroms)
 Number     Number       Type             X           Y           Z
 ---------------------------------------------------------------------
      1          8           0       -0.744149    0.118134    0.000146
      2          6           0        0.660961   -0.019500   -0.000260
      3          1           0        1.054649    0.982832   -0.002217
      4          1           0        1.026204   -0.534678   -0.881510
      5          1           0        1.033875   -0.530237    0.881703
      6          1           0       -1.127301   -0.745987    0.002416
 ---------------------------------------------------------------------
 Rotational constants (GHZ):    131.3709218     25.1207052     24.2600708
 Leave Link  202 at Sat Dec 21 15:13:12 2019, MaxMem= 2684354560 cpu:       0.0
 (Enter /opt/g09gh/gaussian/g09/l301.exe)
 Standard basis: 6-31G(d) (6D, 7F)
 Ernie: Thresh=  0.10000D-02 Tol=  0.10000D-05 Strict=F.
 There are    38 symmetry adapted basis functions of A   symmetry.
 Integral buffers will be    131072 words long.
 Raffenetti 1 integral format.
 Two-electron integral symmetry is turned on.
    38 basis functions,    72 primitive gaussians,    38 cartesian basis functions
     9 alpha electrons        9 beta electrons
       nuclear repulsion energy        40.6448292248 Hartrees.
 IExCor=    0 DFT=F Ex=HF Corr=None ExCW=0 ScaHFX=  1.000000
 ScaDFX=  1.000000  1.000000  1.000000  1.000000 ScalE2=  1.000000  1.000000
 IRadAn=      0 IRanWt=     -1 IRanGd=            0 ICorTp=0
 NAtoms=    6 NActive=    6 NUniq=    6 SFac= 7.50D-01 NAtFMM=   80 NAOKFM=F Big=F
 Leave Link  301 at Sat Dec 21 15:13:12 2019, MaxMem= 2684354560 cpu:       0.3
 (Enter /opt/g09gh/gaussian/g09/l302.exe)
 NPDir=0 NMtPBC=     1 NCelOv=     1 NCel=       1 NClECP=     1 NCelD=      1
         NCelK=      1 NCelE2=     1 NClLst=     1 CellRange=     0.0.
 One-electron integrals computed using PRISM.
 NBasis=    38 RedAO= T  NBF=    38
 NBsUse=    38 1.00D-06 NBFU=    38
 Leave Link  302 at Sat Dec 21 15:13:12 2019, MaxMem= 2684354560 cpu:       0.7
 (Enter /opt/g09gh/gaussian/g09/l303.exe)
 DipDrv:  MaxL=1.
 Leave Link  303 at Sat Dec 21 15:13:12 2019, MaxMem= 2684354560 cpu:       0.1
 (Enter /opt/g09gh/gaussian/g09/l401.exe)
 Initial guess read from the read-write file.
 B after Tr=     0.000000    0.000000    0.000000
         Rot=    1.000000    0.000000    0.000000    0.000000 Ang=   0.00 deg.
 Guess basis will be translated and rotated to current coordinates.
 Initial guess orbital symmetries:
       Occupied  (A) (A) (A) (A) (A) (A) (A) (A) (A)
       Virtual   (A) (A) (A) (A) (A) (A) (A) (A) (A) (A) (A) (A)
                 (A) (A) (A) (A) (A) (A) (A) (A) (A) (A) (A) (A)
                 (A) (A) (A) (A) (A)
 The electronic state of the initial guess is 1-A.
 Generating alternative initial guess.
 Harris functional with IExCor=  205 diagonalized for initial guess.
 ExpMin= 1.61D-01 ExpMax= 5.48D+03 ExpMxC= 8.25D+02 IAcc=1 IRadAn=         1 AccDes= 0.00D+00
 HarFok:  IExCor=  205 AccDes= 0.00D+00 IRadAn=         1 IDoV= 1
 ScaDFX=  1.000000  1.000000  1.000000  1.000000
 FoFCou: FMM=F IPFlag=           0 FMFlag=      100000 FMFlg1=           0
         NFxFlg=           0 DoJE=T BraDBF=F KetDBF=T FulRan=T
         Omega=  0.000000  0.000000  1.000000  0.000000  0.000000 ICntrl=     500 IOpCl=  0
         NMat0=    1 NMatS0=    1 NMatT0=    0 NMatD0=    1 NMtDS0=    0 NMtDT0=    0
         I1Cent=           4 NGrid=           0.
 Petite list used in FoFCou.
 Harris En= -115.213891034723    
 Leave Link  401 at Sat Dec 21 15:13:12 2019, MaxMem= 2684354560 cpu:       1.2
 (Enter /opt/g09gh/gaussian/g09/l502.exe)
 Closed shell SCF:
 Requested convergence on RMS density matrix=1.00D-08 within 128 cycles.
 Requested convergence on MAX density matrix=1.00D-06.
 Requested convergence on             energy=1.00D-06.
 No special actions if energy rises.
 Using DIIS extrapolation, IDIIS=  1040.
 Integral symmetry usage will be decided dynamically.
 Keep R1 ints in memory in canonical form, NReq=1117925.
 IEnd=       23000 IEndB=       23000 NGot=  2684354560 MDV=  2684074744
 LenX=  2684074744 LenY=  2684072859
 Symmetry not used in FoFDir.
 MinBra= 0 MaxBra= 2 Meth= 1.
 IRaf=       0 NMat=   1 IRICut=       1 DoRegI=T DoRafI=F ISym2E= 0 JSym2E=0.

 Cycle   1  Pass 1  IDiag  1:
 E= -115.033314721099    
 DIIS: error= 3.97D-03 at cycle   1 NSaved=   1.
 NSaved= 1 IEnMin= 1 EnMin= -115.033314721099     IErMin= 1 ErrMin= 3.97D-03
 ErrMax= 3.97D-03 EMaxC= 1.00D-01 BMatC= 1.26D-03 BMatP= 1.26D-03
 IDIUse=3 WtCom= 9.60D-01 WtEn= 3.97D-02
 Coeff-Com:  0.100D+01
 Coeff-En:   0.100D+01
 Coeff:      0.100D+01
 Gap=     0.680 Goal=   None    Shift=    0.000
 GapD=    0.680 DampG=2.000 DampE=1.000 DampFc=2.0000 IDamp=-1.
 RMSDP=8.20D-04 MaxDP=6.42D-03              OVMax= 1.11D-02

 Cycle   2  Pass 1  IDiag  1:
 E= -115.034980857874     Delta-E=       -0.001666136775 Rises=F Damp=F
 DIIS: error= 1.34D-03 at cycle   2 NSaved=   2.
 NSaved= 2 IEnMin= 2 EnMin= -115.034980857874     IErMin= 2 ErrMin= 1.34D-03
 ErrMax= 1.34D-03 EMaxC= 1.00D-01 BMatC= 1.06D-04 BMatP= 1.26D-03
 IDIUse=3 WtCom= 9.87D-01 WtEn= 1.34D-02
 Coeff-Com: -0.751D-01 0.108D+01
 Coeff-En:   0.000D+00 0.100D+01
 Coeff:     -0.741D-01 0.107D+01
 Gap=     0.672 Goal=   None    Shift=    0.000
 RMSDP=3.18D-04 MaxDP=2.69D-03 DE=-1.67D-03 OVMax= 3.95D-03

 Cycle   3  Pass 1  IDiag  1:
 E= -115.035136866213     Delta-E=       -0.000156008339 Rises=F Damp=F
 DIIS: error= 5.83D-04 at cycle   3 NSaved=   3.
 NSaved= 3 IEnMin= 3 EnMin= -115.035136866213     IErMin= 3 ErrMin= 5.83D-04
 ErrMax= 5.83D-04 EMaxC= 1.00D-01 BMatC= 1.94D-05 BMatP= 1.06D-04
 IDIUse=3 WtCom= 9.94D-01 WtEn= 5.83D-03
 Coeff-Com: -0.928D-01 0.229D+00 0.864D+00
 Coeff-En:   0.000D+00 0.000D+00 0.100D+01
 Coeff:     -0.923D-01 0.227D+00 0.865D+00
 Gap=     0.673 Goal=   None    Shift=    0.000
 RMSDP=1.20D-04 MaxDP=1.25D-03 DE=-1.56D-04 OVMax= 1.52D-03

 Cycle   4  Pass 1  IDiag  1:
 E= -115.035160334531     Delta-E=       -0.000023468318 Rises=F Damp=F
 DIIS: error= 1.36D-04 at cycle   4 NSaved=   4.
 NSaved= 4 IEnMin= 4 EnMin= -115.035160334531     IErMin= 4 ErrMin= 1.36D-04
 ErrMax= 1.36D-04 EMaxC= 1.00D-01 BMatC= 1.19D-06 BMatP= 1.94D-05
 IDIUse=3 WtCom= 9.99D-01 WtEn= 1.36D-03
 Coeff-Com:  0.194D-02-0.798D-01 0.515D-01 0.103D+01
 Coeff-En:   0.000D+00 0.000D+00 0.000D+00 0.100D+01
 Coeff:      0.193D-02-0.797D-01 0.514D-01 0.103D+01
 Gap=     0.673 Goal=   None    Shift=    0.000
 RMSDP=4.81D-05 MaxDP=3.04D-04 DE=-2.35D-05 OVMax= 6.19D-04

 Cycle   5  Pass 1  IDiag  1:
 E= -115.035162401903     Delta-E=       -0.000002067372 Rises=F Damp=F
 DIIS: error= 4.26D-05 at cycle   5 NSaved=   5.
 NSaved= 5 IEnMin= 5 EnMin= -115.035162401903     IErMin= 5 ErrMin= 4.26D-05
 ErrMax= 4.26D-05 EMaxC= 1.00D-01 BMatC= 8.33D-08 BMatP= 1.19D-06
 IDIUse=1 WtCom= 1.00D+00 WtEn= 0.00D+00
 Coeff-Com:  0.556D-02-0.204D-01-0.496D-01 0.839D-01 0.981D+00
 Coeff:      0.556D-02-0.204D-01-0.496D-01 0.839D-01 0.981D+00
 Gap=     0.673 Goal=   None    Shift=    0.000
 RMSDP=1.41D-05 MaxDP=1.14D-04 DE=-2.07D-06 OVMax= 1.58D-04

 Cycle   6  Pass 1  IDiag  1:
 E= -115.035162561872     Delta-E=       -0.000000159968 Rises=F Damp=F
 DIIS: error= 1.30D-05 at cycle   6 NSaved=   6.
 NSaved= 6 IEnMin= 6 EnMin= -115.035162561872     IErMin= 6 ErrMin= 1.30D-05
 ErrMax= 1.30D-05 EMaxC= 1.00D-01 BMatC= 7.51D-09 BMatP= 8.33D-08
 IDIUse=1 WtCom= 1.00D+00 WtEn= 0.00D+00
 Coeff-Com:  0.139D-03 0.625D-02-0.820D-02-0.940D-01 0.393D-01 0.106D+01
 Coeff:      0.139D-03 0.625D-02-0.820D-02-0.940D-01 0.393D-01 0.106D+01
 Gap=     0.673 Goal=   None    Shift=    0.000
 RMSDP=5.34D-06 MaxDP=5.61D-05 DE=-1.60D-07 OVMax= 6.53D-05

 Cycle   7  Pass 1  IDiag  1:
 E= -115.035162580115     Delta-E=       -0.000000018244 Rises=F Damp=F
 DIIS: error= 2.94D-06 at cycle   7 NSaved=   7.
 NSaved= 7 IEnMin= 7 EnMin= -115.035162580115     IErMin= 7 ErrMin= 2.94D-06
 ErrMax= 2.94D-06 EMaxC= 1.00D-01 BMatC= 5.22D-10 BMatP= 7.51D-09
 IDIUse=1 WtCom= 1.00D+00 WtEn= 0.00D+00
 Coeff-Com: -0.430D-03-0.457D-04 0.546D-02 0.177D-01-0.813D-01-0.257D+00
 Coeff-Com:  0.132D+01
 Coeff:     -0.430D-03-0.457D-04 0.546D-02 0.177D-01-0.813D-01-0.257D+00
 Coeff:      0.132D+01
 Gap=     0.673 Goal=   None    Shift=    0.000
 RMSDP=1.80D-06 MaxDP=2.28D-05 DE=-1.82D-08 OVMax= 2.74D-05

 Cycle   8  Pass 1  IDiag  1:
 E= -115.035162581745     Delta-E=       -0.000000001629 Rises=F Damp=F
 DIIS: error= 7.35D-07 at cycle   8 NSaved=   8.
 NSaved= 8 IEnMin= 8 EnMin= -115.035162581745     IErMin= 8 ErrMin= 7.35D-07
 ErrMax= 7.35D-07 EMaxC= 1.00D-01 BMatC= 2.41D-11 BMatP= 5.22D-10
 IDIUse=1 WtCom= 1.00D+00 WtEn= 0.00D+00
 Coeff-Com:  0.869D-04-0.238D-03-0.861D-03 0.247D-03 0.170D-01 0.141D-01
 Coeff-Com: -0.331D+00 0.130D+01
 Coeff:      0.869D-04-0.238D-03-0.861D-03 0.247D-03 0.170D-01 0.141D-01
 Coeff:     -0.331D+00 0.130D+01
 Gap=     0.673 Goal=   None    Shift=    0.000
 RMSDP=4.15D-07 MaxDP=5.30D-06 DE=-1.63D-09 OVMax= 6.76D-06

 Cycle   9  Pass 1  IDiag  1:
 E= -115.035162581828     Delta-E=       -0.000000000084 Rises=F Damp=F
 DIIS: error= 1.60D-07 at cycle   9 NSaved=   9.
 NSaved= 9 IEnMin= 9 EnMin= -115.035162581828     IErMin= 9 ErrMin= 1.60D-07
 ErrMax= 1.60D-07 EMaxC= 1.00D-01 BMatC= 1.31D-12 BMatP= 2.41D-11
 IDIUse=1 WtCom= 1.00D+00 WtEn= 0.00D+00
 Coeff-Com: -0.202D-05 0.606D-04-0.499D-04-0.900D-03-0.486D-03 0.833D-02
 Coeff-Com:  0.302D-01-0.392D+00 0.135D+01
 Coeff:     -0.202D-05 0.606D-04-0.499D-04-0.900D-03-0.486D-03 0.833D-02
 Coeff:      0.302D-01-0.392D+00 0.135D+01
 Gap=     0.673 Goal=   None    Shift=    0.000
 RMSDP=9.71D-08 MaxDP=1.21D-06 DE=-8.36D-11 OVMax= 1.53D-06

 Cycle  10  Pass 1  IDiag  1:
 E= -115.035162581833     Delta-E=       -0.000000000004 Rises=F Damp=F
 DIIS: error= 3.16D-08 at cycle  10 NSaved=  10.
 NSaved=10 IEnMin=10 EnMin= -115.035162581833     IErMin=10 ErrMin= 3.16D-08
 ErrMax= 3.16D-08 EMaxC= 1.00D-01 BMatC= 3.85D-14 BMatP= 1.31D-12
 IDIUse=1 WtCom= 1.00D+00 WtEn= 0.00D+00
 Coeff-Com: -0.145D-05-0.122D-04 0.383D-04 0.244D-03-0.343D-03-0.320D-02
 Coeff-Com:  0.356D-02 0.592D-01-0.347D+00 0.129D+01
 Coeff:     -0.145D-05-0.122D-04 0.383D-04 0.244D-03-0.343D-03-0.320D-02
 Coeff:      0.356D-02 0.592D-01-0.347D+00 0.129D+01
 Gap=     0.673 Goal=   None    Shift=    0.000
 RMSDP=1.52D-08 MaxDP=1.84D-07 DE=-4.38D-12 OVMax= 2.13D-07

 Cycle  11  Pass 1  IDiag  1:
 E= -115.035162581833     Delta-E=        0.000000000000 Rises=F Damp=F
 DIIS: error= 7.32D-09 at cycle  11 NSaved=  11.
 NSaved=11 IEnMin=10 EnMin= -115.035162581833     IErMin=11 ErrMin= 7.32D-09
 ErrMax= 7.32D-09 EMaxC= 1.00D-01 BMatC= 1.81D-15 BMatP= 3.85D-14
 IDIUse=1 WtCom= 1.00D+00 WtEn= 0.00D+00
 Coeff-Com:  0.309D-06-0.281D-06-0.481D-05-0.829D-05 0.103D-03 0.207D-03
 Coeff-Com: -0.186D-02 0.511D-02 0.730D-02-0.251D+00 0.124D+01
 Coeff:      0.309D-06-0.281D-06-0.481D-05-0.829D-05 0.103D-03 0.207D-03
 Coeff:     -0.186D-02 0.511D-02 0.730D-02-0.251D+00 0.124D+01
 Gap=     0.673 Goal=   None    Shift=    0.000
 RMSDP=2.98D-09 MaxDP=2.96D-08 DE= 5.68D-14 OVMax= 3.84D-08

 SCF Done:  E(RHF) =  -115.035162582     A.U. after   11 cycles
             Convg  =    0.2984D-08             -V/T =  2.0016
 KE= 1.148550579472D+02 PE=-3.523015474493D+02 EE= 8.176649769556D+01
 Leave Link  502 at Sat Dec 21 15:13:13 2019, MaxMem= 2684354560 cpu:       0.5
 (Enter /opt/g09gh/gaussian/g09/l701.exe)
 Compute integral first derivatives.
 ... and contract with generalized density number  0.
 Leave Link  701 at Sat Dec 21 15:13:13 2019, MaxMem= 2684354560 cpu:       0.7
 (Enter /opt/g09gh/gaussian/g09/l702.exe)
 L702 exits ... SP integral derivatives will be done elsewhere.
 Leave Link  702 at Sat Dec 21 15:13:13 2019, MaxMem= 2684354560 cpu:       0.1
 (Enter /opt/g09gh/gaussian/g09/l703.exe)
 Compute integral first derivatives, UseDBF=F ICtDFT=           0.
 Integral derivatives from FoFDir, PRISM(SPDF).
 Calling FoFJK, ICntrl=      2127 FMM=F ISym2X=0 I1Cent= 0 IOpClX= 0 NMat=1 NMatS=1 NMatT=0.
 FoFCou: FMM=F IPFlag=           0 FMFlag=      100000 FMFlg1=         800
         NFxFlg=           0 DoJE=F BraDBF=F KetDBF=F FulRan=T
         Omega=  0.000000  0.000000  1.000000  0.000000  0.000000 ICntrl=    2127 IOpCl=  0
         NMat0=    1 NMatS0=    1 NMatT0=    0 NMatD0=    1 NMtDS0=    0 NMtDT0=    0
         I1Cent=           0 NGrid=           0.
 Symmetry not used in FoFCou.
 Leave Link  703 at Sat Dec 21 15:13:13 2019, MaxMem= 2684354560 cpu:       0.8
 (Enter /opt/g09gh/gaussian/g09/l716.exe)
 Dipole        = 3.80860993D-01-6.47417708D-01 1.20534515D-03
 ***** Axes restored to original set *****
 -------------------------------------------------------------------
 Center     Atomic                   Forces (Hartrees/Bohr)
 Number     Number              X              Y              Z
 -------------------------------------------------------------------
      1        8          -0.010316571   -0.004753315   -0.000574887
      2        6           0.008054627    0.005732968   -0.000085837
      3        1          -0.003173695    0.002159343    0.000195657
      4        1           0.000847430   -0.001222244    0.001857605
      5        1           0.001874086   -0.001152516   -0.001413737
      6        1           0.002714124   -0.000764235    0.000021200
 -------------------------------------------------------------------
 Cartesian Forces:  Max     0.010316571 RMS     0.003817603
 Leave Link  716 at Sat Dec 21 15:13:13 2019, MaxMem= 2684354560 cpu:       0.1
 (Enter /opt/g09gh/gaussian/g09/l103.exe)

 GradGradGradGradGradGradGradGradGradGradGradGradGradGradGradGradGradGrad
 Berny optimization.
 Using GEDIIS/GDIIS optimizer.
 Internal  Forces:  Max     0.008150441 RMS     0.003129137
 Search for a local minimum.
 Step number   2 out of a maximum of  100
 All quantities printed in internal units (Hartrees-Bohrs-Radians)
 RMS Force = .31291D-02 SwitMx=.10000D-02 MixMth= 1
 Mixed Optimization -- RFO/linear search
 Update second derivatives using D2CorX and points    1    2
 DE= -2.45D-03 DEPred=-2.98D-03 R= 8.20D-01
 SS=  1.41D+00  RLast= 1.68D-01 DXNew= 5.0454D-01 5.0282D-01
 Trust test= 8.20D-01 RLast= 1.68D-01 DXMaxT set to 5.03D-01
 The second derivative matrix:
                          R1        R2        R3        R4        R5
           R1           0.39233
           R2          -0.03823   0.53093
           R3          -0.01698   0.00882   0.35165
           R4          -0.01075   0.00470   0.00570   0.34472
           R5          -0.01054   0.00187   0.00394   0.00221   0.34217
           A1           0.00381   0.01631   0.00879   0.00542   0.00489
           A2          -0.00723   0.01269   0.00956   0.00570   0.00450
           A3           0.01616  -0.00763  -0.00890  -0.00514  -0.00350
           A4           0.01992  -0.00934  -0.01094  -0.00631  -0.00430
           A5          -0.01653  -0.01110  -0.00226  -0.00167  -0.00238
           A6          -0.00850  -0.00107   0.00163   0.00084   0.00024
           A7          -0.00466   0.01147   0.00814   0.00488   0.00394
           D1           0.00046   0.00566   0.00328   0.00201   0.00175
           D2          -0.00204  -0.02218  -0.01279  -0.00783  -0.00686
           D3           0.00159   0.01656   0.00953   0.00584   0.00512
                          A1        A2        A3        A4        A5
           A1           0.16090
           A2           0.00514   0.16763
           A3          -0.00824  -0.00879   0.16804
           A4          -0.01015  -0.01081   0.00988   0.17214
           A5           0.00547   0.00146   0.00236   0.00292   0.15246
           A6           0.00354   0.00260  -0.00139  -0.00170  -0.00262
           A7           0.00383   0.00623  -0.00751  -0.00924   0.00183
           D1           0.00069   0.00209  -0.00306  -0.00377   0.00166
           D2          -0.00259  -0.00811   0.01194   0.01470  -0.00658
           D3           0.00190   0.00603  -0.00890  -0.01096   0.00493
                          A6        A7        D1        D2        D3
           A6           0.15964
           A7           0.00238   0.16503
           D1           0.00122   0.00160   0.01377
           D2          -0.00477  -0.00621  -0.00141   0.01879
           D3           0.00356   0.00462   0.00104  -0.00399   0.01634
 Use linear search instead of GDIIS.
     Eigenvalues ---    0.01340   0.10384   0.10608   0.14897   0.16000
     Eigenvalues ---    0.16000   0.19605   0.34013   0.34149   0.34815
     Eigenvalues ---    0.39704   0.546121000.000001000.000001000.00000
 RFO step:  Lambda=-3.79333969D-04 EMin= 1.33979239D-02
 Quartic linear search produced a step of -0.12736.
 Iteration  1 RMS(Cart)=  0.01194172 RMS(Int)=  0.00019694
 Iteration  2 RMS(Cart)=  0.00010130 RMS(Int)=  0.00017770
 Iteration  3 RMS(Cart)=  0.00000000 RMS(Int)=  0.00017770
 Variable       Old X    -DE/DX   Delta X   Delta X   Delta X     New X
                                 (Linear)    (Quad)   (Total)
    R1        2.66798  -0.00815   0.00356  -0.02267  -0.01911   2.64887
    R2        1.78628   0.00182   0.00602  -0.00643  -0.00042   1.78586
    R3        2.03500   0.00319   0.00449   0.00107   0.00556   2.04056
    R4        2.04877   0.00180   0.00282   0.00016   0.00298   2.05175
    R5        2.05083   0.00108   0.00268  -0.00144   0.00124   2.05207
    A1        1.89051   0.00385  -0.00088   0.02231   0.02144   1.91194
    A2        1.84742   0.00461   0.00470   0.02029   0.02500   1.87242
    A3        1.96258  -0.00239  -0.00907  -0.00039  -0.00923   1.95335
    A4        1.96885  -0.00377  -0.01118  -0.00455  -0.01548   1.95337
    A5        1.89405  -0.00002   0.00796  -0.01009  -0.00213   1.89191
    A6        1.89009   0.00054   0.00442  -0.00142   0.00303   1.89312
    A7        1.89778   0.00131   0.00326  -0.00370  -0.00003   1.89775
    D1       -3.14097   0.00002   0.00178  -0.00251  -0.00069   3.14153
    D2        1.07695  -0.00151  -0.00556  -0.00270  -0.00858   1.06837
    D3       -1.07708   0.00151   0.00371   0.00605   0.01005  -1.06703
         Item               Value     Threshold  Converged?
 Maximum Force            0.008150     0.000450     NO 
 RMS     Force            0.003129     0.000300     NO 
 Maximum Displacement     0.025613     0.001800     NO 
 RMS     Displacement     0.011929     0.001200     NO 
 Predicted change in Energy=-2.443520D-04
 GradGradGradGradGradGradGradGradGradGradGradGradGradGradGradGradGradGrad

 Leave Link  103 at Sat Dec 21 15:13:13 2019, MaxMem= 2684354560 cpu:       0.0
 (Enter /opt/g09gh/gaussian/g09/l202.exe)
                          Input orientation:                          
 ---------------------------------------------------------------------
 Center     Atomic      Atomic             Coordinates (Angstroms)
 Number     Number       Type             X           Y           Z
 ---------------------------------------------------------------------
      1          8           0        0.732408    0.104613    0.005218
      2          6           0       -0.662899   -0.028524   -0.009399
      3          1           0       -1.080172    0.967415   -0.010655
      4          1           0       -1.029261   -0.552466    0.868150
      5          1           0       -1.011228   -0.548536   -0.896784
      6          1           0        1.131750   -0.751902    0.006770
 ---------------------------------------------------------------------
                    Distance matrix (angstroms):
                    1          2          3          4          5
     1  O    0.000000
     2  C    1.401720   0.000000
     3  H    2.007517   1.079820   0.000000
     4  H    2.068788   1.085739   1.756396   0.000000
     5  H    2.068931   1.085908   1.757295   1.765030   0.000000
     6  H    0.945037   1.935020   2.801599   2.334893   2.334550
                    6
     6  H    0.000000
 Stoichiometry    CH4O
 Framework group  C1[X(CH4O)]
 Deg. of freedom    12
 Full point group                 C1      NOp   1
 Largest Abelian subgroup         C1      NOp   1
 Largest concise Abelian subgroup C1      NOp   1
                         Standard orientation:                         
 ---------------------------------------------------------------------
 Center     Atomic      Atomic             Coordinates (Angstroms)
 Number     Number       Type             X           Y           Z
 ---------------------------------------------------------------------
      1          8           0        0.737787    0.120605   -0.000154
      2          6           0       -0.656895   -0.019686   -0.000048
      3          1           0       -1.079260    0.974104   -0.001401
      4          1           0       -1.011671   -0.541620    0.883438
      5          1           0       -1.011510   -0.545358   -0.881588
      6          1           0        1.141512   -0.733854    0.001071
 ---------------------------------------------------------------------
 Rotational constants (GHZ):    131.3966915     25.3704754     24.5014800
 Leave Link  202 at Sat Dec 21 15:13:13 2019, MaxMem= 2684354560 cpu:       0.0
 (Enter /opt/g09gh/gaussian/g09/l301.exe)
 Standard basis: 6-31G(d) (6D, 7F)
 Ernie: Thresh=  0.10000D-02 Tol=  0.10000D-05 Strict=F.
 There are    38 symmetry adapted basis functions of A   symmetry.
 Integral buffers will be    131072 words long.
 Raffenetti 1 integral format.
 Two-electron integral symmetry is turned on.
    38 basis functions,    72 primitive gaussians,    38 cartesian basis functions
     9 alpha electrons        9 beta electrons
       nuclear repulsion energy        40.7757171915 Hartrees.
 IExCor=    0 DFT=F Ex=HF Corr=None ExCW=0 ScaHFX=  1.000000
 ScaDFX=  1.000000  1.000000  1.000000  1.000000 ScalE2=  1.000000  1.000000
 IRadAn=      0 IRanWt=     -1 IRanGd=            0 ICorTp=0
 NAtoms=    6 NActive=    6 NUniq=    6 SFac= 7.50D-01 NAtFMM=   80 NAOKFM=F Big=F
 Leave Link  301 at Sat Dec 21 15:13:13 2019, MaxMem= 2684354560 cpu:       0.3
 (Enter /opt/g09gh/gaussian/g09/l302.exe)
 NPDir=0 NMtPBC=     1 NCelOv=     1 NCel=       1 NClECP=     1 NCelD=      1
         NCelK=      1 NCelE2=     1 NClLst=     1 CellRange=     0.0.
 One-electron integrals computed using PRISM.
 NBasis=    38 RedAO= T  NBF=    38
 NBsUse=    38 1.00D-06 NBFU=    38
 Leave Link  302 at Sat Dec 21 15:13:13 2019, MaxMem= 2684354560 cpu:       0.6
 (Enter /opt/g09gh/gaussian/g09/l303.exe)
 DipDrv:  MaxL=1.
 Leave Link  303 at Sat Dec 21 15:13:13 2019, MaxMem= 2684354560 cpu:       0.1
 (Enter /opt/g09gh/gaussian/g09/l401.exe)
 Initial guess read from the read-write file.
 B after Tr=     0.000000    0.000000    0.000000
         Rot=    1.000000    0.000000    0.000000    0.000000 Ang=   0.00 deg.
 Guess basis will be translated and rotated to current coordinates.
 Initial guess orbital symmetries:
       Occupied  (A) (A) (A) (A) (A) (A) (A) (A) (A)
       Virtual   (A) (A) (A) (A) (A) (A) (A) (A) (A) (A) (A) (A)
                 (A) (A) (A) (A) (A) (A) (A) (A) (A) (A) (A) (A)
                 (A) (A) (A) (A) (A)
 The electronic state of the initial guess is 1-A.
 Generating alternative initial guess.
 Harris functional with IExCor=  205 diagonalized for initial guess.
 ExpMin= 1.61D-01 ExpMax= 5.48D+03 ExpMxC= 8.25D+02 IAcc=1 IRadAn=         1 AccDes= 0.00D+00
 HarFok:  IExCor=  205 AccDes= 0.00D+00 IRadAn=         1 IDoV= 1
 ScaDFX=  1.000000  1.000000  1.000000  1.000000
 FoFCou: FMM=F IPFlag=           0 FMFlag=      100000 FMFlg1=           0
         NFxFlg=           0 DoJE=T BraDBF=F KetDBF=T FulRan=T
         Omega=  0.000000  0.000000  1.000000  0.000000  0.000000 ICntrl=     500 IOpCl=  0
         NMat0=    1 NMatS0=    1 NMatT0=    0 NMatD0=    1 NMtDS0=    0 NMtDT0=    0
         I1Cent=           4 NGrid=           0.
 Petite list used in FoFCou.
 Harris En= -115.214423099487    
 Leave Link  401 at Sat Dec 21 15:13:14 2019, MaxMem= 2684354560 cpu:       1.1
 (Enter /opt/g09gh/gaussian/g09/l502.exe)
 Closed shell SCF:
 Requested convergence on RMS density matrix=1.00D-08 within 128 cycles.
 Requested convergence on MAX density matrix=1.00D-06.
 Requested convergence on             energy=1.00D-06.
 No special actions if energy rises.
 Using DIIS extrapolation, IDIIS=  1040.
 Integral symmetry usage will be decided dynamically.
 Keep R1 ints in memory in canonical form, NReq=1117925.
 IEnd=       23000 IEndB=       23000 NGot=  2684354560 MDV=  2684074744
 LenX=  2684074744 LenY=  2684072859
 Symmetry not used in FoFDir.
 MinBra= 0 MaxBra= 2 Meth= 1.
 IRaf=       0 NMat=   1 IRICut=       1 DoRegI=T DoRafI=F ISym2E= 0 JSym2E=0.

 Cycle   1  Pass 1  IDiag  1:
 E= -112.697304194756    
 DIIS: error= 1.22D-01 at cycle   1 NSaved=   1.
 NSaved= 1 IEnMin= 1 EnMin= -112.697304194756     IErMin= 1 ErrMin= 1.22D-01
 ErrMax= 1.22D-01 EMaxC= 1.00D-01 BMatC= 5.96D-01 BMatP= 5.96D-01
 IDIUse=3 WtCom= 0.00D+00 WtEn= 1.00D+00
 Coeff-Com:  0.100D+01
 Coeff-En:   0.100D+01
 Coeff:      0.100D+01
 Recover alternate guess density for next cycle.
 RMSDP=5.80D-02 MaxDP=6.02D-01              OVMax= 0.00D+00

 Cycle   2  Pass 1  IDiag  1:
 E= -114.923602018353     Delta-E=       -2.226297823597 Rises=F Damp=F
 DIIS: error= 5.66D-02 at cycle   2 NSaved=   2.
 NSaved= 2 IEnMin= 2 EnMin= -114.923602018353     IErMin= 2 ErrMin= 5.66D-02
 ErrMax= 5.66D-02 EMaxC= 1.00D-01 BMatC= 1.69D-01 BMatP= 5.96D-01
 IDIUse=3 WtCom= 4.34D-01 WtEn= 5.66D-01
 Coeff-Com:  0.185D+00 0.815D+00
 Coeff-En:   0.000D+00 0.100D+01
 Coeff:      0.804D-01 0.920D+00
 Gap=     0.645 Goal=   None    Shift=    0.000
 RMSDP=9.62D-03 MaxDP=1.01D-01 DE=-2.23D+00 OVMax= 9.92D-02

 Cycle   3  Pass 1  IDiag  1:
 E= -115.013371502752     Delta-E=       -0.089769484398 Rises=F Damp=F
 DIIS: error= 2.46D-02 at cycle   3 NSaved=   3.
 NSaved= 3 IEnMin= 3 EnMin= -115.013371502752     IErMin= 3 ErrMin= 2.46D-02
 ErrMax= 2.46D-02 EMaxC= 1.00D-01 BMatC= 2.99D-02 BMatP= 1.69D-01
 IDIUse=3 WtCom= 7.54D-01 WtEn= 2.46D-01
 Coeff-Com:  0.289D-01 0.233D+00 0.738D+00
 Coeff-En:   0.000D+00 0.000D+00 0.100D+01
 Coeff:      0.218D-01 0.176D+00 0.803D+00
 Gap=     0.685 Goal=   None    Shift=    0.000
 RMSDP=3.78D-03 MaxDP=4.25D-02 DE=-8.98D-02 OVMax= 3.85D-02

 Cycle   4  Pass 1  IDiag  1:
 E= -115.034117415531     Delta-E=       -0.020745912779 Rises=F Damp=F
 DIIS: error= 4.99D-03 at cycle   4 NSaved=   4.
 NSaved= 4 IEnMin= 4 EnMin= -115.034117415531     IErMin= 4 ErrMin= 4.99D-03
 ErrMax= 4.99D-03 EMaxC= 1.00D-01 BMatC= 1.64D-03 BMatP= 2.99D-02
 IDIUse=3 WtCom= 9.50D-01 WtEn= 4.99D-02
 Coeff-Com: -0.670D-02-0.179D-01 0.147D+00 0.878D+00
 Coeff-En:   0.000D+00 0.000D+00 0.000D+00 0.100D+01
 Coeff:     -0.637D-02-0.171D-01 0.139D+00 0.884D+00
 Gap=     0.671 Goal=   None    Shift=    0.000
 RMSDP=7.11D-04 MaxDP=1.00D-02 DE=-2.07D-02 OVMax= 9.74D-03

 Cycle   5  Pass 1  IDiag  1:
 E= -115.035338859930     Delta-E=       -0.001221444399 Rises=F Damp=F
 DIIS: error= 1.10D-03 at cycle   5 NSaved=   5.
 NSaved= 5 IEnMin= 5 EnMin= -115.035338859930     IErMin= 5 ErrMin= 1.10D-03
 ErrMax= 1.10D-03 EMaxC= 1.00D-01 BMatC= 7.20D-05 BMatP= 1.64D-03
 IDIUse=3 WtCom= 9.89D-01 WtEn= 1.10D-02
 Coeff-Com: -0.154D-02-0.761D-02 0.199D-01 0.222D+00 0.767D+00
 Coeff-En:   0.000D+00 0.000D+00 0.000D+00 0.000D+00 0.100D+01
 Coeff:     -0.152D-02-0.753D-02 0.197D-01 0.219D+00 0.770D+00
 Gap=     0.670 Goal=   None    Shift=    0.000
 RMSDP=1.88D-04 MaxDP=1.88D-03 DE=-1.22D-03 OVMax= 2.37D-03

 Cycle   6  Pass 1  IDiag  1:
 E= -115.035402430148     Delta-E=       -0.000063570218 Rises=F Damp=F
 DIIS: error= 3.82D-04 at cycle   6 NSaved=   6.
 NSaved= 6 IEnMin= 6 EnMin= -115.035402430148     IErMin= 6 ErrMin= 3.82D-04
 ErrMax= 3.82D-04 EMaxC= 1.00D-01 BMatC= 3.29D-06 BMatP= 7.20D-05
 IDIUse=3 WtCom= 9.96D-01 WtEn= 3.82D-03
 Coeff-Com:  0.222D-03 0.163D-02-0.120D-01-0.753D-01-0.441D-02 0.109D+01
 Coeff-En:   0.000D+00 0.000D+00 0.000D+00 0.000D+00 0.000D+00 0.100D+01
 Coeff:      0.221D-03 0.163D-02-0.119D-01-0.750D-01-0.439D-02 0.109D+01
 Gap=     0.670 Goal=   None    Shift=    0.000
 RMSDP=6.71D-05 MaxDP=5.37D-04 DE=-6.36D-05 OVMax= 8.08D-04

 Cycle   7  Pass 1  IDiag  1:
 E= -115.035407182322     Delta-E=       -0.000004752174 Rises=F Damp=F
 DIIS: error= 3.85D-05 at cycle   7 NSaved=   7.
 NSaved= 7 IEnMin= 7 EnMin= -115.035407182322     IErMin= 7 ErrMin= 3.85D-05
 ErrMax= 3.85D-05 EMaxC= 1.00D-01 BMatC= 7.73D-08 BMatP= 3.29D-06
 IDIUse=1 WtCom= 1.00D+00 WtEn= 0.00D+00
 Coeff-Com:  0.590D-04 0.109D-03 0.902D-04 0.414D-03-0.223D-01-0.138D+00
 Coeff-Com:  0.116D+01
 Coeff:      0.590D-04 0.109D-03 0.902D-04 0.414D-03-0.223D-01-0.138D+00
 Coeff:      0.116D+01
 Gap=     0.671 Goal=   None    Shift=    0.000
 RMSDP=1.42D-05 MaxDP=1.04D-04 DE=-4.75D-06 OVMax= 1.75D-04

 Cycle   8  Pass 1  IDiag  1:
 E= -115.035407349311     Delta-E=       -0.000000166990 Rises=F Damp=F
 DIIS: error= 7.23D-06 at cycle   8 NSaved=   8.
 NSaved= 8 IEnMin= 8 EnMin= -115.035407349311     IErMin= 8 ErrMin= 7.23D-06
 ErrMax= 7.23D-06 EMaxC= 1.00D-01 BMatC= 2.84D-09 BMatP= 7.73D-08
 IDIUse=1 WtCom= 1.00D+00 WtEn= 0.00D+00
 Coeff-Com: -0.123D-04-0.682D-04 0.283D-03 0.230D-02 0.452D-02-0.757D-02
 Coeff-Com: -0.242D+00 0.124D+01
 Coeff:     -0.123D-04-0.682D-04 0.283D-03 0.230D-02 0.452D-02-0.757D-02
 Coeff:     -0.242D+00 0.124D+01
 Gap=     0.671 Goal=   None    Shift=    0.000
 RMSDP=2.57D-06 MaxDP=2.49D-05 DE=-1.67D-07 OVMax= 3.56D-05

 Cycle   9  Pass 1  IDiag  1:
 E= -115.035407355639     Delta-E=       -0.000000006328 Rises=F Damp=F
 DIIS: error= 1.37D-06 at cycle   9 NSaved=   9.
 NSaved= 9 IEnMin= 9 EnMin= -115.035407355639     IErMin= 9 ErrMin= 1.37D-06
 ErrMax= 1.37D-06 EMaxC= 1.00D-01 BMatC= 9.14D-11 BMatP= 2.84D-09
 IDIUse=1 WtCom= 1.00D+00 WtEn= 0.00D+00
 Coeff-Com:  0.182D-07 0.136D-04-0.447D-04-0.534D-03-0.785D-03 0.546D-02
 Coeff-Com:  0.333D-01-0.330D+00 0.129D+01
 Coeff:      0.182D-07 0.136D-04-0.447D-04-0.534D-03-0.785D-03 0.546D-02
 Coeff:      0.333D-01-0.330D+00 0.129D+01
 Gap=     0.671 Goal=   None    Shift=    0.000
 RMSDP=5.95D-07 MaxDP=4.35D-06 DE=-6.33D-09 OVMax= 6.31D-06

 Cycle  10  Pass 1  IDiag  1:
 E= -115.035407355848     Delta-E=       -0.000000000209 Rises=F Damp=F
 DIIS: error= 3.27D-07 at cycle  10 NSaved=  10.
 NSaved=10 IEnMin=10 EnMin= -115.035407355848     IErMin=10 ErrMin= 3.27D-07
 ErrMax= 3.27D-07 EMaxC= 1.00D-01 BMatC= 2.09D-12 BMatP= 9.14D-11
 IDIUse=1 WtCom= 1.00D+00 WtEn= 0.00D+00
 Coeff-Com:  0.153D-06-0.174D-05 0.546D-05 0.695D-04 0.429D-04-0.110D-02
 Coeff-Com:  0.406D-04 0.338D-01-0.263D+00 0.123D+01
 Coeff:      0.153D-06-0.174D-05 0.546D-05 0.695D-04 0.429D-04-0.110D-02
 Coeff:      0.406D-04 0.338D-01-0.263D+00 0.123D+01
 Gap=     0.671 Goal=   None    Shift=    0.000
 RMSDP=9.51D-08 MaxDP=6.42D-07 DE=-2.09D-10 OVMax= 1.29D-06

 Cycle  11  Pass 1  IDiag  1:
 E= -115.035407355854     Delta-E=       -0.000000000005 Rises=F Damp=F
 DIIS: error= 6.60D-08 at cycle  11 NSaved=  11.
 NSaved=11 IEnMin=11 EnMin= -115.035407355854     IErMin=11 ErrMin= 6.60D-08
 ErrMax= 6.60D-08 EMaxC= 1.00D-01 BMatC= 1.07D-13 BMatP= 2.09D-12
 IDIUse=1 WtCom= 1.00D+00 WtEn= 0.00D+00
 Coeff-Com: -0.222D-07-0.163D-07 0.130D-06 0.683D-06 0.243D-04 0.338D-04
 Coeff-Com: -0.960D-03 0.292D-02 0.138D-01-0.261D+00 0.125D+01
 Coeff:     -0.222D-07-0.163D-07 0.130D-06 0.683D-06 0.243D-04 0.338D-04
 Coeff:     -0.960D-03 0.292D-02 0.138D-01-0.261D+00 0.125D+01
 Gap=     0.671 Goal=   None    Shift=    0.000
 RMSDP=1.93D-08 MaxDP=1.31D-07 DE=-5.20D-12 OVMax= 2.93D-07

 Cycle  12  Pass 1  IDiag  1:
 E= -115.035407355854     Delta-E=        0.000000000000 Rises=F Damp=F
 DIIS: error= 1.47D-08 at cycle  12 NSaved=  12.
 NSaved=12 IEnMin=12 EnMin= -115.035407355854     IErMin=12 ErrMin= 1.47D-08
 ErrMax= 1.47D-08 EMaxC= 1.00D-01 BMatC= 5.61D-15 BMatP= 1.07D-13
 IDIUse=1 WtCom= 1.00D+00 WtEn= 0.00D+00
 Coeff-Com: -0.912D-08 0.932D-07-0.292D-06-0.366D-05-0.419D-05 0.519D-04
 Coeff-Com:  0.111D-03-0.213D-02 0.121D-01-0.199D-01-0.242D+00 0.125D+01
 Coeff:     -0.912D-08 0.932D-07-0.292D-06-0.366D-05-0.419D-05 0.519D-04
 Coeff:      0.111D-03-0.213D-02 0.121D-01-0.199D-01-0.242D+00 0.125D+01
 Gap=     0.671 Goal=   None    Shift=    0.000
 RMSDP=5.35D-09 MaxDP=4.28D-08 DE=-1.42D-13 OVMax= 7.40D-08

 SCF Done:  E(RHF) =  -115.035407356     A.U. after   12 cycles
             Convg  =    0.5352D-08             -V/T =  2.0015
 KE= 1.148662062317D+02 PE=-3.525705762810D+02 EE= 8.189324550187D+01
 Leave Link  502 at Sat Dec 21 15:13:14 2019, MaxMem= 2684354560 cpu:       0.5
 (Enter /opt/g09gh/gaussian/g09/l701.exe)
 Compute integral first derivatives.
 ... and contract with generalized density number  0.
 Leave Link  701 at Sat Dec 21 15:13:14 2019, MaxMem= 2684354560 cpu:       0.7
 (Enter /opt/g09gh/gaussian/g09/l702.exe)
 L702 exits ... SP integral derivatives will be done elsewhere.
 Leave Link  702 at Sat Dec 21 15:13:14 2019, MaxMem= 2684354560 cpu:       0.1
 (Enter /opt/g09gh/gaussian/g09/l703.exe)
 Compute integral first derivatives, UseDBF=F ICtDFT=           0.
 Integral derivatives from FoFDir, PRISM(SPDF).
 Calling FoFJK, ICntrl=      2127 FMM=F ISym2X=0 I1Cent= 0 IOpClX= 0 NMat=1 NMatS=1 NMatT=0.
 FoFCou: FMM=F IPFlag=           0 FMFlag=      100000 FMFlg1=         800
         NFxFlg=           0 DoJE=F BraDBF=F KetDBF=F FulRan=T
         Omega=  0.000000  0.000000  1.000000  0.000000  0.000000 ICntrl=    2127 IOpCl=  0
         NMat0=    1 NMatS0=    1 NMatT0=    0 NMatD0=    1 NMtDS0=    0 NMtDT0=    0
         I1Cent=           0 NGrid=           0.
 Symmetry not used in FoFCou.
 Leave Link  703 at Sat Dec 21 15:13:14 2019, MaxMem= 2684354560 cpu:       0.7
 (Enter /opt/g09gh/gaussian/g09/l716.exe)
 Dipole        =-3.55806816D-01-6.44566838D-01 9.79506802D-04
 ***** Axes restored to original set *****
 -------------------------------------------------------------------
 Center     Atomic                   Forces (Hartrees/Bohr)
 Number     Number              X              Y              Z
 -------------------------------------------------------------------
      1        8          -0.001903459    0.001853004   -0.000024246
      2        6           0.002579768   -0.000395468    0.000030501
      3        1          -0.000005263    0.000895193   -0.000082005
      4        1          -0.000494727   -0.000551282    0.000878836
      5        1          -0.000473037   -0.000397072   -0.000805160
      6        1           0.000296718   -0.001404375    0.000002074
 -------------------------------------------------------------------
 Cartesian Forces:  Max     0.002579768 RMS     0.001029808
 Leave Link  716 at Sat Dec 21 15:13:14 2019, MaxMem= 2684354560 cpu:       0.1
 (Enter /opt/g09gh/gaussian/g09/l103.exe)

 GradGradGradGradGradGradGradGradGradGradGradGradGradGradGradGradGradGrad
 Berny optimization.
 Using GEDIIS/GDIIS optimizer.
 Internal  Forces:  Max     0.001557008 RMS     0.000745275
 Search for a local minimum.
 Step number   3 out of a maximum of  100
 All quantities printed in internal units (Hartrees-Bohrs-Radians)
 RMS Force = .74528D-03 SwitMx=.10000D-02 MixMth= 2
 Mixed Optimization -- En-DIIS/RFO-DIIS
 Update second derivatives using D2CorX and points    1    2    3
 DE= -2.45D-04 DEPred=-2.44D-04 R= 1.00D+00
 SS=  1.41D+00  RLast= 4.48D-02 DXNew= 8.4564D-01 1.3434D-01
 Trust test= 1.00D+00 RLast= 4.48D-02 DXMaxT set to 5.03D-01
 The second derivative matrix:
                          R1        R2        R3        R4        R5
           R1           0.33510
           R2          -0.01658   0.53663
           R3           0.00391   0.00508   0.34521
           R4           0.01198   0.00537   0.00024   0.34182
           R5           0.00749   0.00409   0.00013   0.00102   0.34230
           A1           0.00767   0.00203   0.00332  -0.00446  -0.00444
           A2           0.00243  -0.00253   0.00232  -0.00561  -0.00580
           A3           0.01044  -0.00219  -0.00568  -0.00084   0.00025
           A4           0.01225  -0.00006  -0.00600   0.00077   0.00201
           A5          -0.01334  -0.00848  -0.00228  -0.00037  -0.00089
           A6          -0.00062  -0.00128  -0.00042  -0.00044  -0.00043
           A7          -0.01553   0.00825   0.00975   0.00446   0.00276
           D1           0.00421   0.00625   0.00253   0.00184   0.00186
           D2           0.00979  -0.01770  -0.01425  -0.00672  -0.00495
           D3          -0.01404   0.01143   0.01173   0.00486   0.00306
                          A1        A2        A3        A4        A5
           A1           0.17170
           A2           0.01427   0.17459
           A3          -0.01031  -0.00989   0.16782
           A4          -0.01470  -0.01387   0.01001   0.17315
           A5           0.00170  -0.00228   0.00359   0.00513   0.15334
           A6           0.00043  -0.00106   0.00007   0.00065  -0.00229
           A7           0.01076   0.01351  -0.00990  -0.01345   0.00040
           D1          -0.00136  -0.00015  -0.00226  -0.00241   0.00201
           D2          -0.01103  -0.01684   0.01477   0.01974  -0.00475
           D3           0.01247   0.01707  -0.01255  -0.01739   0.00274
                          A6        A7        D1        D2        D3
           A6           0.15911
           A7           0.00240   0.16642
           D1           0.00110   0.00130   0.01381
           D2          -0.00460  -0.00823  -0.00094   0.02163
           D3           0.00349   0.00697   0.00052  -0.00733   0.02025
 Use linear search instead of GDIIS.
     Eigenvalues ---    0.01340   0.10440   0.10665   0.15291   0.16000
     Eigenvalues ---    0.16003   0.22503   0.32654   0.34124   0.34687
     Eigenvalues ---    0.35519   0.538521000.000001000.000001000.00000
 RFO step:  Lambda=-2.46084847D-05 EMin= 1.33980144D-02
 Quartic linear search produced a step of  0.00013.
 Iteration  1 RMS(Cart)=  0.00221105 RMS(Int)=  0.00000198
 Iteration  2 RMS(Cart)=  0.00000133 RMS(Int)=  0.00000107
 Iteration  3 RMS(Cart)=  0.00000000 RMS(Int)=  0.00000107
 Variable       Old X    -DE/DX   Delta X   Delta X   Delta X     New X
                                 (Linear)    (Quad)   (Total)
    R1        2.64887  -0.00156   0.00000  -0.00484  -0.00484   2.64402
    R2        1.78586   0.00140   0.00000   0.00244   0.00244   1.78830
    R3        2.04056   0.00083   0.00000   0.00259   0.00259   2.04316
    R4        2.05175   0.00114   0.00000   0.00342   0.00342   2.05517
    R5        2.05207   0.00100   0.00000   0.00292   0.00292   2.05499
    A1        1.91194  -0.00058   0.00000  -0.00244  -0.00243   1.90951
    A2        1.87242  -0.00063   0.00000  -0.00313  -0.00312   1.86930
    A3        1.95335   0.00027   0.00000   0.00171   0.00171   1.95506
    A4        1.95337   0.00028   0.00000   0.00134   0.00134   1.95471
    A5        1.89191   0.00013   0.00000   0.00027   0.00027   1.89218
    A6        1.89312  -0.00001   0.00000  -0.00058  -0.00058   1.89254
    A7        1.89775  -0.00006   0.00000   0.00026   0.00025   1.89800
    D1        3.14153   0.00005   0.00000   0.00030   0.00030  -3.14136
    D2        1.06837   0.00013   0.00000   0.00096   0.00096   1.06933
    D3       -1.06703  -0.00019   0.00000  -0.00161  -0.00161  -1.06863
         Item               Value     Threshold  Converged?
 Maximum Force            0.001557     0.000450     NO 
 RMS     Force            0.000745     0.000300     NO 
 Maximum Displacement     0.003653     0.001800     NO 
 RMS     Displacement     0.002211     0.001200     NO 
 Predicted change in Energy=-1.230520D-05
 GradGradGradGradGradGradGradGradGradGradGradGradGradGradGradGradGradGrad

 Leave Link  103 at Sat Dec 21 15:13:14 2019, MaxMem= 2684354560 cpu:       0.0
 (Enter /opt/g09gh/gaussian/g09/l202.exe)
                          Input orientation:                          
 ---------------------------------------------------------------------
 Center     Atomic      Atomic             Coordinates (Angstroms)
 Number     Number       Type             X           Y           Z
 ---------------------------------------------------------------------
      1          8           0        0.730823    0.106193    0.005120
      2          6           0       -0.661683   -0.029313   -0.009266
      3          1           0       -1.078238    0.968413   -0.010891
      4          1           0       -1.029385   -0.553673    0.869713
      5          1           0       -1.011149   -0.549307   -0.898103
      6          1           0        1.130231   -0.751714    0.006727
 ---------------------------------------------------------------------
                    Distance matrix (angstroms):
                    1          2          3          4          5
     1  O    0.000000
     2  C    1.399157   0.000000
     3  H    2.004091   1.081194   0.000000
     4  H    2.069124   1.087549   1.759147   0.000000
     5  H    2.068806   1.087452   1.759295   1.767916   0.000000
     6  H    0.946327   1.932117   2.799373   2.334076   2.333494
                    6
     6  H    0.000000
 Stoichiometry    CH4O
 Framework group  C1[X(CH4O)]
 Deg. of freedom    12
 Full point group                 C1      NOp   1
 Largest Abelian subgroup         C1      NOp   1
 Largest concise Abelian subgroup C1      NOp   1
                         Standard orientation:                         
 ---------------------------------------------------------------------
 Center     Atomic      Atomic             Coordinates (Angstroms)
 Number     Number       Type             X           Y           Z
 ---------------------------------------------------------------------
      1          8           0        0.736668    0.120602    0.000004
      2          6           0       -0.655425   -0.019811   -0.000028
      3          1           0       -1.075489    0.976445   -0.000502
      4          1           0       -1.012467   -0.542759    0.884172
      5          1           0       -1.011931   -0.543741   -0.883744
      6          1           0        1.139093   -0.735896    0.000207
 ---------------------------------------------------------------------
 Rotational constants (GHZ):    130.9796696     25.4414575     24.5653266
 Leave Link  202 at Sat Dec 21 15:13:14 2019, MaxMem= 2684354560 cpu:       0.0
 (Enter /opt/g09gh/gaussian/g09/l301.exe)
 Standard basis: 6-31G(d) (6D, 7F)
 Ernie: Thresh=  0.10000D-02 Tol=  0.10000D-05 Strict=F.
 There are    38 symmetry adapted basis functions of A   symmetry.
 Integral buffers will be    131072 words long.
 Raffenetti 1 integral format.
 Two-electron integral symmetry is turned on.
    38 basis functions,    72 primitive gaussians,    38 cartesian basis functions
     9 alpha electrons        9 beta electrons
       nuclear repulsion energy        40.7949538058 Hartrees.
 IExCor=    0 DFT=F Ex=HF Corr=None ExCW=0 ScaHFX=  1.000000
 ScaDFX=  1.000000  1.000000  1.000000  1.000000 ScalE2=  1.000000  1.000000
 IRadAn=      0 IRanWt=     -1 IRanGd=            0 ICorTp=0
 NAtoms=    6 NActive=    6 NUniq=    6 SFac= 7.50D-01 NAtFMM=   80 NAOKFM=F Big=F
 Leave Link  301 at Sat Dec 21 15:13:14 2019, MaxMem= 2684354560 cpu:       0.3
 (Enter /opt/g09gh/gaussian/g09/l302.exe)
 NPDir=0 NMtPBC=     1 NCelOv=     1 NCel=       1 NClECP=     1 NCelD=      1
         NCelK=      1 NCelE2=     1 NClLst=     1 CellRange=     0.0.
 One-electron integrals computed using PRISM.
 NBasis=    38 RedAO= T  NBF=    38
 NBsUse=    38 1.00D-06 NBFU=    38
 Leave Link  302 at Sat Dec 21 15:13:15 2019, MaxMem= 2684354560 cpu:       0.7
 (Enter /opt/g09gh/gaussian/g09/l303.exe)
 DipDrv:  MaxL=1.
 Leave Link  303 at Sat Dec 21 15:13:15 2019, MaxMem= 2684354560 cpu:       0.1
 (Enter /opt/g09gh/gaussian/g09/l401.exe)
 Initial guess read from the read-write file.
 B after Tr=     0.000000    0.000000    0.000000
         Rot=    1.000000    0.000000    0.000000    0.000000 Ang=   0.00 deg.
 Guess basis will be translated and rotated to current coordinates.
 Initial guess orbital symmetries:
       Occupied  (A) (A) (A) (A) (A) (A) (A) (A) (A)
       Virtual   (A) (A) (A) (A) (A) (A) (A) (A) (A) (A) (A) (A)
                 (A) (A) (A) (A) (A) (A) (A) (A) (A) (A) (A) (A)
                 (A) (A) (A) (A) (A)
 The electronic state of the initial guess is 1-A.
 Leave Link  401 at Sat Dec 21 15:13:15 2019, MaxMem= 2684354560 cpu:       0.4
 (Enter /opt/g09gh/gaussian/g09/l502.exe)
 Closed shell SCF:
 Requested convergence on RMS density matrix=1.00D-08 within 128 cycles.
 Requested convergence on MAX density matrix=1.00D-06.
 Requested convergence on             energy=1.00D-06.
 No special actions if energy rises.
 Using DIIS extrapolation, IDIIS=  1040.
 Integral symmetry usage will be decided dynamically.
 Keep R1 ints in memory in canonical form, NReq=1117925.
 IEnd=       23000 IEndB=       23000 NGot=  2684354560 MDV=  2684074744
 LenX=  2684074744 LenY=  2684072859
 Symmetry not used in FoFDir.
 MinBra= 0 MaxBra= 2 Meth= 1.
 IRaf=       0 NMat=   1 IRICut=       1 DoRegI=T DoRafI=F ISym2E= 0 JSym2E=0.

 Cycle   1  Pass 1  IDiag  1:
 E= -115.035410753871    
 DIIS: error= 2.97D-04 at cycle   1 NSaved=   1.
 NSaved= 1 IEnMin= 1 EnMin= -115.035410753871     IErMin= 1 ErrMin= 2.97D-04
 ErrMax= 2.97D-04 EMaxC= 1.00D-01 BMatC= 4.83D-06 BMatP= 4.83D-06
 IDIUse=3 WtCom= 9.97D-01 WtEn= 2.97D-03
 Coeff-Com:  0.100D+01
 Coeff-En:   0.100D+01
 Coeff:      0.100D+01
 Gap=     0.670 Goal=   None    Shift=    0.000
 RMSDP=5.92D-05 MaxDP=3.97D-04              OVMax= 6.63D-04

 Cycle   2  Pass 1  IDiag  1:
 E= -115.035417123189     Delta-E=       -0.000006369318 Rises=F Damp=F
 DIIS: error= 5.69D-05 at cycle   2 NSaved=   2.
 NSaved= 2 IEnMin= 2 EnMin= -115.035417123189     IErMin= 2 ErrMin= 5.69D-05
 ErrMax= 5.69D-05 EMaxC= 1.00D-01 BMatC= 2.98D-07 BMatP= 4.83D-06
 IDIUse=1 WtCom= 1.00D+00 WtEn= 0.00D+00
 Coeff-Com: -0.154D+00 0.115D+01
 Coeff:     -0.154D+00 0.115D+01
 Gap=     0.670 Goal=   None    Shift=    0.000
 RMSDP=1.78D-05 MaxDP=1.62D-04 DE=-6.37D-06 OVMax= 1.99D-04

 Cycle   3  Pass 1  IDiag  1:
 E= -115.035417565006     Delta-E=       -0.000000441817 Rises=F Damp=F
 DIIS: error= 2.43D-05 at cycle   3 NSaved=   3.
 NSaved= 3 IEnMin= 3 EnMin= -115.035417565006     IErMin= 3 ErrMin= 2.43D-05
 ErrMax= 2.43D-05 EMaxC= 1.00D-01 BMatC= 1.93D-08 BMatP= 2.98D-07
[...]
 ErrMax= 5.96D-06 EMaxC= 1.00D-01 BMatC= 1.46D-09 BMatP= 1.17D-08
 IDIUse=1 WtCom= 1.00D+00 WtEn= 0.00D+00
 Coeff-Com: -0.509D-01 0.114D+00 0.936D+00
 Coeff:     -0.509D-01 0.114D+00 0.936D+00
 Gap=     0.670 Goal=   None    Shift=    0.000
 RMSDP=1.12D-06 MaxDP=8.47D-06 DE=-1.58D-08 OVMax= 1.19D-05

 Cycle   4  Pass 1  IDiag  1:
 E= -115.035418284204     Delta-E=       -0.000000001903 Rises=F Damp=F
 DIIS: error= 1.45D-06 at cycle   4 NSaved=   4.
 NSaved= 4 IEnMin= 4 EnMin= -115.035418284204     IErMin= 4 ErrMin= 1.45D-06
 ErrMax= 1.45D-06 EMaxC= 1.00D-01 BMatC= 1.13D-10 BMatP= 1.46D-09
 IDIUse=1 WtCom= 1.00D+00 WtEn= 0.00D+00
 Coeff-Com: -0.982D-03-0.586D-01 0.699D-01 0.990D+00
 Coeff:     -0.982D-03-0.586D-01 0.699D-01 0.990D+00
 Gap=     0.670 Goal=   None    Shift=    0.000
 RMSDP=4.76D-07 MaxDP=3.63D-06 DE=-1.90D-09 OVMax= 5.42D-06

 Cycle   5  Pass 1  IDiag  1:
 E= -115.035418284412     Delta-E=       -0.000000000208 Rises=F Damp=F
 DIIS: error= 4.76D-07 at cycle   5 NSaved=   5.
 NSaved= 5 IEnMin= 5 EnMin= -115.035418284412     IErMin= 5 ErrMin= 4.76D-07
 ErrMax= 4.76D-07 EMaxC= 1.00D-01 BMatC= 1.25D-11 BMatP= 1.13D-10
 IDIUse=1 WtCom= 1.00D+00 WtEn= 0.00D+00
 Coeff-Com:  0.380D-02-0.910D-02-0.779D-01 0.180D-01 0.107D+01
 Coeff:      0.380D-02-0.910D-02-0.779D-01 0.180D-01 0.107D+01
 Gap=     0.670 Goal=   None    Shift=    0.000
 RMSDP=1.96D-07 MaxDP=1.46D-06 DE=-2.08D-10 OVMax= 2.37D-06

 Cycle   6  Pass 1  IDiag  1:
 E= -115.035418284438     Delta-E=       -0.000000000026 Rises=F Damp=F
 DIIS: error= 1.35D-07 at cycle   6 NSaved=   6.
 NSaved= 6 IEnMin= 6 EnMin= -115.035418284438     IErMin= 6 ErrMin= 1.35D-07
 ErrMax= 1.35D-07 EMaxC= 1.00D-01 BMatC= 1.63D-12 BMatP= 1.25D-11
 IDIUse=1 WtCom= 1.00D+00 WtEn= 0.00D+00
 Coeff-Com:  0.611D-03 0.604D-02-0.228D-01-0.119D+00 0.199D+00 0.936D+00
 Coeff:      0.611D-03 0.604D-02-0.228D-01-0.119D+00 0.199D+00 0.936D+00
 Gap=     0.670 Goal=   None    Shift=    0.000
 RMSDP=6.71D-08 MaxDP=5.73D-07 DE=-2.64D-11 OVMax= 9.28D-07

 Cycle   7  Pass 1  IDiag  1:
 E= -115.035418284441     Delta-E=       -0.000000000003 Rises=F Damp=F
 DIIS: error= 3.52D-08 at cycle   7 NSaved=   7.
 NSaved= 7 IEnMin= 7 EnMin= -115.035418284441     IErMin= 7 ErrMin= 3.52D-08
 ErrMax= 3.52D-08 EMaxC= 1.00D-01 BMatC= 8.22D-14 BMatP= 1.63D-12
 IDIUse=1 WtCom= 1.00D+00 WtEn= 0.00D+00
 Coeff-Com: -0.447D-03-0.407D-03 0.110D-01 0.227D-01-0.130D+00-0.191D+00
 Coeff-Com:  0.129D+01
 Coeff:     -0.447D-03-0.407D-03 0.110D-01 0.227D-01-0.130D+00-0.191D+00
 Coeff:      0.129D+01
 Gap=     0.670 Goal=   None    Shift=    0.000
 RMSDP=2.35D-08 MaxDP=2.54D-07 DE=-2.98D-12 OVMax= 3.71D-07

 Cycle   8  Pass 1  IDiag  1:
 E= -115.035418284442     Delta-E=        0.000000000000 Rises=F Damp=F
 DIIS: error= 7.74D-09 at cycle   8 NSaved=   8.
 NSaved= 8 IEnMin= 8 EnMin= -115.035418284442     IErMin= 8 ErrMin= 7.74D-09
 ErrMax= 7.74D-09 EMaxC= 1.00D-01 BMatC= 3.58D-15 BMatP= 8.22D-14
 IDIUse=1 WtCom= 1.00D+00 WtEn= 0.00D+00
 Coeff-Com:  0.103D-03-0.147D-03-0.219D-02-0.135D-02 0.305D-01 0.158D-01
 Coeff-Com: -0.397D+00 0.135D+01
 Coeff:      0.103D-03-0.147D-03-0.219D-02-0.135D-02 0.305D-01 0.158D-01
 Coeff:     -0.397D+00 0.135D+01
 Gap=     0.670 Goal=   None    Shift=    0.000
 RMSDP=5.46D-09 MaxDP=5.98D-08 DE=-1.71D-13 OVMax= 8.54D-08

 SCF Done:  E(RHF) =  -115.035418284     A.U. after    8 cycles
             Convg  =    0.5465D-08             -V/T =  2.0015
 KE= 1.148612431491D+02 PE=-3.525823088965D+02 EE= 8.190089495174D+01
 Leave Link  502 at Sat Dec 21 15:13:16 2019, MaxMem= 2684354560 cpu:       0.5
 (Enter /opt/g09gh/gaussian/g09/l701.exe)
 Compute integral first derivatives.
 ... and contract with generalized density number  0.
 Leave Link  701 at Sat Dec 21 15:13:17 2019, MaxMem= 2684354560 cpu:       0.8
 (Enter /opt/g09gh/gaussian/g09/l702.exe)
 L702 exits ... SP integral derivatives will be done elsewhere.
 Leave Link  702 at Sat Dec 21 15:13:17 2019, MaxMem= 2684354560 cpu:       0.1
 (Enter /opt/g09gh/gaussian/g09/l703.exe)
 Compute integral first derivatives, UseDBF=F ICtDFT=           0.
 Integral derivatives from FoFDir, PRISM(SPDF).
 Calling FoFJK, ICntrl=      2127 FMM=F ISym2X=0 I1Cent= 0 IOpClX= 0 NMat=1 NMatS=1 NMatT=0.
 FoFCou: FMM=F IPFlag=           0 FMFlag=      100000 FMFlg1=         800
         NFxFlg=           0 DoJE=F BraDBF=F KetDBF=F FulRan=T
         Omega=  0.000000  0.000000  1.000000  0.000000  0.000000 ICntrl=    2127 IOpCl=  0
         NMat0=    1 NMatS0=    1 NMatT0=    0 NMatD0=    1 NMtDS0=    0 NMtDT0=    0
         I1Cent=           0 NGrid=           0.
 Symmetry not used in FoFCou.
 Leave Link  703 at Sat Dec 21 15:13:17 2019, MaxMem= 2684354560 cpu:       1.0
 (Enter /opt/g09gh/gaussian/g09/l716.exe)
 Dipole        =-3.51787562D-01-6.44639889D-01-2.62931499D-05
 ***** Axes restored to original set *****
 -------------------------------------------------------------------
 Center     Atomic                   Forces (Hartrees/Bohr)
 Number     Number              X              Y              Z
 -------------------------------------------------------------------
      1        8          -0.000019865   -0.000044291   -0.000007140
      2        6          -0.000027290   -0.000018680    0.000022796
      3        1           0.000054879   -0.000038154   -0.000000837
      4        1           0.000031374    0.000018273   -0.000040253
      5        1           0.000031823    0.000012006    0.000024757
      6        1          -0.000070921    0.000070847    0.000000678
 -------------------------------------------------------------------
 Cartesian Forces:  Max     0.000070921 RMS     0.000035937
 Leave Link  716 at Sat Dec 21 15:13:17 2019, MaxMem= 2684354560 cpu:       0.1
 (Enter /opt/g09gh/gaussian/g09/l103.exe)

 GradGradGradGradGradGradGradGradGradGradGradGradGradGradGradGradGradGrad
 Berny optimization.
 Using GEDIIS/GDIIS optimizer.
 Internal  Forces:  Max     0.000094176 RMS     0.000046079
 Search for a local minimum.
 Step number   5 out of a maximum of  100
 All quantities printed in internal units (Hartrees-Bohrs-Radians)
 RMS Force = .46079D-04 SwitMx=.10000D-02 MixMth= 2
 Mixed Optimization -- En-DIIS/RFO-DIIS
 Swaping is turned off.
 Update second derivatives using D2CorX and points    1    2    3    4    5
 DE= -6.87D-07 DEPred=-8.25D-07 R= 8.32D-01
 Trust test= 8.32D-01 RLast= 2.67D-03 DXMaxT set to 5.03D-01
 The second derivative matrix:
                          R1        R2        R3        R4        R5
           R1           0.41790
           R2          -0.00222   0.54440
           R3           0.00430   0.00939   0.34790
           R4           0.01086   0.00818   0.00285   0.34350
           R5           0.00954   0.00577   0.00222   0.00152   0.34136
           A1           0.04448   0.00984   0.00493  -0.00397  -0.00337
           A2           0.03393   0.00824   0.00656  -0.00261  -0.00363
           A3           0.02161  -0.00606  -0.00760  -0.00485  -0.00412
           A4           0.03594  -0.00067  -0.00690  -0.00284  -0.00198
           A5          -0.04050  -0.00933  -0.00095   0.00262   0.00131
           A6          -0.03179   0.00176   0.00239   0.00568   0.00554
           A7          -0.02840  -0.00040   0.00454   0.00085   0.00142
           D1           0.00387   0.00915   0.00392   0.00370   0.00372
           D2          -0.00904  -0.01101  -0.00917  -0.00008   0.00017
           D3           0.00526   0.00205   0.00530  -0.00352  -0.00371
                          A1        A2        A3        A4        A5
           A1           0.18846
           A2           0.02755   0.18200
           A3          -0.00588  -0.00644   0.16587
           A4          -0.00476  -0.00573   0.00872   0.17440
           A5          -0.01053  -0.01347   0.00211   0.00017   0.16060
           A6          -0.01254  -0.01170   0.00097  -0.00166   0.00478
           A7           0.00676   0.01429  -0.00892  -0.01405   0.00404
           D1          -0.00125   0.00037  -0.00175  -0.00155   0.00185
           D2          -0.01967  -0.02617   0.01442   0.01743  -0.00046
           D3           0.02114   0.02616  -0.01254  -0.01569  -0.00150
                          A6        A7        D1        D2        D3
           A6           0.16352
           A7           0.00331   0.16132
           D1           0.00042   0.00013   0.01391
           D2          -0.00055  -0.00427  -0.00076   0.02322
           D3          -0.00013   0.00383   0.00022  -0.00910   0.02234
     Eigenvalues ---    0.01339   0.10429   0.10595   0.15485   0.15919
     Eigenvalues ---    0.16343   0.23023   0.34061   0.34322   0.35040
     Eigenvalues ---    0.45164   0.546241000.000001000.000001000.00000
 En-DIIS/RFO-DIIS IScMMF=        0 using points:     5    4    3
 RFO step:  Lambda=-4.96765783D-08.
 DIIS coeffs:      0.79132      0.17814      0.03054
 Iteration  1 RMS(Cart)=  0.00018879 RMS(Int)=  0.00000006
 Iteration  2 RMS(Cart)=  0.00000001 RMS(Int)=  0.00000006
 Variable       Old X    -DE/DX   Delta X   Delta X   Delta X     New X
                                  (DIIS)     (GDIIS)  (Total)
    R1        2.64491  -0.00009  -0.00004  -0.00008  -0.00012   2.64479
    R2        1.78839  -0.00009  -0.00009  -0.00006  -0.00016   1.78823
    R3        2.04305  -0.00006  -0.00006  -0.00009  -0.00015   2.04291
    R4        2.05511  -0.00005  -0.00009  -0.00005  -0.00015   2.05497
    R5        2.05507  -0.00004  -0.00011   0.00000  -0.00010   2.05496
    A1        1.91045  -0.00006  -0.00012  -0.00014  -0.00026   1.91019
    A2        1.87064  -0.00004  -0.00019   0.00003  -0.00015   1.87049
    A3        1.95545  -0.00001  -0.00013   0.00009  -0.00005   1.95541
    A4        1.95553  -0.00002  -0.00021   0.00009  -0.00012   1.95541
    A5        1.89166   0.00003   0.00010   0.00004   0.00014   1.89180
    A6        1.89168   0.00003   0.00020  -0.00007   0.00013   1.89181
    A7        1.89678   0.00002   0.00025  -0.00019   0.00006   1.89684
    D1       -3.14140   0.00000   0.00000  -0.00002  -0.00002  -3.14142
    D2        1.06886   0.00000   0.00007  -0.00014  -0.00007   1.06879
    D3       -1.06840   0.00000   0.00000  -0.00003  -0.00003  -1.06843
         Item               Value     Threshold  Converged?
 Maximum Force            0.000094     0.000450     YES
 RMS     Force            0.000046     0.000300     YES
 Maximum Displacement     0.000550     0.001800     YES
 RMS     Displacement     0.000189     0.001200     YES
 Predicted change in Energy=-4.025297D-08
 Optimization completed.
    -- Stationary point found.
                           ----------------------------
                           !   Optimized Parameters   !
                           ! (Angstroms and Degrees)  !
 --------------------------                            --------------------------
 ! Name  Definition              Value          Derivative Info.                !
 --------------------------------------------------------------------------------
 ! R1    R(1,2)                  1.3996         -DE/DX =   -0.0001              !
 ! R2    R(1,6)                  0.9464         -DE/DX =   -0.0001              !
 ! R3    R(2,3)                  1.0811         -DE/DX =   -0.0001              !
 ! R4    R(2,4)                  1.0875         -DE/DX =   -0.0001              !
 ! R5    R(2,5)                  1.0875         -DE/DX =    0.0                 !
 ! A1    A(2,1,6)              109.4607         -DE/DX =   -0.0001              !
 ! A2    A(1,2,3)              107.18           -DE/DX =    0.0                 !
 ! A3    A(1,2,4)              112.0392         -DE/DX =    0.0                 !
 ! A4    A(1,2,5)              112.0435         -DE/DX =    0.0                 !
 ! A5    A(3,2,4)              108.384          -DE/DX =    0.0                 !
 ! A6    A(3,2,5)              108.3853         -DE/DX =    0.0                 !
 ! A7    A(4,2,5)              108.6775         -DE/DX =    0.0                 !
 ! D1    D(6,1,2,3)           -179.9888         -DE/DX =    0.0                 !
 ! D2    D(6,1,2,4)             61.2412         -DE/DX =    0.0                 !
 ! D3    D(6,1,2,5)            -61.2147         -DE/DX =    0.0                 !
 --------------------------------------------------------------------------------
 GradGradGradGradGradGradGradGradGradGradGradGradGradGradGradGradGradGrad

 Largest change from initial coordinates is atom    5       2.278 Angstoms.
 Leave Link  103 at Sat Dec 21 15:13:17 2019, MaxMem= 2684354560 cpu:       0.0
 (Enter /opt/g09gh/gaussian/g09/l202.exe)
                          Input orientation:                          
 ---------------------------------------------------------------------
 Center     Atomic      Atomic             Coordinates (Angstroms)
 Number     Number       Type             X           Y           Z
 ---------------------------------------------------------------------
      1          8           0        0.731519    0.105887    0.005176
      2          6           0       -0.661511   -0.029044   -0.009293
      3          1           0       -1.078945    0.968255   -0.010967
      4          1           0       -1.029845   -0.553561    0.869292
      5          1           0       -1.011991   -0.549072   -0.897763
      6          1           0        1.131371   -0.751865    0.006855
 ---------------------------------------------------------------------
                    Distance matrix (angstroms):
                    1          2          3          4          5
     1  O    0.000000
     2  C    1.399624   0.000000
     3  H    2.005422   1.081138   0.000000
     4  H    2.069776   1.087520   1.758747   0.000000
     5  H    2.069806   1.087495   1.758741   1.767151   0.000000
     6  H    0.946373   1.933173   2.800826   2.335375   2.335265
                    6
     6  H    0.000000
 Stoichiometry    CH4O
 Framework group  C1[X(CH4O)]
 Deg. of freedom    12
 Full point group                 C1      NOp   1
 Largest Abelian subgroup         C1      NOp   1
 Largest concise Abelian subgroup C1      NOp   1
                         Standard orientation:                         
 ---------------------------------------------------------------------
 Center     Atomic      Atomic             Coordinates (Angstroms)
 Number     Number       Type             X           Y           Z
 ---------------------------------------------------------------------
      1          8           0        0.737003    0.120610   -0.000001
      2          6           0       -0.655566   -0.019737   -0.000006
      3          1           0       -1.076870    0.975935   -0.000206
      4          1           0       -1.012962   -0.543214    0.883702
      5          1           0       -1.012982   -0.543594   -0.883450
      6          1           0        1.140184   -0.735584   -0.000003
 ---------------------------------------------------------------------
 Rotational constants (GHZ):    131.0639863     25.4195011     24.5445683
 Leave Link  202 at Sat Dec 21 15:13:17 2019, MaxMem= 2684354560 cpu:       0.0
 (Enter /opt/g09gh/gaussian/g09/l601.exe)
 Copying SCF densities to generalized density rwf, IOpCl= 0 IROHF=0.

 **********************************************************************

            Population analysis using the SCF density.

 **********************************************************************

 Orbital symmetries:
       Occupied  (A) (A) (A) (A) (A) (A) (A) (A) (A)
       Virtual   (A) (A) (A) (A) (A) (A) (A) (A) (A) (A) (A) (A)
                 (A) (A) (A) (A) (A) (A) (A) (A) (A) (A) (A) (A)
                 (A) (A) (A) (A) (A)
 The electronic state is 1-A.
 Alpha  occ. eigenvalues --  -20.55540 -11.26677  -1.36026  -0.92682  -0.69362
 Alpha  occ. eigenvalues --   -0.62084  -0.59534  -0.49731  -0.44328
 Alpha virt. eigenvalues --    0.22683   0.28031   0.32377   0.33056   0.38756
 Alpha virt. eigenvalues --    0.76238   0.77454   0.79851   1.05522   1.13000
 Alpha virt. eigenvalues --    1.15182   1.18941   1.21799   1.25376   1.27025
 Alpha virt. eigenvalues --    1.40974   1.72481   1.77529   1.87145   2.03238
 Alpha virt. eigenvalues --    2.38748   2.45610   2.47777   2.70440   2.75577
 Alpha virt. eigenvalues --    2.82368   3.16732   4.13600   4.64215
          Condensed to atoms (all electrons):
              1          2          3          4          5          6
     1  O    8.357392   0.219306  -0.036916  -0.038677  -0.038666   0.263704
     2  C    0.219306   4.784411   0.402838   0.393206   0.393201  -0.026459
     3  H   -0.036916   0.402838   0.521752  -0.033760  -0.033756   0.005437
     4  H   -0.038677   0.393206  -0.033760   0.587023  -0.044281  -0.004016
     5  H   -0.038666   0.393201  -0.033756  -0.044281   0.587012  -0.004020
     6  H    0.263704  -0.026459   0.005437  -0.004016  -0.004020   0.328128
 Mulliken atomic charges:
              1
     1  O   -0.726143
     2  C   -0.166504
     3  H    0.174405
     4  H    0.140505
     5  H    0.140511
     6  H    0.437226
 Sum of Mulliken atomic charges =   0.00000
 Mulliken charges with hydrogens summed into heavy atoms:
              1
     1  O   -0.288917
     2  C    0.288917
 Sum of Mulliken charges with hydrogens summed into heavy atoms =   0.00000
 Electronic spatial extent (au):  <R**2>=             82.7234
 Charge=              0.0000 electrons
 Dipole moment (field-independent basis, Debye):
    X=             -0.8942    Y=             -1.6385    Z=             -0.0001  Tot=              1.8666
 Quadrupole moment (field-independent basis, Debye-Ang):
   XX=            -12.5711   YY=            -12.0523   ZZ=            -13.6330
   XY=             -2.3473   XZ=              0.0001   YZ=              0.0000
 Traceless Quadrupole moment (field-independent basis, Debye-Ang):
   XX=              0.1810   YY=              0.6998   ZZ=             -0.8809
   XY=             -2.3473   XZ=              0.0001   YZ=              0.0000
 Octapole moment (field-independent basis, Debye-Ang**2):
  XXX=              4.4006  YYY=             -0.7265  ZZZ=              0.0001  XYY=              1.8906
  XXY=             -2.4135  XXZ=             -0.0002  XZZ=              0.5879  YZZ=             -0.5718
  YYZ=             -0.0003  XYZ=              0.0000
 Hexadecapole moment (field-independent basis, Debye-Ang**3):
 XXXX=            -58.0176 YYYY=            -18.8672 ZZZZ=            -18.8110 XXXY=             -3.9632
 XXXZ=              0.0003 YYYX=             -2.9136 YYYZ=              0.0000 ZZZX=             -0.0002
 ZZZY=              0.0000 XXYY=            -11.7850 XXZZ=            -13.4988 YYZZ=             -6.4148
 XXYZ=              0.0000 YYXZ=              0.0004 ZZXY=             -0.0015
 N-N= 4.078475251129D+01 E-N=-3.525823088746D+02  KE= 1.148612431491D+02
 No NMR shielding tensors so no spin-rotation constants.
 Leave Link  601 at Sat Dec 21 15:13:17 2019, MaxMem= 2684354560 cpu:       0.8
 (Enter /opt/g09gh/gaussian/g09/l9999.exe)
 1\1\GINC-G2-NODE38\FOpt\RHF\6-31G(d)\C1H4O1\BDW2292\21-Dec-2019\0\\#P 
 opt=(,maxcycle=400) HF/6-31G* MaxDisk=100GB\\methanol Rotatable Bond O
 ptimization on bme-nova.bme.utexas.edu\\0,1\O,0.7315191745,0.105886650
 8,0.0051758103\C,-0.6615105484,-0.0290441129,-0.0092927141\H,-1.078944
 8495,0.9682547987,-0.010966967\H,-1.0298447453,-0.5535609595,0.8692922
 659\H,-1.0119914339,-0.5490715091,-0.8977631836\H,1.1313714025,-0.7518
 648681,0.0068547885\\Version=EM64L-G09RevA.02\State=1-A\HF=-115.035418
 3\RMSD=5.465e-09\RMSF=3.594e-05\Dipole=-0.3542548,-0.6432648,-0.005382
 4\Quadrupole=0.1210485,0.5338641,-0.6549126,-1.7435307,0.0031187,-0.01
 43494\PG=C01 [X(C1H4O1)]\\@


 "A LITTLE BIT GOES A LONG WAY"
 R.S. MULLIKEN AS QUOTED BY K. RUEDENBERG
 Job cpu time:  0 days  0 hours  0 minutes 25.7 seconds.
 File lengths (MBytes):  RWF=      5 Int=      0 D2E=      0 Chk=      1 Scr=      1
 Normal termination of Gaussian 09 at Sat Dec 21 15:13:17 2019.
