 Entering Gaussian System, Link 0=g09
 Input=methanol-opt-6-1-2-3-331.com
 Output=methanol-opt-6-1-2-3-331.log
 Initial command:
 /opt/g09gh/gaussian/g09/l1.exe /scratch/bdw2292/Gau-methanol/Gau-5784.inp -scrdir=/scratch/bdw2292/Gau-methanol/
 Entering Link 1 = /opt/g09gh/gaussian/g09/l1.exe PID=      5785.
  
 Copyright (c) 1988,1990,1992,1993,1995,1998,2003,2009, Gaussian, Inc.
                  All Rights Reserved.
  
 This is part of the Gaussian(R) 09 program.  It is based on
 the Gaussian(R) 03 system (copyright 2003, Gaussian, Inc.),
 the Gaussian(R) 98 system (copyright 1998, Gaussian, Inc.),
 the Gaussian(R) 94 system (copyright 1995, Gaussian, Inc.),
 the Gaussian 92(TM) system (copyright 1992, Gaussian, Inc.),
 the Gaussian 90(TM) system (copyright 1990, Gaussian, Inc.),
 the Gaussian 88(TM) system (copyright 1988, Gaussian, Inc.),
 the Gaussian 86(TM) system (copyright 1986, Carnegie Mellon
 University), and the Gaussian 82(TM) system (copyright 1983,
 Carnegie Mellon University). Gaussian is a federally registered
 trademark of Gaussian, Inc.
  
 This software contains proprietary and confidential information,
 including trade secrets, belonging to Gaussian, Inc.
  
 This software is provided under written license and may be
 used, copied, transmitted, or stored only in accord with that
 written license.
  
 The following legend is applicable only to US Government
 contracts under FAR:
  
                    RESTRICTED RIGHTS LEGEND
  
 Use, reproduction and disclosure by the US Government is
 subject to restrictions as set forth in subparagraphs (a)
 and (c) of the Commercial Computer Software - Restricted
 Rights clause in FAR 52.227-19.
  
 Gaussian, Inc.
 340 Quinnipiac St., Bldg. 40, Wallingford CT 06492
  
  
 ---------------------------------------------------------------
 Warning -- This program may not be used in any manner that
 competes with the business of Gaussian, Inc. or will provide
 assistance to any competitor of Gaussian, Inc.  The licensee
 of this program is prohibited from giving any competitor of
 Gaussian, Inc. access to this program.  By using this program,
 the user acknowledges that Gaussian, Inc. is engaged in the
 business of creating and licensing software in the field of
 computational chemistry and represents and warrants to the
 licensee that it is not a competitor of Gaussian, Inc. and that
 it will not use this program in any manner prohibited above.
 ---------------------------------------------------------------
  

 Cite this work as:
 Gaussian 09, Revision A.02,
 M. J. Frisch, G. W. Trucks, H. B. Schlegel, G. E. Scuseria, 
 M. A. Robb, J. R. Cheeseman, G. Scalmani, V. Barone, B. Mennucci, 
 G. A. Petersson, H. Nakatsuji, M. Caricato, X. Li, H. P. Hratchian, 
 A. F. Izmaylov, J. Bloino, G. Zheng, J. L. Sonnenberg, M. Hada, 
 M. Ehara, K. Toyota, R. Fukuda, J. Hasegawa, M. Ishida, T. Nakajima, 
 Y. Honda, O. Kitao, H. Nakai, T. Vreven, J. A. Montgomery, Jr., 
 J. E. Peralta, F. Ogliaro, M. Bearpark, J. J. Heyd, E. Brothers, 
 K. N. Kudin, V. N. Staroverov, R. Kobayashi, J. Normand, 
 K. Raghavachari, A. Rendell, J. C. Burant, S. S. Iyengar, J. Tomasi, 
 M. Cossi, N. Rega, J. M. Millam, M. Klene, J. E. Knox, J. B. Cross, 
 V. Bakken, C. Adamo, J. Jaramillo, R. Gomperts, R. E. Stratmann, 
 O. Yazyev, A. J. Austin, R. Cammi, C. Pomelli, J. W. Ochterski, 
 R. L. Martin, K. Morokuma, V. G. Zakrzewski, G. A. Voth, 
 P. Salvador, J. J. Dannenberg, S. Dapprich, A. D. Daniels, 
 O. Farkas, J. B. Foresman, J. V. Ortiz, J. Cioslowski, 
 and D. J. Fox, Gaussian, Inc., Wallingford CT, 2009.
 
 ******************************************
 Gaussian 09:  EM64L-G09RevA.02 11-Jun-2009
                21-Dec-2019 
 ******************************************
 %RWF=/scratch/bdw2292/Gau-methanol/,100GB
 %Nosave
 %Chk=methanol-opt-6-1-2-3-331.chk
 %Mem=20GB
 %Nproc=4
 Will use up to    4 processors via shared memory.
 ----------------------------------------------
 #P opt=(,maxcycle=400) HF/6-31G* MaxDisk=100GB
 ----------------------------------------------
 1/6=400,18=20,19=15,38=1/1,3;
 2/9=110,12=2,17=6,18=5,40=1/2;
 3/5=1,6=6,7=1,11=9,16=1,25=1,30=1,71=1/1,2,3;
 4//1;
 5/5=2,38=5/2;
 6/7=2,8=2,9=2,10=2,28=1/1;
 7//1,2,3,16;
 1/6=400,18=20,19=15/3(2);
 2/9=110/2;
 99//99;
 2/9=110/2;
 3/5=1,6=6,7=1,11=9,16=1,25=1,30=1,71=1/1,2,3;
 4/5=5,16=3/1;
 5/5=2,38=5/2;
 7//1,2,3,16;
 1/6=400,18=20,19=15/3(-5);
 2/9=110/2;
 6/7=2,8=2,9=2,10=2,19=2,28=1/1;
 99/9=1/99;
 Leave Link    1 at Sat Dec 21 15:13:17 2019, MaxMem= 2684354560 cpu:       0.1
 (Enter /opt/g09gh/gaussian/g09/l101.exe)
 ---------------------------------------------------------------
 methanol Rotatable Bond Optimization on bme-nova.bme.utexas.edu
 ---------------------------------------------------------------
 Symbolic Z-matrix:
 Charge =  0 Multiplicity = 1
 O                     0.73392   0.1112   -0.00974 
 C                    -0.68766  -0.01168   0.00959 
 H                    -0.96839  -0.94512  -0.49123 
 H                    -1.10941   0.86534  -0.4936 
 H                    -1.00201  -0.03759   1.05947 
 H                     1.11356  -0.78155  -0.01339 
 
 NAtoms=      6 NQM=      6 NQMF=      0 NMic=      0 NMicF=      0 NTot=      6.
                    Isotopes and Nuclear Properties:
 (Nuclear quadrupole moments (NQMom) in fm**2, nuclear magnetic moments (NMagM)
  in nuclear magnetons)

  Atom         1           2           3           4           5           6
 IAtWgt=          16          12           1           1           1           1
 AtmWgt=  15.9949146  12.0000000   1.0078250   1.0078250   1.0078250   1.0078250
 NucSpn=           0           0           1           1           1           1
 AtZEff=   0.0000000   0.0000000   0.0000000   0.0000000   0.0000000   0.0000000
 NQMom=    0.0000000   0.0000000   0.0000000   0.0000000   0.0000000   0.0000000
 NMagM=    0.0000000   0.0000000   2.7928460   2.7928460   2.7928460   2.7928460
 Leave Link  101 at Sat Dec 21 15:13:17 2019, MaxMem= 2684354560 cpu:       0.2
 (Enter /opt/g09gh/gaussian/g09/l103.exe)

 GradGradGradGradGradGradGradGradGradGradGradGradGradGradGradGradGradGrad
 Berny optimization.
 Initialization pass.
                           ----------------------------
                           !    Initial Parameters    !
                           ! (Angstroms and Degrees)  !
 --------------------------                            --------------------------
 ! Name  Definition              Value          Derivative Info.                !
 --------------------------------------------------------------------------------
 ! R1    R(1,2)                  1.427          estimate D2E/DX2                !
 ! R2    R(1,6)                  0.9701         estimate D2E/DX2                !
 ! R3    R(2,3)                  1.0959         estimate D2E/DX2                !
 ! R4    R(2,4)                  1.0956         estimate D2E/DX2                !
 ! R5    R(2,5)                  1.0962         estimate D2E/DX2                !
 ! A1    A(2,1,6)              108.0979         estimate D2E/DX2                !
 ! A2    A(1,2,3)              108.8051         estimate D2E/DX2                !
 ! A3    A(1,2,4)              107.9592         estimate D2E/DX2                !
 ! A4    A(1,2,5)              107.4977         estimate D2E/DX2                !
 ! A5    A(3,2,4)              111.9228         estimate D2E/DX2                !
 ! A6    A(3,2,5)              110.1267         estimate D2E/DX2                !
 ! A7    A(4,2,5)              110.3897         estimate D2E/DX2                !
 ! D1    D(6,1,2,3)            -29.1991         estimate D2E/DX2                !
 ! D2    D(6,1,2,4)           -150.8665         estimate D2E/DX2                !
 ! D3    D(6,1,2,5)             90.0422         estimate D2E/DX2                !
 --------------------------------------------------------------------------------
 Trust Radius=3.00D-01 FncErr=1.00D-07 GrdErr=1.00D-07
 Number of steps in this run= 100 maximum allowed number of steps= 100.
 GradGradGradGradGradGradGradGradGradGradGradGradGradGradGradGradGradGrad

 Leave Link  103 at Sat Dec 21 15:13:17 2019, MaxMem= 2684354560 cpu:       0.0
 (Enter /opt/g09gh/gaussian/g09/l202.exe)
                          Input orientation:                          
 ---------------------------------------------------------------------
 Center     Atomic      Atomic             Coordinates (Angstroms)
 Number     Number       Type             X           Y           Z
 ---------------------------------------------------------------------
      1          8           0        0.733922    0.111201   -0.009738
      2          6           0       -0.687664   -0.011684    0.009588
      3          1           0       -0.968388   -0.945123   -0.491234
      4          1           0       -1.109412    0.865343   -0.493600
      5          1           0       -1.002014   -0.037589    1.059469
      6          1           0        1.113555   -0.781547   -0.013385
 ---------------------------------------------------------------------
                    Distance matrix (angstroms):
                    1          2          3          4          5
     1  O    0.000000
     2  C    1.427018   0.000000
     3  H    2.060466   1.095873   0.000000
     4  H    2.049569   1.095557   1.815952   0.000000
     5  H    2.044215   1.096238   1.797061   1.799679   0.000000
     6  H    0.970120   1.958981   2.142331   2.807924   2.485985
                    6
     6  H    0.000000
 Stoichiometry    CH4O
 Framework group  C1[X(CH4O)]
 Deg. of freedom    12
 Full point group                 C1      NOp   1
 Largest Abelian subgroup         C1      NOp   1
 Largest concise Abelian subgroup C1      NOp   1
                         Standard orientation:                         
 ---------------------------------------------------------------------
 Center     Atomic      Atomic             Coordinates (Angstroms)
 Number     Number       Type             X           Y           Z
 ---------------------------------------------------------------------
      1          8           0       -0.743926   -0.129955   -0.000103
      2          6           0        0.675162    0.020253   -0.002931
      3          1           0        0.930325    0.956021   -0.512995
      4          1           0        1.106111   -0.851394   -0.507669
      5          1           0        1.004675    0.058175    1.041924
      6          1           0       -1.140680    0.755320   -0.002856
 ---------------------------------------------------------------------
 Rotational constants (GHZ):    124.4955980     24.8910596     23.9235744
 Leave Link  202 at Sat Dec 21 15:13:17 2019, MaxMem= 2684354560 cpu:       0.0
 (Enter /opt/g09gh/gaussian/g09/l301.exe)
 Standard basis: 6-31G(d) (6D, 7F)
 Ernie: Thresh=  0.10000D-02 Tol=  0.10000D-05 Strict=F.
 There are    38 symmetry adapted basis functions of A   symmetry.
 Integral buffers will be    131072 words long.
 Raffenetti 1 integral format.
 Two-electron integral symmetry is turned on.
    38 basis functions,    72 primitive gaussians,    38 cartesian basis functions
     9 alpha electrons        9 beta electrons
       nuclear repulsion energy        40.1953119755 Hartrees.
 IExCor=    0 DFT=F Ex=HF Corr=None ExCW=0 ScaHFX=  1.000000
 ScaDFX=  1.000000  1.000000  1.000000  1.000000 ScalE2=  1.000000  1.000000
 IRadAn=      0 IRanWt=     -1 IRanGd=            0 ICorTp=0
 NAtoms=    6 NActive=    6 NUniq=    6 SFac= 7.50D-01 NAtFMM=   80 NAOKFM=F Big=F
 Leave Link  301 at Sat Dec 21 15:13:17 2019, MaxMem= 2684354560 cpu:       0.2
 (Enter /opt/g09gh/gaussian/g09/l302.exe)
 NPDir=0 NMtPBC=     1 NCelOv=     1 NCel=       1 NClECP=     1 NCelD=      1
         NCelK=      1 NCelE2=     1 NClLst=     1 CellRange=     0.0.
 One-electron integrals computed using PRISM.
 NBasis=    38 RedAO= T  NBF=    38
 NBsUse=    38 1.00D-06 NBFU=    38
 Leave Link  302 at Sat Dec 21 15:13:18 2019, MaxMem= 2684354560 cpu:       0.4
 (Enter /opt/g09gh/gaussian/g09/l303.exe)
 DipDrv:  MaxL=1.
 Leave Link  303 at Sat Dec 21 15:13:18 2019, MaxMem= 2684354560 cpu:       0.1
 (Enter /opt/g09gh/gaussian/g09/l401.exe)
 Harris functional with IExCor=  205 diagonalized for initial guess.
 ExpMin= 1.61D-01 ExpMax= 5.48D+03 ExpMxC= 8.25D+02 IAcc=1 IRadAn=         1 AccDes= 0.00D+00
 HarFok:  IExCor=  205 AccDes= 0.00D+00 IRadAn=         1 IDoV= 1
 ScaDFX=  1.000000  1.000000  1.000000  1.000000
 FoFCou: FMM=F IPFlag=           0 FMFlag=      100000 FMFlg1=           0
         NFxFlg=           0 DoJE=T BraDBF=F KetDBF=T FulRan=T
         Omega=  0.000000  0.000000  1.000000  0.000000  0.000000 ICntrl=     500 IOpCl=  0
         NMat0=    1 NMatS0=    1 NMatT0=    0 NMatD0=    1 NMtDS0=    0 NMtDT0=    0
         I1Cent=           4 NGrid=           0.
 Petite list used in FoFCou.
 Harris En= -115.209321333040    
 Initial guess orbital symmetries:
       Occupied  (A) (A) (A) (A) (A) (A) (A) (A) (A)
       Virtual   (A) (A) (A) (A) (A) (A) (A) (A) (A) (A) (A) (A)
                 (A) (A) (A) (A) (A) (A) (A) (A) (A) (A) (A) (A)
                 (A) (A) (A) (A) (A)
 The electronic state of the initial guess is 1-A.
 Leave Link  401 at Sat Dec 21 15:13:18 2019, MaxMem= 2684354560 cpu:       0.6
 (Enter /opt/g09gh/gaussian/g09/l502.exe)
 Closed shell SCF:
 Requested convergence on RMS density matrix=1.00D-08 within 128 cycles.
 Requested convergence on MAX density matrix=1.00D-06.
 Requested convergence on             energy=1.00D-06.
 No special actions if energy rises.
 Using DIIS extrapolation, IDIIS=  1040.
 Integral symmetry usage will be decided dynamically.
 Keep R1 ints in memory in canonical form, NReq=1117925.
 IEnd=       23000 IEndB=       23000 NGot=  2684354560 MDV=  2684074744
 LenX=  2684074744 LenY=  2684072859
 Symmetry not used in FoFDir.
 MinBra= 0 MaxBra= 2 Meth= 1.
 IRaf=       0 NMat=   1 IRICut=       1 DoRegI=T DoRafI=F ISym2E= 0 JSym2E=0.

 Cycle   1  Pass 1  IDiag  1:
 E= -114.923411228034    
 DIIS: error= 4.94D-02 at cycle   1 NSaved=   1.
 NSaved= 1 IEnMin= 1 EnMin= -114.923411228034     IErMin= 1 ErrMin= 4.94D-02
 ErrMax= 4.94D-02 EMaxC= 1.00D-01 BMatC= 1.66D-01 BMatP= 1.66D-01
 IDIUse=3 WtCom= 5.06D-01 WtEn= 4.94D-01
 Coeff-Com:  0.100D+01
 Coeff-En:   0.100D+01
 Coeff:      0.100D+01
 Gap=     0.645 Goal=   None    Shift=    0.000
 GapD=    0.645 DampG=2.000 DampE=0.500 DampFc=1.0000 IDamp=-1.
 RMSDP=9.25D-03 MaxDP=9.98D-02              OVMax= 1.01D-01

 Cycle   2  Pass 1  IDiag  1:
 E= -115.011621103173     Delta-E=       -0.088209875138 Rises=F Damp=F
 DIIS: error= 2.58D-02 at cycle   2 NSaved=   2.
 NSaved= 2 IEnMin= 2 EnMin= -115.011621103173     IErMin= 2 ErrMin= 2.58D-02
 ErrMax= 2.58D-02 EMaxC= 1.00D-01 BMatC= 2.81D-02 BMatP= 1.66D-01
 IDIUse=3 WtCom= 7.42D-01 WtEn= 2.58D-01
 Coeff-Com:  0.241D+00 0.759D+00
 Coeff-En:   0.000D+00 0.100D+01
 Coeff:      0.179D+00 0.821D+00
 Gap=     0.682 Goal=   None    Shift=    0.000
 RMSDP=3.72D-03 MaxDP=4.39D-02 DE=-8.82D-02 OVMax= 3.67D-02

 Cycle   3  Pass 1  IDiag  1:
 E= -115.030284836324     Delta-E=       -0.018663733151 Rises=F Damp=F
 DIIS: error= 6.34D-03 at cycle   3 NSaved=   3.
 NSaved= 3 IEnMin= 3 EnMin= -115.030284836324     IErMin= 3 ErrMin= 6.34D-03
 ErrMax= 6.34D-03 EMaxC= 1.00D-01 BMatC= 2.02D-03 BMatP= 2.81D-02
 IDIUse=3 WtCom= 9.37D-01 WtEn= 6.34D-02
 Coeff-Com: -0.165D-01 0.182D+00 0.835D+00
 Coeff-En:   0.000D+00 0.000D+00 0.100D+01
 Coeff:     -0.155D-01 0.170D+00 0.845D+00
 Gap=     0.656 Goal=   None    Shift=    0.000
 RMSDP=7.80D-04 MaxDP=1.20D-02 DE=-1.87D-02 OVMax= 1.03D-02

 Cycle   4  Pass 1  IDiag  1:
 E= -115.031748396739     Delta-E=       -0.001463560415 Rises=F Damp=F
 DIIS: error= 1.08D-03 at cycle   4 NSaved=   4.
 NSaved= 4 IEnMin= 4 EnMin= -115.031748396739     IErMin= 4 ErrMin= 1.08D-03
 ErrMax= 1.08D-03 EMaxC= 1.00D-01 BMatC= 6.63D-05 BMatP= 2.02D-03
 IDIUse=3 WtCom= 9.89D-01 WtEn= 1.08D-02
 Coeff-Com: -0.752D-02 0.214D-01 0.210D+00 0.776D+00
 Coeff-En:   0.000D+00 0.000D+00 0.000D+00 0.100D+01
 Coeff:     -0.744D-02 0.212D-01 0.208D+00 0.778D+00
 Gap=     0.657 Goal=   None    Shift=    0.000
 RMSDP=1.72D-04 MaxDP=1.85D-03 DE=-1.46D-03 OVMax= 2.20D-03

 Cycle   5  Pass 1  IDiag  1:
 E= -115.031805012744     Delta-E=       -0.000056616005 Rises=F Damp=F
 DIIS: error= 2.68D-04 at cycle   5 NSaved=   5.
 NSaved= 5 IEnMin= 5 EnMin= -115.031805012744     IErMin= 5 ErrMin= 2.68D-04
 ErrMax= 2.68D-04 EMaxC= 1.00D-01 BMatC= 2.77D-06 BMatP= 6.63D-05
 IDIUse=3 WtCom= 9.97D-01 WtEn= 2.68D-03
 Coeff-Com:  0.177D-02-0.172D-01-0.791D-01-0.323D-01 0.113D+01
 Coeff-En:   0.000D+00 0.000D+00 0.000D+00 0.000D+00 0.100D+01
 Coeff:      0.176D-02-0.171D-01-0.789D-01-0.322D-01 0.113D+01
 Gap=     0.658 Goal=   None    Shift=    0.000
 RMSDP=6.24D-05 MaxDP=5.29D-04 DE=-5.66D-05 OVMax= 6.91D-04

 Cycle   6  Pass 1  IDiag  1:
 E= -115.031809198636     Delta-E=       -0.000004185892 Rises=F Damp=F
 DIIS: error= 3.85D-05 at cycle   6 NSaved=   6.
 NSaved= 6 IEnMin= 6 EnMin= -115.031809198636     IErMin= 6 ErrMin= 3.85D-05
 ErrMax= 3.85D-05 EMaxC= 1.00D-01 BMatC= 6.56D-08 BMatP= 2.77D-06
 IDIUse=1 WtCom= 1.00D+00 WtEn= 0.00D+00
 Coeff-Com:  0.157D-03 0.220D-03-0.136D-02-0.275D-01-0.102D+00 0.113D+01
 Coeff:      0.157D-03 0.220D-03-0.136D-02-0.275D-01-0.102D+00 0.113D+01
 Gap=     0.658 Goal=   None    Shift=    0.000
 RMSDP=1.34D-05 MaxDP=1.27D-04 DE=-4.19D-06 OVMax= 1.61D-04

 Cycle   7  Pass 1  IDiag  1:
 E= -115.031809352780     Delta-E=       -0.000000154145 Rises=F Damp=F
 DIIS: error= 7.54D-06 at cycle   7 NSaved=   7.
 NSaved= 7 IEnMin= 7 EnMin= -115.031809352780     IErMin= 7 ErrMin= 7.54D-06
 ErrMax= 7.54D-06 EMaxC= 1.00D-01 BMatC= 3.57D-09 BMatP= 6.56D-08
 IDIUse=1 WtCom= 1.00D+00 WtEn= 0.00D+00
 Coeff-Com: -0.119D-03 0.677D-03 0.404D-02 0.798D-02-0.159D-01-0.338D+00
 Coeff-Com:  0.134D+01
 Coeff:     -0.119D-03 0.677D-03 0.404D-02 0.798D-02-0.159D-01-0.338D+00
 Coeff:      0.134D+01
 Gap=     0.658 Goal=   None    Shift=    0.000
 RMSDP=3.98D-06 MaxDP=4.60D-05 DE=-1.54D-07 OVMax= 5.84D-05

 Cycle   8  Pass 1  IDiag  1:
 E= -115.031809362351     Delta-E=       -0.000000009571 Rises=F Damp=F
 DIIS: error= 1.81D-06 at cycle   8 NSaved=   8.
 NSaved= 8 IEnMin= 8 EnMin= -115.031809362351     IErMin= 8 ErrMin= 1.81D-06
 ErrMax= 1.81D-06 EMaxC= 1.00D-01 BMatC= 1.09D-10 BMatP= 3.57D-09
 IDIUse=1 WtCom= 1.00D+00 WtEn= 0.00D+00
 Coeff-Com:  0.328D-04-0.222D-03-0.129D-02-0.208D-02 0.730D-02 0.966D-01
 Coeff-Com: -0.506D+00 0.141D+01
 Coeff:      0.328D-04-0.222D-03-0.129D-02-0.208D-02 0.730D-02 0.966D-01
 Coeff:     -0.506D+00 0.141D+01
 Gap=     0.658 Goal=   None    Shift=    0.000
 RMSDP=8.37D-07 MaxDP=6.70D-06 DE=-9.57D-09 OVMax= 1.23D-05

 Cycle   9  Pass 1  IDiag  1:
 E= -115.031809362678     Delta-E=       -0.000000000327 Rises=F Damp=F
 DIIS: error= 2.51D-07 at cycle   9 NSaved=   9.
 NSaved= 9 IEnMin= 9 EnMin= -115.031809362678     IErMin= 9 ErrMin= 2.51D-07
 ErrMax= 2.51D-07 EMaxC= 1.00D-01 BMatC= 2.54D-12 BMatP= 1.09D-10
 IDIUse=1 WtCom= 1.00D+00 WtEn= 0.00D+00
 Coeff-Com: -0.385D-05 0.299D-04 0.167D-03 0.164D-03-0.133D-02-0.870D-02
 Coeff-Com:  0.642D-01-0.281D+00 0.123D+01
 Coeff:     -0.385D-05 0.299D-04 0.167D-03 0.164D-03-0.133D-02-0.870D-02
 Coeff:      0.642D-01-0.281D+00 0.123D+01
 Gap=     0.658 Goal=   None    Shift=    0.000
 RMSDP=8.92D-08 MaxDP=7.79D-07 DE=-3.27D-10 OVMax= 1.27D-06

 Cycle  10  Pass 1  IDiag  1:
 E= -115.031809362685     Delta-E=       -0.000000000007 Rises=F Damp=F
 DIIS: error= 4.91D-08 at cycle  10 NSaved=  10.
 NSaved=10 IEnMin=10 EnMin= -115.031809362685     IErMin=10 ErrMin= 4.91D-08
 ErrMax= 4.91D-08 EMaxC= 1.00D-01 BMatC= 1.55D-13 BMatP= 2.54D-12
 IDIUse=1 WtCom= 1.00D+00 WtEn= 0.00D+00
 Coeff-Com: -0.750D-06 0.432D-05 0.265D-04 0.722D-04-0.865D-04-0.270D-02
 Coeff-Com:  0.100D-01-0.794D-02-0.263D+00 0.126D+01
 Coeff:     -0.750D-06 0.432D-05 0.265D-04 0.722D-04-0.865D-04-0.270D-02
 Coeff:      0.100D-01-0.794D-02-0.263D+00 0.126D+01
 Gap=     0.658 Goal=   None    Shift=    0.000
 RMSDP=2.49D-08 MaxDP=1.94D-07 DE=-6.82D-12 OVMax= 3.06D-07

 Cycle  11  Pass 1  IDiag  1:
 E= -115.031809362685     Delta-E=        0.000000000000 Rises=F Damp=F
 DIIS: error= 1.12D-08 at cycle  11 NSaved=  11.
 NSaved=11 IEnMin=11 EnMin= -115.031809362685     IErMin=11 ErrMin= 1.12D-08
 ErrMax= 1.12D-08 EMaxC= 1.00D-01 BMatC= 6.70D-15 BMatP= 1.55D-13
 IDIUse=1 WtCom= 1.00D+00 WtEn= 0.00D+00
 Coeff-Com:  0.326D-06-0.243D-05-0.134D-04-0.176D-04 0.840D-04 0.882D-03
 Coeff-Com: -0.497D-02 0.171D-01-0.294D-01-0.185D+00 0.120D+01
 Coeff:      0.326D-06-0.243D-05-0.134D-04-0.176D-04 0.840D-04 0.882D-03
 Coeff:     -0.497D-02 0.171D-01-0.294D-01-0.185D+00 0.120D+01
 Gap=     0.658 Goal=   None    Shift=    0.000
 RMSDP=5.82D-09 MaxDP=5.25D-08 DE=-8.53D-14 OVMax= 7.72D-08

 SCF Done:  E(RHF) =  -115.031809363     A.U. after   11 cycles
             Convg  =    0.5822D-08             -V/T =  2.0026
 KE= 1.147316214153D+02 PE=-3.513602622820D+02 EE= 8.140151952848D+01
 Leave Link  502 at Sat Dec 21 15:13:18 2019, MaxMem= 2684354560 cpu:       0.4
 (Enter /opt/g09gh/gaussian/g09/l601.exe)
 Copying SCF densities to generalized density rwf, IOpCl= 0 IROHF=0.

 **********************************************************************

            Population analysis using the SCF density.

 **********************************************************************

 Orbital symmetries:
       Occupied  (A) (A) (A) (A) (A) (A) (A) (A) (A)
       Virtual   (A) (A) (A) (A) (A) (A) (A) (A) (A) (A) (A) (A)
                 (A) (A) (A) (A) (A) (A) (A) (A) (A) (A) (A) (A)
                 (A) (A) (A) (A) (A)
 The electronic state is 1-A.
 Alpha  occ. eigenvalues --  -20.55378 -11.27298  -1.34405  -0.91932  -0.68051
 Alpha  occ. eigenvalues --   -0.61651  -0.58798  -0.49727  -0.44039
 Alpha virt. eigenvalues --    0.21740   0.27784   0.32126   0.32468   0.38003
 Alpha virt. eigenvalues --    0.76782   0.77053   0.78668   1.06071   1.12296
 Alpha virt. eigenvalues --    1.13051   1.17318   1.19788   1.24832   1.27325
 Alpha virt. eigenvalues --    1.42680   1.72101   1.76188   1.84471   2.04762
 Alpha virt. eigenvalues --    2.39832   2.45599   2.49533   2.64425   2.68593
 Alpha virt. eigenvalues --    2.81612   3.15456   4.12137   4.63881
          Condensed to atoms (all electrons):
              1          2          3          4          5          6
     1  O    8.388781   0.205329  -0.033782  -0.035730  -0.045027   0.260523
     2  C    0.205329   4.797648   0.392342   0.397448   0.394693  -0.026238
     3  H   -0.033782   0.392342   0.574184  -0.026904  -0.037506  -0.008950
     4  H   -0.035730   0.397448  -0.026904   0.522867  -0.035881   0.004603
     5  H   -0.045027   0.394693  -0.037506  -0.035881   0.570954   0.000453
     6  H    0.260523  -0.026238  -0.008950   0.004603   0.000453   0.334820
 Mulliken atomic charges:
              1
     1  O   -0.740093
     2  C   -0.161223
     3  H    0.140617
     4  H    0.173597
     5  H    0.152314
     6  H    0.434789
 Sum of Mulliken atomic charges =   0.00000
 Mulliken charges with hydrogens summed into heavy atoms:
              1
     1  O   -0.305304
     2  C    0.305304
 Sum of Mulliken charges with hydrogens summed into heavy atoms =   0.00000
 Electronic spatial extent (au):  <R**2>=             83.9304
 Charge=              0.0000 electrons
 Dipole moment (field-independent basis, Debye):
    X=              1.0046    Y=              1.7238    Z=             -0.0499  Tot=              1.9958
 Quadrupole moment (field-independent basis, Debye-Ang):
   XX=            -12.7767   YY=            -11.9753   ZZ=            -13.5971
   XY=             -2.3862   XZ=             -0.0740   YZ=              0.0411
 Traceless Quadrupole moment (field-independent basis, Debye-Ang):
   XX=              0.0063   YY=              0.8077   ZZ=             -0.8141
   XY=             -2.3862   XZ=             -0.0740   YZ=              0.0411
 Octapole moment (field-independent basis, Debye-Ang**2):
  XXX=             -4.3971  YYY=              1.3201  ZZZ=              0.4278  XYY=             -1.8913
  XXY=              2.4206  XXZ=             -0.1232  XZZ=             -0.4596  YZZ=              0.1913
  YYZ=             -0.5406  XYZ=              0.1253
 Hexadecapole moment (field-independent basis, Debye-Ang**3):
 XXXX=            -59.5274 YYYY=            -19.3314 ZZZZ=            -18.7827 XXXY=             -4.0372
 XXXZ=             -0.1969 YYYX=             -2.3869 YYYZ=              0.0033 ZZZX=              0.4588
 ZZZY=              0.0976 XXYY=            -12.0648 XXZZ=            -13.6488 YYZZ=             -6.5085
 XXYZ=              0.2044 YYXZ=             -0.6051 ZZXY=             -0.4760
 N-N= 4.019531197552D+01 E-N=-3.513602622606D+02  KE= 1.147316214153D+02
 No NMR shielding tensors so no spin-rotation constants.
 Leave Link  601 at Sat Dec 21 15:13:18 2019, MaxMem= 2684354560 cpu:       0.5
 (Enter /opt/g09gh/gaussian/g09/l701.exe)
 Compute integral first derivatives.
 ... and contract with generalized density number  0.
 Leave Link  701 at Sat Dec 21 15:13:18 2019, MaxMem= 2684354560 cpu:       0.5
 (Enter /opt/g09gh/gaussian/g09/l702.exe)
 L702 exits ... SP integral derivatives will be done elsewhere.
 Leave Link  702 at Sat Dec 21 15:13:18 2019, MaxMem= 2684354560 cpu:       0.1
 (Enter /opt/g09gh/gaussian/g09/l703.exe)
 Compute integral first derivatives, UseDBF=F ICtDFT=           0.
 Integral derivatives from FoFDir, PRISM(SPDF).
 Calling FoFJK, ICntrl=      2127 FMM=F ISym2X=0 I1Cent= 0 IOpClX= 0 NMat=1 NMatS=1 NMatT=0.
 FoFCou: FMM=F IPFlag=           0 FMFlag=      100000 FMFlg1=         800
         NFxFlg=           0 DoJE=F BraDBF=F KetDBF=F FulRan=T
         Omega=  0.000000  0.000000  1.000000  0.000000  0.000000 ICntrl=    2127 IOpCl=  0
         NMat0=    1 NMatS0=    1 NMatT0=    0 NMatD0=    1 NMtDS0=    0 NMtDT0=    0
         I1Cent=           0 NGrid=           0.
 Symmetry not used in FoFCou.
 Leave Link  703 at Sat Dec 21 15:13:18 2019, MaxMem= 2684354560 cpu:       0.5
 (Enter /opt/g09gh/gaussian/g09/l716.exe)
 Dipole        = 3.95225089D-01 6.78184567D-01-1.96187935D-02
 ***** Axes restored to original set *****
 -------------------------------------------------------------------
 Center     Atomic                   Forces (Hartrees/Bohr)
 Number     Number              X              Y              Z
 -------------------------------------------------------------------
      1        8          -0.001753051   -0.022341153   -0.005480786
      2        6           0.020815390   -0.002271362    0.007229863
      3        1          -0.006605490    0.010532470    0.002255487
      4        1           0.002350866   -0.010784351    0.004224532
      5        1          -0.006079186   -0.000128337   -0.009929192
      6        1          -0.008728529    0.024992734    0.001700095
 -------------------------------------------------------------------
 Cartesian Forces:  Max     0.024992734 RMS     0.010958391
 Leave Link  716 at Sat Dec 21 15:13:18 2019, MaxMem= 2684354560 cpu:       0.1
 (Enter /opt/g09gh/gaussian/g09/l103.exe)

 GradGradGradGradGradGradGradGradGradGradGradGradGradGradGradGradGradGrad
 Berny optimization.
 Internal  Forces:  Max     0.026421517 RMS     0.010093842
 Search for a local minimum.
 Step number   1 out of a maximum of  100
 All quantities printed in internal units (Hartrees-Bohrs-Radians)
 RMS Force = .10094D-01 SwitMx=.10000D-02 MixMth= 1
 Mixed Optimization -- RFO/linear search
 Second derivative matrix not updated -- first step.
 The second derivative matrix:
                          R1        R2        R3        R4        R5
           R1           0.41421
           R2           0.00000   0.53352
           R3           0.00000   0.00000   0.34143
           R4           0.00000   0.00000   0.00000   0.34178
           R5           0.00000   0.00000   0.00000   0.00000   0.34102
           A1           0.00000   0.00000   0.00000   0.00000   0.00000
           A2           0.00000   0.00000   0.00000   0.00000   0.00000
           A3           0.00000   0.00000   0.00000   0.00000   0.00000
           A4           0.00000   0.00000   0.00000   0.00000   0.00000
           A5           0.00000   0.00000   0.00000   0.00000   0.00000
           A6           0.00000   0.00000   0.00000   0.00000   0.00000
           A7           0.00000   0.00000   0.00000   0.00000   0.00000
           D1           0.00000   0.00000   0.00000   0.00000   0.00000
           D2           0.00000   0.00000   0.00000   0.00000   0.00000
           D3           0.00000   0.00000   0.00000   0.00000   0.00000
                          A1        A2        A3        A4        A5
           A1           0.16000
           A2           0.00000   0.16000
           A3           0.00000   0.00000   0.16000
           A4           0.00000   0.00000   0.00000   0.16000
           A5           0.00000   0.00000   0.00000   0.00000   0.16000
           A6           0.00000   0.00000   0.00000   0.00000   0.00000
           A7           0.00000   0.00000   0.00000   0.00000   0.00000
           D1           0.00000   0.00000   0.00000   0.00000   0.00000
           D2           0.00000   0.00000   0.00000   0.00000   0.00000
           D3           0.00000   0.00000   0.00000   0.00000   0.00000
                          A6        A7        D1        D2        D3
           A6           0.16000
           A7           0.00000   0.16000
           D1           0.00000   0.00000   0.01334
           D2           0.00000   0.00000   0.00000   0.01334
           D3           0.00000   0.00000   0.00000   0.00000   0.01334
     Eigenvalues ---    0.01334   0.10515   0.10686   0.16000   0.16000
     Eigenvalues ---    0.16000   0.16000   0.34102   0.34143   0.34178
     Eigenvalues ---    0.41421   0.533521000.000001000.000001000.00000
 RFO step:  Lambda=-5.40839462D-03 EMin= 1.33438118D-02
 Linear search not attempted -- first point.
 Iteration  1 RMS(Cart)=  0.04832115 RMS(Int)=  0.00281269
 Iteration  2 RMS(Cart)=  0.00201277 RMS(Int)=  0.00150414
 Iteration  3 RMS(Cart)=  0.00000220 RMS(Int)=  0.00150414
 Iteration  4 RMS(Cart)=  0.00000000 RMS(Int)=  0.00150414
 Variable       Old X    -DE/DX   Delta X   Delta X   Delta X     New X
                                 (Linear)    (Quad)   (Total)
    R1        2.69667  -0.01016   0.00000  -0.02422  -0.02422   2.67246
    R2        1.83326  -0.02642   0.00000  -0.04903  -0.04903   1.78424
    R3        2.07090  -0.00831   0.00000  -0.02396  -0.02396   2.04694
    R4        2.07030  -0.01148   0.00000  -0.03306  -0.03306   2.03724
    R5        2.07159  -0.00776   0.00000  -0.02241  -0.02241   2.04918
    A1        1.88666   0.00317   0.00000   0.01914   0.01914   1.90580
    A2        1.89901   0.01122   0.00000   0.06836   0.06633   1.96533
    A3        1.88424  -0.00210   0.00000  -0.01852  -0.01872   1.86553
    A4        1.87619   0.01253   0.00000   0.08093   0.07878   1.95497
    A5        1.95342  -0.00879   0.00000  -0.06362  -0.06370   1.88972
    A6        1.92207  -0.00611   0.00000  -0.02473  -0.02824   1.89383
    A7        1.92666  -0.00546   0.00000  -0.03433  -0.03463   1.89204
    D1       -0.50962  -0.00470   0.00000  -0.08424  -0.08684  -0.59646
    D2       -2.63312   0.00056   0.00000  -0.03651  -0.03632  -2.66944
    D3        1.57153   0.00131   0.00000  -0.03011  -0.02769   1.54384
         Item               Value     Threshold  Converged?
 Maximum Force            0.026422     0.000450     NO 
 RMS     Force            0.010094     0.000300     NO 
 Maximum Displacement     0.095481     0.001800     NO 
 RMS     Displacement     0.048344     0.001200     NO 
 Predicted change in Energy=-2.810934D-03
 GradGradGradGradGradGradGradGradGradGradGradGradGradGradGradGradGradGrad

 Leave Link  103 at Sat Dec 21 15:13:18 2019, MaxMem= 2684354560 cpu:       0.0
 (Enter /opt/g09gh/gaussian/g09/l202.exe)
                          Input orientation:                          
 ---------------------------------------------------------------------
 Center     Atomic      Atomic             Coordinates (Angstroms)
 Number     Number       Type             X           Y           Z
 ---------------------------------------------------------------------
      1          8           0        0.741558    0.106336   -0.034219
      2          6           0       -0.665212   -0.027509    0.021043
      3          1           0       -1.018914   -0.917870   -0.484387
      4          1           0       -1.081462    0.832519   -0.478263
      5          1           0       -1.032317   -0.042052    1.041289
      6          1           0        1.136347   -0.750823   -0.004364
 ---------------------------------------------------------------------
                    Distance matrix (angstroms):
                    1          2          3          4          5
     1  O    0.000000
     2  C    1.414203   0.000000
     3  H    2.085884   1.083194   0.000000
     4  H    2.011944   1.078062   1.751517   0.000000
     5  H    2.079752   1.084379   1.759239   1.753946   0.000000
     6  H    0.944177   1.941506   2.214380   2.765905   2.509751
                    6
     6  H    0.000000
 Stoichiometry    CH4O
 Framework group  C1[X(CH4O)]
 Deg. of freedom    12
 Full point group                 C1      NOp   1
 Largest Abelian subgroup         C1      NOp   1
 Largest concise Abelian subgroup C1      NOp   1
                         Standard orientation:                         
 ---------------------------------------------------------------------
 Center     Atomic      Atomic             Coordinates (Angstroms)
 Number     Number       Type             X           Y           Z
 ---------------------------------------------------------------------
      1          8           0       -0.744798   -0.119760    0.001476
      2          6           0        0.662557    0.019242    0.000841
      3          1           0        0.994976    0.887083   -0.555629
      4          1           0        1.063982   -0.861191   -0.474462
      5          1           0        1.065441    0.079654    1.005786
      6          1           0       -1.141358    0.737080    0.007447
 ---------------------------------------------------------------------
 Rotational constants (GHZ):    131.9067463     25.0111597     24.1551257
 Leave Link  202 at Sat Dec 21 15:13:18 2019, MaxMem= 2684354560 cpu:       0.0
 (Enter /opt/g09gh/gaussian/g09/l301.exe)
 Standard basis: 6-31G(d) (6D, 7F)
 Ernie: Thresh=  0.10000D-02 Tol=  0.10000D-05 Strict=F.
 There are    38 symmetry adapted basis functions of A   symmetry.
 Integral buffers will be    131072 words long.
 Raffenetti 1 integral format.
 Two-electron integral symmetry is turned on.
    38 basis functions,    72 primitive gaussians,    38 cartesian basis functions
     9 alpha electrons        9 beta electrons
       nuclear repulsion energy        40.5994556650 Hartrees.
 IExCor=    0 DFT=F Ex=HF Corr=None ExCW=0 ScaHFX=  1.000000
 ScaDFX=  1.000000  1.000000  1.000000  1.000000 ScalE2=  1.000000  1.000000
 IRadAn=      0 IRanWt=     -1 IRanGd=            0 ICorTp=0
 NAtoms=    6 NActive=    6 NUniq=    6 SFac= 7.50D-01 NAtFMM=   80 NAOKFM=F Big=F
 Leave Link  301 at Sat Dec 21 15:13:19 2019, MaxMem= 2684354560 cpu:       0.1
 (Enter /opt/g09gh/gaussian/g09/l302.exe)
 NPDir=0 NMtPBC=     1 NCelOv=     1 NCel=       1 NClECP=     1 NCelD=      1
         NCelK=      1 NCelE2=     1 NClLst=     1 CellRange=     0.0.
 One-electron integrals computed using PRISM.
 NBasis=    38 RedAO= T  NBF=    38
 NBsUse=    38 1.00D-06 NBFU=    38
 Leave Link  302 at Sat Dec 21 15:13:19 2019, MaxMem= 2684354560 cpu:       0.4
 (Enter /opt/g09gh/gaussian/g09/l303.exe)
 DipDrv:  MaxL=1.
 Leave Link  303 at Sat Dec 21 15:13:19 2019, MaxMem= 2684354560 cpu:       0.1
 (Enter /opt/g09gh/gaussian/g09/l401.exe)
 Initial guess read from the read-write file.
 B after Tr=     0.000000    0.000000    0.000000
         Rot=    1.000000    0.000000    0.000000    0.000000 Ang=   0.00 deg.
 Guess basis will be translated and rotated to current coordinates.
 Initial guess orbital symmetries:
       Occupied  (A) (A) (A) (A) (A) (A) (A) (A) (A)
       Virtual   (A) (A) (A) (A) (A) (A) (A) (A) (A) (A) (A) (A)
                 (A) (A) (A) (A) (A) (A) (A) (A) (A) (A) (A) (A)
                 (A) (A) (A) (A) (A)
 The electronic state of the initial guess is 1-A.
 Generating alternative initial guess.
 Harris functional with IExCor=  205 diagonalized for initial guess.
 ExpMin= 1.61D-01 ExpMax= 5.48D+03 ExpMxC= 8.25D+02 IAcc=1 IRadAn=         1 AccDes= 0.00D+00
 HarFok:  IExCor=  205 AccDes= 0.00D+00 IRadAn=         1 IDoV= 1
 ScaDFX=  1.000000  1.000000  1.000000  1.000000
 FoFCou: FMM=F IPFlag=           0 FMFlag=      100000 FMFlg1=           0
         NFxFlg=           0 DoJE=T BraDBF=F KetDBF=T FulRan=T
         Omega=  0.000000  0.000000  1.000000  0.000000  0.000000 ICntrl=     500 IOpCl=  0
         NMat0=    1 NMatS0=    1 NMatT0=    0 NMatD0=    1 NMtDS0=    0 NMtDT0=    0
         I1Cent=           4 NGrid=           0.
 Petite list used in FoFCou.
 Harris En= -115.213301898287    
 Leave Link  401 at Sat Dec 21 15:13:19 2019, MaxMem= 2684354560 cpu:       0.6
 (Enter /opt/g09gh/gaussian/g09/l502.exe)
 Closed shell SCF:
 Requested convergence on RMS density matrix=1.00D-08 within 128 cycles.
 Requested convergence on MAX density matrix=1.00D-06.
 Requested convergence on             energy=1.00D-06.
 No special actions if energy rises.
 Using DIIS extrapolation, IDIIS=  1040.
 Integral symmetry usage will be decided dynamically.
 Keep R1 ints in memory in canonical form, NReq=1117925.
 IEnd=       23000 IEndB=       23000 NGot=  2684354560 MDV=  2684074744
 LenX=  2684074744 LenY=  2684072859
 Symmetry not used in FoFDir.
 MinBra= 0 MaxBra= 2 Meth= 1.
 IRaf=       0 NMat=   1 IRICut=       1 DoRegI=T DoRafI=F ISym2E= 0 JSym2E=0.

 Cycle   1  Pass 1  IDiag  1:
 E= -115.032578966876    
 DIIS: error= 3.64D-03 at cycle   1 NSaved=   1.
 NSaved= 1 IEnMin= 1 EnMin= -115.032578966876     IErMin= 1 ErrMin= 3.64D-03
 ErrMax= 3.64D-03 EMaxC= 1.00D-01 BMatC= 1.16D-03 BMatP= 1.16D-03
 IDIUse=3 WtCom= 9.64D-01 WtEn= 3.64D-02
 Coeff-Com:  0.100D+01
 Coeff-En:   0.100D+01
 Coeff:      0.100D+01
 Gap=     0.676 Goal=   None    Shift=    0.000
 GapD=    0.676 DampG=2.000 DampE=1.000 DampFc=2.0000 IDamp=-1.
 RMSDP=8.00D-04 MaxDP=6.94D-03              OVMax= 1.05D-02

 Cycle   2  Pass 1  IDiag  1:
 E= -115.034127009853     Delta-E=       -0.001548042976 Rises=F Damp=F
 DIIS: error= 1.19D-03 at cycle   2 NSaved=   2.
 NSaved= 2 IEnMin= 2 EnMin= -115.034127009853     IErMin= 2 ErrMin= 1.19D-03
 ErrMax= 1.19D-03 EMaxC= 1.00D-01 BMatC= 1.01D-04 BMatP= 1.16D-03
 IDIUse=3 WtCom= 9.88D-01 WtEn= 1.19D-02
 Coeff-Com: -0.731D-01 0.107D+01
 Coeff-En:   0.000D+00 0.100D+01
 Coeff:     -0.723D-01 0.107D+01
 Gap=     0.668 Goal=   None    Shift=    0.000
 RMSDP=3.21D-04 MaxDP=2.63D-03 DE=-1.55D-03 OVMax= 4.00D-03

 Cycle   3  Pass 1  IDiag  1:
 E= -115.034277283564     Delta-E=       -0.000150273712 Rises=F Damp=F
 DIIS: error= 4.72D-04 at cycle   3 NSaved=   3.
 NSaved= 3 IEnMin= 3 EnMin= -115.034277283564     IErMin= 3 ErrMin= 4.72D-04
 ErrMax= 4.72D-04 EMaxC= 1.00D-01 BMatC= 1.82D-05 BMatP= 1.01D-04
 IDIUse=3 WtCom= 9.95D-01 WtEn= 4.72D-03
 Coeff-Com: -0.941D-01 0.224D+00 0.871D+00
 Coeff-En:   0.000D+00 0.000D+00 0.100D+01
 Coeff:     -0.937D-01 0.222D+00 0.871D+00
 Gap=     0.670 Goal=   None    Shift=    0.000
 RMSDP=1.28D-04 MaxDP=1.27D-03 DE=-1.50D-04 OVMax= 1.44D-03

 Cycle   4  Pass 1  IDiag  1:
 E= -115.034300291747     Delta-E=       -0.000023008182 Rises=F Damp=F
 DIIS: error= 1.34D-04 at cycle   4 NSaved=   4.
 NSaved= 4 IEnMin= 4 EnMin= -115.034300291747     IErMin= 4 ErrMin= 1.34D-04
 ErrMax= 1.34D-04 EMaxC= 1.00D-01 BMatC= 1.17D-06 BMatP= 1.82D-05
 IDIUse=3 WtCom= 9.99D-01 WtEn= 1.34D-03
 Coeff-Com:  0.382D-03-0.795D-01 0.631D-01 0.102D+01
 Coeff-En:   0.000D+00 0.000D+00 0.000D+00 0.100D+01
 Coeff:      0.381D-03-0.794D-01 0.631D-01 0.102D+01
 Gap=     0.670 Goal=   None    Shift=    0.000
 RMSDP=5.22D-05 MaxDP=3.43D-04 DE=-2.30D-05 OVMax= 6.03D-04

 Cycle   5  Pass 1  IDiag  1:
 E= -115.034302340566     Delta-E=       -0.000002048819 Rises=F Damp=F
 DIIS: error= 3.19D-05 at cycle   5 NSaved=   5.
 NSaved= 5 IEnMin= 5 EnMin= -115.034302340566     IErMin= 5 ErrMin= 3.19D-05
 ErrMax= 3.19D-05 EMaxC= 1.00D-01 BMatC= 7.12D-08 BMatP= 1.17D-06
 IDIUse=1 WtCom= 1.00D+00 WtEn= 0.00D+00
 Coeff-Com:  0.499D-02-0.171D-01-0.474D-01 0.549D-01 0.100D+01
 Coeff:      0.499D-02-0.171D-01-0.474D-01 0.549D-01 0.100D+01
 Gap=     0.670 Goal=   None    Shift=    0.000
 RMSDP=1.54D-05 MaxDP=9.38D-05 DE=-2.05D-06 OVMax= 1.85D-04

 Cycle   6  Pass 1  IDiag  1:
 E= -115.034302489173     Delta-E=       -0.000000148607 Rises=F Damp=F
 DIIS: error= 1.03D-05 at cycle   6 NSaved=   6.
 NSaved= 6 IEnMin= 6 EnMin= -115.034302489173     IErMin= 6 ErrMin= 1.03D-05
 ErrMax= 1.03D-05 EMaxC= 1.00D-01 BMatC= 6.92D-09 BMatP= 7.12D-08
 IDIUse=1 WtCom= 1.00D+00 WtEn= 0.00D+00
 Coeff-Com:  0.369D-03 0.555D-02-0.981D-02-0.874D-01 0.669D-01 0.102D+01
 Coeff:      0.369D-03 0.555D-02-0.981D-02-0.874D-01 0.669D-01 0.102D+01
 Gap=     0.670 Goal=   None    Shift=    0.000
 RMSDP=5.35D-06 MaxDP=4.44D-05 DE=-1.49D-07 OVMax= 7.43D-05

 Cycle   7  Pass 1  IDiag  1:
 E= -115.034302505902     Delta-E=       -0.000000016729 Rises=F Damp=F
 DIIS: error= 3.70D-06 at cycle   7 NSaved=   7.
 NSaved= 7 IEnMin= 7 EnMin= -115.034302505902     IErMin= 7 ErrMin= 3.70D-06
 ErrMax= 3.70D-06 EMaxC= 1.00D-01 BMatC= 5.53D-10 BMatP= 6.92D-09
 IDIUse=1 WtCom= 1.00D+00 WtEn= 0.00D+00
 Coeff-Com: -0.502D-03-0.109D-03 0.643D-02 0.200D-01-0.101D+00-0.276D+00
 Coeff-Com:  0.135D+01
 Coeff:     -0.502D-03-0.109D-03 0.643D-02 0.200D-01-0.101D+00-0.276D+00
 Coeff:      0.135D+01
 Gap=     0.670 Goal=   None    Shift=    0.000
 RMSDP=2.05D-06 MaxDP=2.07D-05 DE=-1.67D-08 OVMax= 3.26D-05

 Cycle   8  Pass 1  IDiag  1:
 E= -115.034302507734     Delta-E=       -0.000000001832 Rises=F Damp=F
 DIIS: error= 7.09D-07 at cycle   8 NSaved=   8.
 NSaved= 8 IEnMin= 8 EnMin= -115.034302507734     IErMin= 8 ErrMin= 7.09D-07
 ErrMax= 7.09D-07 EMaxC= 1.00D-01 BMatC= 2.34D-11 BMatP= 5.53D-10
 IDIUse=1 WtCom= 1.00D+00 WtEn= 0.00D+00
 Coeff-Com:  0.978D-04-0.240D-03-0.101D-02-0.138D-03 0.207D-01 0.162D-01
 Coeff-Com: -0.337D+00 0.130D+01
 Coeff:      0.978D-04-0.240D-03-0.101D-02-0.138D-03 0.207D-01 0.162D-01
 Coeff:     -0.337D+00 0.130D+01
 Gap=     0.670 Goal=   None    Shift=    0.000
 RMSDP=4.35D-07 MaxDP=4.18D-06 DE=-1.83D-09 OVMax= 6.94D-06

 Cycle   9  Pass 1  IDiag  1:
 E= -115.034302507814     Delta-E=       -0.000000000080 Rises=F Damp=F
 DIIS: error= 1.11D-07 at cycle   9 NSaved=   9.
 NSaved= 9 IEnMin= 9 EnMin= -115.034302507814     IErMin= 9 ErrMin= 1.11D-07
 ErrMax= 1.11D-07 EMaxC= 1.00D-01 BMatC= 1.03D-12 BMatP= 2.34D-11
 IDIUse=1 WtCom= 1.00D+00 WtEn= 0.00D+00
 Coeff-Com: -0.607D-05 0.507D-04 0.293D-04-0.541D-03-0.188D-02 0.437D-02
 Coeff-Com:  0.495D-01-0.399D+00 0.135D+01
 Coeff:     -0.607D-05 0.507D-04 0.293D-04-0.541D-03-0.188D-02 0.437D-02
 Coeff:      0.495D-01-0.399D+00 0.135D+01
 Gap=     0.670 Goal=   None    Shift=    0.000
 RMSDP=8.25D-08 MaxDP=7.44D-07 DE=-7.97D-11 OVMax= 1.23D-06

 Cycle  10  Pass 1  IDiag  1:
 E= -115.034302507817     Delta-E=       -0.000000000003 Rises=F Damp=F
 DIIS: error= 2.50D-08 at cycle  10 NSaved=  10.
 NSaved=10 IEnMin=10 EnMin= -115.034302507817     IErMin=10 ErrMin= 2.50D-08
 ErrMax= 2.50D-08 EMaxC= 1.00D-01 BMatC= 3.53D-14 BMatP= 1.03D-12
 IDIUse=1 WtCom= 1.00D+00 WtEn= 0.00D+00
 Coeff-Com: -0.115D-05-0.124D-04 0.301D-04 0.215D-03-0.227D-03-0.266D-02
 Coeff-Com: -0.298D-03 0.623D-01-0.371D+00 0.131D+01
 Coeff:     -0.115D-05-0.124D-04 0.301D-04 0.215D-03-0.227D-03-0.266D-02
 Coeff:     -0.298D-03 0.623D-01-0.371D+00 0.131D+01
 Gap=     0.670 Goal=   None    Shift=    0.000
 RMSDP=1.54D-08 MaxDP=1.39D-07 DE=-3.18D-12 OVMax= 2.04D-07

 Cycle  11  Pass 1  IDiag  1:
 E= -115.034302507817     Delta-E=        0.000000000000 Rises=F Damp=F
 DIIS: error= 5.65D-09 at cycle  11 NSaved=  11.
 NSaved=11 IEnMin=11 EnMin= -115.034302507817     IErMin=11 ErrMin= 5.65D-09
 ErrMax= 5.65D-09 EMaxC= 1.00D-01 BMatC= 1.32D-15 BMatP= 3.53D-14
 IDIUse=1 WtCom= 1.00D+00 WtEn= 0.00D+00
 Coeff-Com:  0.258D-06 0.704D-06-0.510D-05-0.164D-04 0.896D-04 0.256D-03
 Coeff-Com: -0.110D-02 0.132D-02 0.266D-01-0.266D+00 0.124D+01
 Coeff:      0.258D-06 0.704D-06-0.510D-05-0.164D-04 0.896D-04 0.256D-03
 Coeff:     -0.110D-02 0.132D-02 0.266D-01-0.266D+00 0.124D+01
 Gap=     0.670 Goal=   None    Shift=    0.000
 RMSDP=2.60D-09 MaxDP=1.90D-08 DE=-5.68D-14 OVMax= 2.90D-08

 SCF Done:  E(RHF) =  -115.034302508     A.U. after   11 cycles
             Convg  =    0.2605D-08             -V/T =  2.0016
 KE= 1.148514152363D+02 PE=-3.522157620098D+02 EE= 8.173058860073D+01
 Leave Link  502 at Sat Dec 21 15:13:19 2019, MaxMem= 2684354560 cpu:       0.3
 (Enter /opt/g09gh/gaussian/g09/l701.exe)
 Compute integral first derivatives.
 ... and contract with generalized density number  0.
 Leave Link  701 at Sat Dec 21 15:13:19 2019, MaxMem= 2684354560 cpu:       0.4
 (Enter /opt/g09gh/gaussian/g09/l702.exe)
 L702 exits ... SP integral derivatives will be done elsewhere.
 Leave Link  702 at Sat Dec 21 15:13:19 2019, MaxMem= 2684354560 cpu:       0.1
 (Enter /opt/g09gh/gaussian/g09/l703.exe)
 Compute integral first derivatives, UseDBF=F ICtDFT=           0.
 Integral derivatives from FoFDir, PRISM(SPDF).
 Calling FoFJK, ICntrl=      2127 FMM=F ISym2X=0 I1Cent= 0 IOpClX= 0 NMat=1 NMatS=1 NMatT=0.
 FoFCou: FMM=F IPFlag=           0 FMFlag=      100000 FMFlg1=         800
         NFxFlg=           0 DoJE=F BraDBF=F KetDBF=F FulRan=T
         Omega=  0.000000  0.000000  1.000000  0.000000  0.000000 ICntrl=    2127 IOpCl=  0
         NMat0=    1 NMatS0=    1 NMatT0=    0 NMatD0=    1 NMtDS0=    0 NMtDT0=    0
         I1Cent=           0 NGrid=           0.
 Symmetry not used in FoFCou.
 Leave Link  703 at Sat Dec 21 15:13:19 2019, MaxMem= 2684354560 cpu:       0.5
 (Enter /opt/g09gh/gaussian/g09/l716.exe)
 Dipole        = 3.75610146D-01 6.64851057D-01-1.59323168D-02
 ***** Axes restored to original set *****
 -------------------------------------------------------------------
 Center     Atomic                   Forces (Hartrees/Bohr)
 Number     Number              X              Y              Z
 -------------------------------------------------------------------
      1        8          -0.010592074   -0.002097929   -0.000905242
      2        6           0.008737310    0.003922163   -0.000592813
      3        1           0.000915392   -0.001837322   -0.001711737
      4        1          -0.002010137    0.001994634   -0.000702024
      5        1           0.001419056   -0.000743523    0.001907312
      6        1           0.001530452   -0.001238023    0.002004504
 -------------------------------------------------------------------
 Cartesian Forces:  Max     0.010592074 RMS     0.003645708
 Leave Link  716 at Sat Dec 21 15:13:20 2019, MaxMem= 2684354560 cpu:       0.1
 (Enter /opt/g09gh/gaussian/g09/l103.exe)

 GradGradGradGradGradGradGradGradGradGradGradGradGradGradGradGradGradGrad
 Berny optimization.
 Using GEDIIS/GDIIS optimizer.
 Internal  Forces:  Max     0.009372673 RMS     0.003011483
 Search for a local minimum.
 Step number   2 out of a maximum of  100
 All quantities printed in internal units (Hartrees-Bohrs-Radians)
 RMS Force = .30115D-02 SwitMx=.10000D-02 MixMth= 1
 Mixed Optimization -- RFO/linear search
 Update second derivatives using D2CorX and points    1    2
 DE= -2.49D-03 DEPred=-2.81D-03 R= 8.87D-01
 SS=  1.41D+00  RLast= 1.79D-01 DXNew= 5.0454D-01 5.3803D-01
 Trust test= 8.87D-01 RLast= 1.79D-01 DXMaxT set to 5.05D-01
 The second derivative matrix:
                          R1        R2        R3        R4        R5
           R1           0.39487
           R2          -0.04687   0.53844
           R3          -0.01446   0.00875   0.34680
           R4          -0.01998   0.01167   0.00727   0.35162
           R5          -0.01358   0.00548   0.00403   0.00544   0.34392
           A1           0.00569   0.00677   0.00166   0.00232   0.00172
           A2           0.01871  -0.01285  -0.00751  -0.01018  -0.00572
           A3          -0.00514   0.00852   0.00391   0.00533   0.00319
           A4           0.02236  -0.01037  -0.00714  -0.00964  -0.00522
           A5          -0.01850  -0.00660   0.00030   0.00028  -0.00060
           A6          -0.00774   0.01365   0.00619   0.00844   0.00506
           A7          -0.00989   0.00223   0.00229   0.00307   0.00155
           D1          -0.00163   0.01636   0.00629   0.00862   0.00544
           D2          -0.00116  -0.01029  -0.00363  -0.00499  -0.00324
           D3          -0.00119  -0.01880  -0.00677  -0.00930  -0.00599
                          A1        A2        A3        A4        A5
           A1           0.15874
           A2          -0.00206   0.17048
           A3           0.00027  -0.00533   0.16235
           A4          -0.00275   0.01007  -0.00549   0.16932
           A5           0.00318  -0.00088   0.00185   0.00056   0.15464
           A6           0.00036  -0.00843   0.00368  -0.00871   0.00305
           A7           0.00136  -0.00330   0.00201  -0.00284  -0.00101
           D1          -0.00073  -0.00840   0.00316  -0.00918   0.00500
           D2           0.00078   0.00480  -0.00163   0.00542  -0.00352
           D3           0.00129   0.00897  -0.00314   0.01005  -0.00627
                          A6        A7        D1        D2        D3
           A6           0.16576
           A7           0.00321   0.16074
           D1           0.00490   0.00366   0.01669
           D2          -0.00251  -0.00225  -0.00138   0.01375
           D3          -0.00483  -0.00413  -0.00283   0.00093   0.01541
 Use linear search instead of GDIIS.
     Eigenvalues ---    0.01272   0.10296   0.10456   0.15436   0.16000
     Eigenvalues ---    0.16000   0.18518   0.34043   0.34156   0.34516
     Eigenvalues ---    0.39964   0.559181000.000001000.000001000.00000
 RFO step:  Lambda=-5.92569142D-04 EMin= 1.27163760D-02
 Quartic linear search produced a step of -0.07205.
 Iteration  1 RMS(Cart)=  0.02710184 RMS(Int)=  0.00099570
 Iteration  2 RMS(Cart)=  0.00082440 RMS(Int)=  0.00007902
 Iteration  3 RMS(Cart)=  0.00000085 RMS(Int)=  0.00007902
 Variable       Old X    -DE/DX   Delta X   Delta X   Delta X     New X
                                 (Linear)    (Quad)   (Total)
    R1        2.67246  -0.00937   0.00174  -0.02514  -0.02340   2.64906
    R2        1.78424   0.00183   0.00353  -0.00538  -0.00185   1.78239
    R3        2.04694   0.00201   0.00173   0.00125   0.00298   2.04992
    R4        2.03724   0.00269   0.00238   0.00150   0.00389   2.04113
    R5        2.04918   0.00132   0.00161  -0.00033   0.00129   2.05047
    A1        1.90580   0.00137  -0.00138   0.01127   0.00989   1.91570
    A2        1.96533  -0.00248  -0.00478  -0.00408  -0.00874   1.95659
    A3        1.86553   0.00277   0.00135   0.01470   0.01608   1.88160
    A4        1.95497  -0.00273  -0.00568  -0.00320  -0.00876   1.94622
    A5        1.88972   0.00046   0.00459  -0.00676  -0.00215   1.88757
    A6        1.89383   0.00141   0.00204  -0.00108   0.00114   1.89497
    A7        1.89204   0.00077   0.00249   0.00056   0.00308   1.89512
    D1       -0.59646  -0.00013   0.00626  -0.08239  -0.07601  -0.67247
    D2       -2.66944  -0.00105   0.00262  -0.08119  -0.07858  -2.74802
    D3        1.54384  -0.00218   0.00200  -0.08926  -0.08738   1.45646
         Item               Value     Threshold  Converged?
 Maximum Force            0.009373     0.000450     NO 
 RMS     Force            0.003011     0.000300     NO 
 Maximum Displacement     0.066666     0.001800     NO 
 RMS     Displacement     0.027010     0.001200     NO 
 Predicted change in Energy=-3.177068D-04
 GradGradGradGradGradGradGradGradGradGradGradGradGradGradGradGradGradGrad

 Leave Link  103 at Sat Dec 21 15:13:20 2019, MaxMem= 2684354560 cpu:       0.0
 (Enter /opt/g09gh/gaussian/g09/l202.exe)
                          Input orientation:                          
 ---------------------------------------------------------------------
 Center     Atomic      Atomic             Coordinates (Angstroms)
 Number     Number       Type             X           Y           Z
 ---------------------------------------------------------------------
      1          8           0        0.732379    0.099472   -0.057072
      2          6           0       -0.662252   -0.023643    0.013313
      3          1           0       -1.019716   -0.912765   -0.495027
      4          1           0       -1.094919    0.838572   -0.472528
      5          1           0       -1.007860   -0.050865    1.041501
      6          1           0        1.132368   -0.750170    0.030914
 ---------------------------------------------------------------------
                    Distance matrix (angstroms):
                    1          2          3          4          5
     1  O    0.000000
     2  C    1.401822   0.000000
     3  H    2.070330   1.084771   0.000000
     4  H    2.014420   1.080119   1.753095   0.000000
     5  H    2.063467   1.085061   1.761797   1.758113   0.000000
     6  H    0.943200   1.936186   2.221378   2.781792   2.467973
                    6
     6  H    0.000000
 Stoichiometry    CH4O
 Framework group  C1[X(CH4O)]
 Deg. of freedom    12
 Full point group                 C1      NOp   1
 Largest Abelian subgroup         C1      NOp   1
 Largest concise Abelian subgroup C1      NOp   1
                         Standard orientation:                         
 ---------------------------------------------------------------------
 Center     Atomic      Atomic             Coordinates (Angstroms)
 Number     Number       Type             X           Y           Z
 ---------------------------------------------------------------------
      1          8           0       -0.737918   -0.121057    0.000885
      2          6           0        0.656873    0.019178    0.000889
      3          1           0        0.984252    0.843457   -0.623703
      4          1           0        1.080483   -0.892022   -0.395247
      5          1           0        1.041390    0.171713    1.004002
      6          1           0       -1.144017    0.730240    0.002536
 ---------------------------------------------------------------------
 Rotational constants (GHZ):    131.7955508     25.3536335     24.4890744
 Leave Link  202 at Sat Dec 21 15:13:20 2019, MaxMem= 2684354560 cpu:       0.0
 (Enter /opt/g09gh/gaussian/g09/l301.exe)
 Standard basis: 6-31G(d) (6D, 7F)
 Ernie: Thresh=  0.10000D-02 Tol=  0.10000D-05 Strict=F.
 There are    38 symmetry adapted basis functions of A   symmetry.
 Integral buffers will be    131072 words long.
 Raffenetti 1 integral format.
 Two-electron integral symmetry is turned on.
    38 basis functions,    72 primitive gaussians,    38 cartesian basis functions
     9 alpha electrons        9 beta electrons
       nuclear repulsion energy        40.7845377690 Hartrees.
 IExCor=    0 DFT=F Ex=HF Corr=None ExCW=0 ScaHFX=  1.000000
 ScaDFX=  1.000000  1.000000  1.000000  1.000000 ScalE2=  1.000000  1.000000
 IRadAn=      0 IRanWt=     -1 IRanGd=            0 ICorTp=0
 NAtoms=    6 NActive=    6 NUniq=    6 SFac= 7.50D-01 NAtFMM=   80 NAOKFM=F Big=F
 Leave Link  301 at Sat Dec 21 15:13:20 2019, MaxMem= 2684354560 cpu:       0.2
 (Enter /opt/g09gh/gaussian/g09/l302.exe)
 NPDir=0 NMtPBC=     1 NCelOv=     1 NCel=       1 NClECP=     1 NCelD=      1
         NCelK=      1 NCelE2=     1 NClLst=     1 CellRange=     0.0.
 One-electron integrals computed using PRISM.
 NBasis=    38 RedAO= T  NBF=    38
 NBsUse=    38 1.00D-06 NBFU=    38
 Leave Link  302 at Sat Dec 21 15:13:20 2019, MaxMem= 2684354560 cpu:       0.4
 (Enter /opt/g09gh/gaussian/g09/l303.exe)
 DipDrv:  MaxL=1.
 Leave Link  303 at Sat Dec 21 15:13:20 2019, MaxMem= 2684354560 cpu:       0.1
 (Enter /opt/g09gh/gaussian/g09/l401.exe)
 Initial guess read from the read-write file.
 B after Tr=     0.000000    0.000000    0.000000
         Rot=    1.000000    0.000000    0.000000    0.000000 Ang=   0.00 deg.
 Guess basis will be translated and rotated to current coordinates.
 Initial guess orbital symmetries:
       Occupied  (A) (A) (A) (A) (A) (A) (A) (A) (A)
       Virtual   (A) (A) (A) (A) (A) (A) (A) (A) (A) (A) (A) (A)
                 (A) (A) (A) (A) (A) (A) (A) (A) (A) (A) (A) (A)
                 (A) (A) (A) (A) (A)
 The electronic state of the initial guess is 1-A.
 Generating alternative initial guess.
 Harris functional with IExCor=  205 diagonalized for initial guess.
 ExpMin= 1.61D-01 ExpMax= 5.48D+03 ExpMxC= 8.25D+02 IAcc=1 IRadAn=         1 AccDes= 0.00D+00
 HarFok:  IExCor=  205 AccDes= 0.00D+00 IRadAn=         1 IDoV= 1
 ScaDFX=  1.000000  1.000000  1.000000  1.000000
 FoFCou: FMM=F IPFlag=           0 FMFlag=      100000 FMFlg1=           0
         NFxFlg=           0 DoJE=T BraDBF=F KetDBF=T FulRan=T
         Omega=  0.000000  0.000000  1.000000  0.000000  0.000000 ICntrl=     500 IOpCl=  0
         NMat0=    1 NMatS0=    1 NMatT0=    0 NMatD0=    1 NMtDS0=    0 NMtDT0=    0
         I1Cent=           4 NGrid=           0.
 Petite list used in FoFCou.
 Harris En= -115.214030594559    
 Leave Link  401 at Sat Dec 21 15:13:20 2019, MaxMem= 2684354560 cpu:       0.7
 (Enter /opt/g09gh/gaussian/g09/l502.exe)
 Closed shell SCF:
 Requested convergence on RMS density matrix=1.00D-08 within 128 cycles.
 Requested convergence on MAX density matrix=1.00D-06.
 Requested convergence on             energy=1.00D-06.
 No special actions if energy rises.
 Using DIIS extrapolation, IDIIS=  1040.
 Integral symmetry usage will be decided dynamically.
 Keep R1 ints in memory in canonical form, NReq=1117925.
 IEnd=       23000 IEndB=       23000 NGot=  2684354560 MDV=  2684074744
 LenX=  2684074744 LenY=  2684072859
 Symmetry not used in FoFDir.
 MinBra= 0 MaxBra= 2 Meth= 1.
 IRaf=       0 NMat=   1 IRICut=       1 DoRegI=T DoRafI=F ISym2E= 0 JSym2E=0.

 Cycle   1  Pass 1  IDiag  1:
 E= -115.032785451273    
 DIIS: error= 5.94D-03 at cycle   1 NSaved=   1.
 NSaved= 1 IEnMin= 1 EnMin= -115.032785451273     IErMin= 1 ErrMin= 5.94D-03
 ErrMax= 5.94D-03 EMaxC= 1.00D-01 BMatC= 1.02D-03 BMatP= 1.02D-03
 IDIUse=3 WtCom= 9.41D-01 WtEn= 5.94D-02
 Coeff-Com:  0.100D+01
 Coeff-En:   0.100D+01
 Coeff:      0.100D+01
 Gap=     0.669 Goal=   None    Shift=    0.000
 GapD=    0.669 DampG=2.000 DampE=1.000 DampFc=2.0000 IDamp=-1.
 RMSDP=7.12D-04 MaxDP=7.94D-03              OVMax= 1.14D-02

 Cycle   2  Pass 1  IDiag  1:
 E= -115.034505944019     Delta-E=       -0.001720492746 Rises=F Damp=F
 DIIS: error= 1.79D-03 at cycle   2 NSaved=   2.
 NSaved= 2 IEnMin= 2 EnMin= -115.034505944019     IErMin= 2 ErrMin= 1.79D-03
 ErrMax= 1.79D-03 EMaxC= 1.00D-01 BMatC= 9.92D-05 BMatP= 1.02D-03
 IDIUse=3 WtCom= 9.82D-01 WtEn= 1.79D-02
 Coeff-Com: -0.402D+00 0.140D+01
 Coeff-En:   0.000D+00 0.100D+01
 Coeff:     -0.395D+00 0.139D+01
 Gap=     0.668 Goal=   None    Shift=    0.000
 RMSDP=4.40D-04 MaxDP=4.00D-03 DE=-1.72D-03 OVMax= 5.85D-03

 Cycle   3  Pass 1  IDiag  1:
 E= -115.034728608665     Delta-E=       -0.000222664646 Rises=F Damp=F
 DIIS: error= 1.74D-04 at cycle   3 NSaved=   3.
 NSaved= 3 IEnMin= 3 EnMin= -115.034728608665     IErMin= 3 ErrMin= 1.74D-04
 ErrMax= 1.74D-04 EMaxC= 1.00D-01 BMatC= 2.62D-06 BMatP= 9.92D-05
 IDIUse=3 WtCom= 9.98D-01 WtEn= 1.74D-03
 Coeff-Com: -0.579D-01 0.137D+00 0.921D+00
 Coeff-En:   0.000D+00 0.000D+00 0.100D+01
 Coeff:     -0.578D-01 0.137D+00 0.921D+00
 Gap=     0.669 Goal=   None    Shift=    0.000
 RMSDP=8.96D-05 MaxDP=7.22D-04 DE=-2.23D-04 OVMax= 7.82D-04

 Cycle   4  Pass 1  IDiag  1:
 E= -115.034732955131     Delta-E=       -0.000004346467 Rises=F Damp=F
 DIIS: error= 8.28D-05 at cycle   4 NSaved=   4.
 NSaved= 4 IEnMin= 4 EnMin= -115.034732955131     IErMin= 4 ErrMin= 8.28D-05
 ErrMax= 8.28D-05 EMaxC= 1.00D-01 BMatC= 4.34D-07 BMatP= 2.62D-06
 IDIUse=1 WtCom= 1.00D+00 WtEn= 0.00D+00
 Coeff-Com:  0.449D-01-0.175D+00 0.202D+00 0.928D+00
 Coeff:      0.449D-01-0.175D+00 0.202D+00 0.928D+00
 Gap=     0.669 Goal=   None    Shift=    0.000
 RMSDP=4.16D-05 MaxDP=3.24D-04 DE=-4.35D-06 OVMax= 3.57D-04

 Cycle   5  Pass 1  IDiag  1:
 E= -115.034733573508     Delta-E=       -0.000000618377 Rises=F Damp=F
 DIIS: error= 6.84D-06 at cycle   5 NSaved=   5.
 NSaved= 5 IEnMin= 5 EnMin= -115.034733573508     IErMin= 5 ErrMin= 6.84D-06
 ErrMax= 6.84D-06 EMaxC= 1.00D-01 BMatC= 3.44D-09 BMatP= 4.34D-07
 IDIUse=1 WtCom= 1.00D+00 WtEn= 0.00D+00
 Coeff-Com: -0.381D-03 0.287D-02-0.271D-01-0.405D-01 0.107D+01
 Coeff:     -0.381D-03 0.287D-02-0.271D-01-0.405D-01 0.107D+01
 Gap=     0.669 Goal=   None    Shift=    0.000
 RMSDP=5.04D-06 MaxDP=3.21D-05 DE=-6.18D-07 OVMax= 5.18D-05

 Cycle   6  Pass 1  IDiag  1:
 E= -115.034733582097     Delta-E=       -0.000000008589 Rises=F Damp=F
 DIIS: error= 2.98D-06 at cycle   6 NSaved=   6.
 NSaved= 6 IEnMin= 6 EnMin= -115.034733582097     IErMin= 6 ErrMin= 2.98D-06
 ErrMax= 2.98D-06 EMaxC= 1.00D-01 BMatC= 2.96D-10 BMatP= 3.44D-09
 IDIUse=1 WtCom= 1.00D+00 WtEn= 0.00D+00
 Coeff-Com: -0.168D-02 0.628D-02-0.209D-02-0.297D-01-0.220D+00 0.125D+01
 Coeff:     -0.168D-02 0.628D-02-0.209D-02-0.297D-01-0.220D+00 0.125D+01
 Gap=     0.669 Goal=   None    Shift=    0.000
 RMSDP=1.28D-06 MaxDP=9.36D-06 DE=-8.59D-09 OVMax= 1.81D-05

 Cycle   7  Pass 1  IDiag  1:
 E= -115.034733582980     Delta-E=       -0.000000000883 Rises=F Damp=F
 DIIS: error= 9.75D-07 at cycle   7 NSaved=   7.
 NSaved= 7 IEnMin= 7 EnMin= -115.034733582980     IErMin= 7 ErrMin= 9.75D-07
 ErrMax= 9.75D-07 EMaxC= 1.00D-01 BMatC= 2.95D-11 BMatP= 2.96D-10
 IDIUse=1 WtCom= 1.00D+00 WtEn= 0.00D+00
 Coeff-Com:  0.353D-03-0.141D-02 0.291D-02 0.825D-02-0.567D-01-0.136D+00
 Coeff-Com:  0.118D+01
 Coeff:      0.353D-03-0.141D-02 0.291D-02 0.825D-02-0.567D-01-0.136D+00
 Coeff:      0.118D+01
 Gap=     0.669 Goal=   None    Shift=    0.000
 RMSDP=3.88D-07 MaxDP=3.28D-06 DE=-8.83D-10 OVMax= 5.76D-06

 Cycle   8  Pass 1  IDiag  1:
 E= -115.034733583064     Delta-E=       -0.000000000083 Rises=F Damp=F
 DIIS: error= 2.66D-07 at cycle   8 NSaved=   8.
 NSaved= 8 IEnMin= 8 EnMin= -115.034733583064     IErMin= 8 ErrMin= 2.66D-07
 ErrMax= 2.66D-07 EMaxC= 1.00D-01 BMatC= 2.84D-12 BMatP= 2.95D-11
 IDIUse=1 WtCom= 1.00D+00 WtEn= 0.00D+00
 Coeff-Com:  0.208D-03-0.793D-03 0.608D-03 0.380D-02 0.166D-01-0.147D+00
 Coeff-Com:  0.111D+00 0.102D+01
 Coeff:      0.208D-03-0.793D-03 0.608D-03 0.380D-02 0.166D-01-0.147D+00
 Coeff:      0.111D+00 0.102D+01
 Gap=     0.669 Goal=   None    Shift=    0.000
 RMSDP=1.17D-07 MaxDP=1.03D-06 DE=-8.31D-11 OVMax= 1.73D-06

 Cycle   9  Pass 1  IDiag  1:
 E= -115.034733583070     Delta-E=       -0.000000000007 Rises=F Damp=F
 DIIS: error= 5.24D-08 at cycle   9 NSaved=   9.
 NSaved= 9 IEnMin= 9 EnMin= -115.034733583070     IErMin= 9 ErrMin= 5.24D-08
 ErrMax= 5.24D-08 EMaxC= 1.00D-01 BMatC= 1.04D-13 BMatP= 2.84D-12
 IDIUse=1 WtCom= 1.00D+00 WtEn= 0.00D+00
 Coeff-Com: -0.428D-04 0.166D-03-0.214D-03-0.919D-03 0.793D-03 0.281D-01
 Coeff-Com: -0.797D-01-0.134D+00 0.119D+01
 Coeff:     -0.428D-04 0.166D-03-0.214D-03-0.919D-03 0.793D-03 0.281D-01
 Coeff:     -0.797D-01-0.134D+00 0.119D+01
 Gap=     0.669 Goal=   None    Shift=    0.000
 RMSDP=2.43D-08 MaxDP=2.28D-07 DE=-6.76D-12 OVMax= 3.58D-07

 Cycle  10  Pass 1  IDiag  1:
 E= -115.034733583071     Delta-E=        0.000000000000 Rises=F Damp=F
 DIIS: error= 1.01D-08 at cycle  10 NSaved=  10.
 NSaved=10 IEnMin=10 EnMin= -115.034733583071     IErMin=10 ErrMin= 1.01D-08
 ErrMax= 1.01D-08 EMaxC= 1.00D-01 BMatC= 5.15D-15 BMatP= 1.04D-13
 IDIUse=1 WtCom= 1.00D+00 WtEn= 0.00D+00
 Coeff-Com:  0.195D-06-0.154D-05 0.175D-04 0.419D-04-0.979D-03 0.141D-03
 Coeff-Com:  0.114D-01-0.976D-02-0.266D+00 0.127D+01
 Coeff:      0.195D-06-0.154D-05 0.175D-04 0.419D-04-0.979D-03 0.141D-03
 Coeff:      0.114D-01-0.976D-02-0.266D+00 0.127D+01
 Gap=     0.669 Goal=   None    Shift=    0.000
 RMSDP=5.75D-09 MaxDP=5.83D-08 DE=-4.26D-13 OVMax= 8.45D-08

 SCF Done:  E(RHF) =  -115.034733583     A.U. after   10 cycles
             Convg  =    0.5749D-08             -V/T =  2.0014
 KE= 1.148721017601D+02 PE=-3.525939328293D+02 EE= 8.190255971725D+01
 Leave Link  502 at Sat Dec 21 15:13:20 2019, MaxMem= 2684354560 cpu:       0.3
 (Enter /opt/g09gh/gaussian/g09/l701.exe)
 Compute integral first derivatives.
 ... and contract with generalized density number  0.
 Leave Link  701 at Sat Dec 21 15:13:20 2019, MaxMem= 2684354560 cpu:       0.5
 (Enter /opt/g09gh/gaussian/g09/l702.exe)
 L702 exits ... SP integral derivatives will be done elsewhere.
 Leave Link  702 at Sat Dec 21 15:13:20 2019, MaxMem= 2684354560 cpu:       0.1
 (Enter /opt/g09gh/gaussian/g09/l703.exe)
 Compute integral first derivatives, UseDBF=F ICtDFT=           0.
 Integral derivatives from FoFDir, PRISM(SPDF).
 Calling FoFJK, ICntrl=      2127 FMM=F ISym2X=0 I1Cent= 0 IOpClX= 0 NMat=1 NMatS=1 NMatT=0.
 FoFCou: FMM=F IPFlag=           0 FMFlag=      100000 FMFlg1=         800
         NFxFlg=           0 DoJE=F BraDBF=F KetDBF=F FulRan=T
         Omega=  0.000000  0.000000  1.000000  0.000000  0.000000 ICntrl=    2127 IOpCl=  0
         NMat0=    1 NMatS0=    1 NMatT0=    0 NMatD0=    1 NMtDS0=    0 NMtDT0=    0
         I1Cent=           0 NGrid=           0.
 Symmetry not used in FoFCou.
 Leave Link  703 at Sat Dec 21 15:13:20 2019, MaxMem= 2684354560 cpu:       0.5
 (Enter /opt/g09gh/gaussian/g09/l716.exe)
 Dipole        = 3.53260833D-01 6.57705553D-01-1.78278985D-02
 ***** Axes restored to original set *****
 -------------------------------------------------------------------
 Center     Atomic                   Forces (Hartrees/Bohr)
 Number     Number              X              Y              Z
 -------------------------------------------------------------------
      1        8          -0.001942925    0.002732410   -0.002725989
      2        6           0.001893381   -0.000291980    0.000554897
      3        1          -0.000434754   -0.000985355   -0.001120884
      4        1           0.000035924    0.001336087    0.000038153
      5        1          -0.000605075   -0.000398864    0.001254579
      6        1           0.001053448   -0.002392298    0.001999245
 -------------------------------------------------------------------
 Cartesian Forces:  Max     0.002732410 RMS     0.001486668
 Leave Link  716 at Sat Dec 21 15:13:20 2019, MaxMem= 2684354560 cpu:       0.1
 (Enter /opt/g09gh/gaussian/g09/l103.exe)

 GradGradGradGradGradGradGradGradGradGradGradGradGradGradGradGradGradGrad
 Berny optimization.
 Using GEDIIS/GDIIS optimizer.
 Internal  Forces:  Max     0.002788246 RMS     0.001086553
 Search for a local minimum.
 Step number   3 out of a maximum of  100
 All quantities printed in internal units (Hartrees-Bohrs-Radians)
 RMS Force = .10866D-02 SwitMx=.10000D-02 MixMth= 1
 Mixed Optimization -- RFO/linear search
 Update second derivatives using D2CorX and points    1    2    3
 DE= -4.31D-04 DEPred=-3.18D-04 R= 1.36D+00
 SS=  1.41D+00  RLast= 1.44D-01 DXNew= 8.4853D-01 4.3151D-01
 Trust test= 1.36D+00 RLast= 1.44D-01 DXMaxT set to 5.05D-01
 The second derivative matrix:
                          R1        R2        R3        R4        R5
           R1           0.44837
           R2           0.01983   0.55951
           R3           0.01042   0.00962   0.34371
           R4          -0.00897   0.00561   0.00280   0.34753
           R5           0.01397   0.01043   0.00255   0.00177   0.34415
           A1          -0.01518  -0.00778  -0.00246   0.00165  -0.00357
           A2           0.02718  -0.00014  -0.00260  -0.00764  -0.00042
           A3          -0.04001  -0.01720  -0.00362   0.00370  -0.00627
           A4           0.04390   0.00706  -0.00180  -0.00804   0.00128
           A5          -0.00655  -0.00307   0.00035  -0.00092   0.00019
           A6          -0.02210   0.00672   0.00490   0.00888   0.00295
           A7          -0.00788  -0.00097   0.00047   0.00163  -0.00010
           D1          -0.03385   0.01053   0.00808   0.01276   0.00524
           D2          -0.02021  -0.01102  -0.00126  -0.00165  -0.00209
           D3           0.00860  -0.00926  -0.00354  -0.00810  -0.00225
                          A1        A2        A3        A4        A5
           A1           0.16474
           A2          -0.00568   0.17148
           A3           0.01052  -0.01119   0.17972
           A4          -0.00930   0.01340  -0.01641   0.17594
           A5           0.00059   0.00149  -0.00277   0.00378   0.15520
           A6           0.00386  -0.01082   0.00964  -0.01243   0.00177
           A7           0.00161  -0.00271   0.00226  -0.00278  -0.00163
           D1           0.00539  -0.01428   0.01392  -0.01631   0.00396
           D2           0.00391   0.00116   0.00402   0.00152  -0.00362
           D3          -0.00200   0.01051  -0.00865   0.01343  -0.00454
                          A6        A7        D1        D2        D3
           A6           0.16743
           A7           0.00360   0.16026
           D1           0.00708   0.00549   0.01646
           D2          -0.00164  -0.00090  -0.00292   0.01187
           D3          -0.00689  -0.00398  -0.00709  -0.00150   0.01705
 Use linear search instead of GDIIS.
     Eigenvalues ---    0.00562   0.10407   0.10563   0.15948   0.16000
     Eigenvalues ---    0.16348   0.19907   0.34048   0.34132   0.35100
     Eigenvalues ---    0.47066   0.566781000.000001000.000001000.00000
 RFO step:  Lambda=-3.64388365D-04 EMin= 5.61513802D-03
 Quartic linear search produced a step of  0.57173.
 Iteration  1 RMS(Cart)=  0.04603387 RMS(Int)=  0.00386115
 Iteration  2 RMS(Cart)=  0.00330365 RMS(Int)=  0.00002434
 Iteration  3 RMS(Cart)=  0.00001607 RMS(Int)=  0.00002167
 Iteration  4 RMS(Cart)=  0.00000000 RMS(Int)=  0.00002167
 Variable       Old X    -DE/DX   Delta X   Delta X   Delta X     New X
                                 (Linear)    (Quad)   (Total)
    R1        2.64906  -0.00082  -0.01338  -0.00593  -0.01930   2.62976
    R2        1.78239   0.00279  -0.00106   0.00374   0.00268   1.78507
    R3        2.04992   0.00148   0.00170   0.00471   0.00642   2.05634
    R4        2.04113   0.00103   0.00222   0.00187   0.00409   2.04522
    R5        2.05047   0.00139   0.00074   0.00443   0.00516   2.05563
    A1        1.91570  -0.00039   0.00566  -0.00185   0.00380   1.91950
    A2        1.95659   0.00000  -0.00500   0.00629   0.00127   1.95786
    A3        1.88160  -0.00083   0.00919  -0.01048  -0.00128   1.88032
    A4        1.94622   0.00044  -0.00501   0.01145   0.00642   1.95263
    A5        1.88757   0.00035  -0.00123  -0.00297  -0.00420   1.88337
    A6        1.89497   0.00006   0.00065  -0.00051   0.00010   1.89507
    A7        1.89512  -0.00003   0.00176  -0.00459  -0.00282   1.89229
    D1       -0.67247  -0.00114  -0.04345  -0.11922  -0.16272  -0.83518
    D2       -2.74802  -0.00103  -0.04492  -0.11256  -0.15748  -2.90550
    D3        1.45646  -0.00074  -0.04996  -0.10706  -0.15698   1.29948
         Item               Value     Threshold  Converged?
 Maximum Force            0.002788     0.000450     NO 
 RMS     Force            0.001087     0.000300     NO 
 Maximum Displacement     0.117563     0.001800     NO 
 RMS     Displacement     0.046035     0.001200     NO 
 Predicted change in Energy=-2.759546D-04
 GradGradGradGradGradGradGradGradGradGradGradGradGradGradGradGradGradGrad

 Leave Link  103 at Sat Dec 21 15:13:21 2019, MaxMem= 2684354560 cpu:       0.0
 (Enter /opt/g09gh/gaussian/g09/l202.exe)
                          Input orientation:                          
 ---------------------------------------------------------------------
 Center     Atomic      Atomic             Coordinates (Angstroms)
 Number     Number       Type             X           Y           Z
 ---------------------------------------------------------------------
      1          8           0        0.723940    0.089792   -0.106947
      2          6           0       -0.658415   -0.026420    0.003341
      3          1           0       -1.039139   -0.905736   -0.512369
      4          1           0       -1.100527    0.847259   -0.457702
      5          1           0       -0.980202   -0.067137    1.041651
      6          1           0        1.134342   -0.737157    0.093126
 ---------------------------------------------------------------------
                    Distance matrix (angstroms):
                    1          2          3          4          5
     1  O    0.000000
     2  C    1.391608   0.000000
     3  H    2.064919   1.088166   0.000000
     4  H    2.006356   1.082284   1.754921   0.000000
     5  H    2.061068   1.087792   1.766833   1.760300   0.000000
     6  H    0.944619   1.930592   2.262535   2.794357   2.412452
                    6
     6  H    0.000000
 Stoichiometry    CH4O
 Framework group  C1[X(CH4O)]
 Deg. of freedom    12
 Full point group                 C1      NOp   1
 Largest Abelian subgroup         C1      NOp   1
 Largest concise Abelian subgroup C1      NOp   1
                         Standard orientation:                         
 ---------------------------------------------------------------------
 Center     Atomic      Atomic             Coordinates (Angstroms)
 Number     Number       Type             X           Y           Z
 ---------------------------------------------------------------------
      1          8           0        0.733031    0.121099    0.000707
      2          6           0       -0.651421   -0.019843    0.001029
      3          1           0       -0.991761   -0.734066   -0.746072
      4          1           0       -1.080967    0.943897   -0.239877
      5          1           0       -1.027036   -0.330150    0.973610
      6          1           0        1.144043   -0.729415    0.000510
 ---------------------------------------------------------------------
 Rotational constants (GHZ):    131.4428445     25.6164347     24.7432588
 Leave Link  202 at Sat Dec 21 15:13:21 2019, MaxMem= 2684354560 cpu:       0.0
 (Enter /opt/g09gh/gaussian/g09/l301.exe)
 Standard basis: 6-31G(d) (6D, 7F)
 Ernie: Thresh=  0.10000D-02 Tol=  0.10000D-05 Strict=F.
 There are    38 symmetry adapted basis functions of A   symmetry.
 Integral buffers will be    131072 words long.
 Raffenetti 1 integral format.
 Two-electron integral symmetry is turned on.
    38 basis functions,    72 primitive gaussians,    38 cartesian basis functions
     9 alpha electrons        9 beta electrons
       nuclear repulsion energy        40.9075806295 Hartrees.
 IExCor=    0 DFT=F Ex=HF Corr=None ExCW=0 ScaHFX=  1.000000
 ScaDFX=  1.000000  1.000000  1.000000  1.000000 ScalE2=  1.000000  1.000000
 IRadAn=      0 IRanWt=     -1 IRanGd=            0 ICorTp=0
 NAtoms=    6 NActive=    6 NUniq=    6 SFac= 7.50D-01 NAtFMM=   80 NAOKFM=F Big=F
 Leave Link  301 at Sat Dec 21 15:13:21 2019, MaxMem= 2684354560 cpu:       0.2
 (Enter /opt/g09gh/gaussian/g09/l302.exe)
 NPDir=0 NMtPBC=     1 NCelOv=     1 NCel=       1 NClECP=     1 NCelD=      1
         NCelK=      1 NCelE2=     1 NClLst=     1 CellRange=     0.0.
 One-electron integrals computed using PRISM.
 NBasis=    38 RedAO= T  NBF=    38
 NBsUse=    38 1.00D-06 NBFU=    38
 Leave Link  302 at Sat Dec 21 15:13:21 2019, MaxMem= 2684354560 cpu:       0.4
 (Enter /opt/g09gh/gaussian/g09/l303.exe)
 DipDrv:  MaxL=1.
 Leave Link  303 at Sat Dec 21 15:13:21 2019, MaxMem= 2684354560 cpu:       0.1
 (Enter /opt/g09gh/gaussian/g09/l401.exe)
 Initial guess read from the read-write file.
 B after Tr=     0.000000    0.000000    0.000000
         Rot=    1.000000    0.000000    0.000000    0.000000 Ang=   0.00 deg.
 Guess basis will be translated and rotated to current coordinates.
 Initial guess orbital symmetries:
       Occupied  (A) (A) (A) (A) (A) (A) (A) (A) (A)
       Virtual   (A) (A) (A) (A) (A) (A) (A) (A) (A) (A) (A) (A)
                 (A) (A) (A) (A) (A) (A) (A) (A) (A) (A) (A) (A)
                 (A) (A) (A) (A) (A)
 The electronic state of the initial guess is 1-A.
 Generating alternative initial guess.
 Harris functional with IExCor=  205 diagonalized for initial guess.
 ExpMin= 1.61D-01 ExpMax= 5.48D+03 ExpMxC= 8.25D+02 IAcc=1 IRadAn=         1 AccDes= 0.00D+00
 HarFok:  IExCor=  205 AccDes= 0.00D+00 IRadAn=         1 IDoV= 1
 ScaDFX=  1.000000  1.000000  1.000000  1.000000
 FoFCou: FMM=F IPFlag=           0 FMFlag=      100000 FMFlg1=           0
         NFxFlg=           0 DoJE=T BraDBF=F KetDBF=T FulRan=T
         Omega=  0.000000  0.000000  1.000000  0.000000  0.000000 ICntrl=     500 IOpCl=  0
         NMat0=    1 NMatS0=    1 NMatT0=    0 NMatD0=    1 NMtDS0=    0 NMtDT0=    0
         I1Cent=           4 NGrid=           0.
 Petite list used in FoFCou.
 Harris En= -115.214430347335    
 Leave Link  401 at Sat Dec 21 15:13:21 2019, MaxMem= 2684354560 cpu:       0.7
 (Enter /opt/g09gh/gaussian/g09/l502.exe)
 Closed shell SCF:
 Requested convergence on RMS density matrix=1.00D-08 within 128 cycles.
 Requested convergence on MAX density matrix=1.00D-06.
 Requested convergence on             energy=1.00D-06.
 No special actions if energy rises.
 Using DIIS extrapolation, IDIIS=  1040.
 Integral symmetry usage will be decided dynamically.
 Keep R1 ints in memory in canonical form, NReq=1117925.
 IEnd=       23000 IEndB=       23000 NGot=  2684354560 MDV=  2684074744
 LenX=  2684074744 LenY=  2684072859
 Symmetry not used in FoFDir.
 MinBra= 0 MaxBra= 2 Meth= 1.
 IRaf=       0 NMat=   1 IRICut=       1 DoRegI=T DoRafI=F ISym2E= 0 JSym2E=0.

 Cycle   1  Pass 1  IDiag  1:
 E= -111.814333888754    
 DIIS: error= 1.36D-01 at cycle   1 NSaved=   1.
 NSaved= 1 IEnMin= 1 EnMin= -111.814333888754     IErMin= 1 ErrMin= 1.36D-01
 ErrMax= 1.36D-01 EMaxC= 1.00D-01 BMatC= 9.98D-01 BMatP= 9.98D-01
 IDIUse=3 WtCom= 0.00D+00 WtEn= 1.00D+00
 Coeff-Com:  0.100D+01
 Coeff-En:   0.100D+01
 Coeff:      0.100D+01
 Recover alternate guess density for next cycle.
 RMSDP=6.34D-02 MaxDP=6.36D-01              OVMax= 0.00D+00

 Cycle   2  Pass 1  IDiag  1:
 E= -114.922395960280     Delta-E=       -3.108062071526 Rises=F Damp=F
 DIIS: error= 5.34D-02 at cycle   2 NSaved=   2.
 NSaved= 2 IEnMin= 2 EnMin= -114.922395960280     IErMin= 2 ErrMin= 5.34D-02
 ErrMax= 5.34D-02 EMaxC= 1.00D-01 BMatC= 1.70D-01 BMatP= 9.98D-01
 IDIUse=3 WtCom= 4.66D-01 WtEn= 5.34D-01
 Coeff-Com:  0.454D-01 0.955D+00
 Coeff-En:   0.000D+00 0.100D+01
 Coeff:      0.211D-01 0.979D+00
 Gap=     0.645 Goal=   None    Shift=    0.000
 RMSDP=9.58D-03 MaxDP=1.00D-01 DE=-3.11D+00 OVMax= 9.98D-02

 Cycle   3  Pass 1  IDiag  1:
 E= -115.013198096762     Delta-E=       -0.090802136482 Rises=F Damp=F
 DIIS: error= 2.43D-02 at cycle   3 NSaved=   3.
 NSaved= 3 IEnMin= 3 EnMin= -115.013198096762     IErMin= 3 ErrMin= 2.43D-02
 ErrMax= 2.43D-02 EMaxC= 1.00D-01 BMatC= 3.04D-02 BMatP= 1.70D-01
 IDIUse=3 WtCom= 7.57D-01 WtEn= 2.43D-01
 Coeff-Com:  0.346D-01 0.215D+00 0.750D+00
 Coeff-En:   0.000D+00 0.000D+00 0.100D+01
 Coeff:      0.262D-01 0.163D+00 0.811D+00
 Gap=     0.686 Goal=   None    Shift=    0.000
 RMSDP=3.72D-03 MaxDP=4.26D-02 DE=-9.08D-02 OVMax= 3.68D-02

 Cycle   4  Pass 1  IDiag  1:
 E= -115.033798950218     Delta-E=       -0.020600853456 Rises=F Damp=F
 DIIS: error= 4.41D-03 at cycle   4 NSaved=   4.
 NSaved= 4 IEnMin= 4 EnMin= -115.033798950218     IErMin= 4 ErrMin= 4.41D-03
 ErrMax= 4.41D-03 EMaxC= 1.00D-01 BMatC= 1.61D-03 BMatP= 3.04D-02
 IDIUse=3 WtCom= 9.56D-01 WtEn= 4.41D-02
 Coeff-Com: -0.723D-02-0.160D-01 0.136D+00 0.887D+00
 Coeff-En:   0.000D+00 0.000D+00 0.000D+00 0.100D+01
[...]
 IDIUse=1 WtCom= 1.00D+00 WtEn= 0.00D+00
 Coeff-Com: -0.498D-04 0.971D-04 0.130D-03-0.248D-02 0.661D-02 0.279D-01
 Coeff-Com: -0.255D+00 0.122D+01
 Coeff:     -0.498D-04 0.971D-04 0.130D-03-0.248D-02 0.661D-02 0.279D-01
 Coeff:     -0.255D+00 0.122D+01
 Gap=     0.670 Goal=   None    Shift=    0.000
 RMSDP=4.50D-06 MaxDP=4.48D-05 DE=-6.07D-07 OVMax= 6.13D-05

 Cycle   9  Pass 1  IDiag  1:
 E= -115.035418311527     Delta-E=       -0.000000013334 Rises=F Damp=F
 DIIS: error= 2.50D-06 at cycle   9 NSaved=   9.
 NSaved= 9 IEnMin= 9 EnMin= -115.035418311527     IErMin= 9 ErrMin= 2.50D-06
 ErrMax= 2.50D-06 EMaxC= 1.00D-01 BMatC= 2.64D-10 BMatP= 5.19D-09
 IDIUse=1 WtCom= 1.00D+00 WtEn= 0.00D+00
 Coeff-Com:  0.182D-04-0.355D-04 0.114D-03-0.592D-03-0.130D-02 0.447D-02
 Coeff-Com:  0.210D-01-0.320D+00 0.130D+01
 Coeff:      0.182D-04-0.355D-04 0.114D-03-0.592D-03-0.130D-02 0.447D-02
 Coeff:      0.210D-01-0.320D+00 0.130D+01
 Gap=     0.670 Goal=   None    Shift=    0.000
 RMSDP=1.06D-06 MaxDP=9.55D-06 DE=-1.33D-08 OVMax= 1.24D-05

 Cycle  10  Pass 1  IDiag  1:
 E= -115.035418312208     Delta-E=       -0.000000000681 Rises=F Damp=F
 DIIS: error= 4.26D-07 at cycle  10 NSaved=  10.
 NSaved=10 IEnMin=10 EnMin= -115.035418312208     IErMin=10 ErrMin= 4.26D-07
 ErrMax= 4.26D-07 EMaxC= 1.00D-01 BMatC= 8.97D-12 BMatP= 2.64D-10
 IDIUse=1 WtCom= 1.00D+00 WtEn= 0.00D+00
 Coeff-Com:  0.435D-05-0.902D-05-0.794D-05 0.179D-03-0.300D-03-0.165D-02
 Coeff-Com:  0.976D-02-0.238D-01-0.119D+00 0.114D+01
 Coeff:      0.435D-05-0.902D-05-0.794D-05 0.179D-03-0.300D-03-0.165D-02
 Coeff:      0.976D-02-0.238D-01-0.119D+00 0.114D+01
 Gap=     0.670 Goal=   None    Shift=    0.000
 RMSDP=1.93D-07 MaxDP=1.46D-06 DE=-6.81D-10 OVMax= 2.20D-06

 Cycle  11  Pass 1  IDiag  1:
 E= -115.035418312230     Delta-E=       -0.000000000022 Rises=F Damp=F
 DIIS: error= 7.04D-08 at cycle  11 NSaved=  11.
 NSaved=11 IEnMin=11 EnMin= -115.035418312230     IErMin=11 ErrMin= 7.04D-08
 ErrMax= 7.04D-08 EMaxC= 1.00D-01 BMatC= 2.64D-13 BMatP= 8.97D-12
 IDIUse=1 WtCom= 1.00D+00 WtEn= 0.00D+00
 Coeff-Com: -0.713D-06 0.133D-05-0.714D-06-0.410D-05 0.558D-04 0.643D-04
 Coeff-Com: -0.153D-02 0.108D-01-0.199D-01-0.193D+00 0.120D+01
 Coeff:     -0.713D-06 0.133D-05-0.714D-06-0.410D-05 0.558D-04 0.643D-04
 Coeff:     -0.153D-02 0.108D-01-0.199D-01-0.193D+00 0.120D+01
 Gap=     0.670 Goal=   None    Shift=    0.000
 RMSDP=3.53D-08 MaxDP=2.53D-07 DE=-2.15D-11 OVMax= 4.06D-07

 Cycle  12  Pass 1  IDiag  1:
 E= -115.035418312230     Delta-E=       -0.000000000001 Rises=F Damp=F
 DIIS: error= 8.86D-09 at cycle  12 NSaved=  12.
 NSaved=12 IEnMin=12 EnMin= -115.035418312230     IErMin=12 ErrMin= 8.86D-09
 ErrMax= 8.86D-09 EMaxC= 1.00D-01 BMatC= 5.12D-15 BMatP= 2.64D-13
 IDIUse=1 WtCom= 1.00D+00 WtEn= 0.00D+00
 Coeff-Com:  0.514D-07-0.714D-07 0.257D-06-0.215D-05-0.784D-05 0.146D-04
 Coeff-Com:  0.179D-03-0.205D-02 0.770D-02 0.135D-01-0.227D+00 0.121D+01
 Coeff:      0.514D-07-0.714D-07 0.257D-06-0.215D-05-0.784D-05 0.146D-04
 Coeff:      0.179D-03-0.205D-02 0.770D-02 0.135D-01-0.227D+00 0.121D+01
 Gap=     0.670 Goal=   None    Shift=    0.000
 RMSDP=3.24D-09 MaxDP=2.25D-08 DE=-5.97D-13 OVMax= 4.39D-08

 SCF Done:  E(RHF) =  -115.035418312     A.U. after   12 cycles
             Convg  =    0.3243D-08             -V/T =  2.0015
 KE= 1.148617199361D+02 PE=-3.525848725048D+02 EE= 8.190190227746D+01
 Leave Link  502 at Sat Dec 21 15:13:26 2019, MaxMem= 2684354560 cpu:       0.4
 (Enter /opt/g09gh/gaussian/g09/l701.exe)
 Compute integral first derivatives.
 ... and contract with generalized density number  0.
 Leave Link  701 at Sat Dec 21 15:13:26 2019, MaxMem= 2684354560 cpu:       0.5
 (Enter /opt/g09gh/gaussian/g09/l702.exe)
 L702 exits ... SP integral derivatives will be done elsewhere.
 Leave Link  702 at Sat Dec 21 15:13:26 2019, MaxMem= 2684354560 cpu:       0.0
 (Enter /opt/g09gh/gaussian/g09/l703.exe)
 Compute integral first derivatives, UseDBF=F ICtDFT=           0.
 Integral derivatives from FoFDir, PRISM(SPDF).
 Calling FoFJK, ICntrl=      2127 FMM=F ISym2X=0 I1Cent= 0 IOpClX= 0 NMat=1 NMatS=1 NMatT=0.
 FoFCou: FMM=F IPFlag=           0 FMFlag=      100000 FMFlg1=         800
         NFxFlg=           0 DoJE=F BraDBF=F KetDBF=F FulRan=T
         Omega=  0.000000  0.000000  1.000000  0.000000  0.000000 ICntrl=    2127 IOpCl=  0
         NMat0=    1 NMatS0=    1 NMatT0=    0 NMatD0=    1 NMtDS0=    0 NMtDT0=    0
         I1Cent=           0 NGrid=           0.
 Symmetry not used in FoFCou.
 Leave Link  703 at Sat Dec 21 15:13:26 2019, MaxMem= 2684354560 cpu:       0.6
 (Enter /opt/g09gh/gaussian/g09/l716.exe)
 Dipole        =-3.51980586D-01-6.44640482D-01-1.34081626D-05
 ***** Axes restored to original set *****
 -------------------------------------------------------------------
 Center     Atomic                   Forces (Hartrees/Bohr)
 Number     Number              X              Y              Z
 -------------------------------------------------------------------
      1        8          -0.000058607    0.000014957   -0.000005416
      2        6           0.000066373   -0.000017157    0.000006734
      3        1          -0.000003668   -0.000002770   -0.000004636
      4        1           0.000017284    0.000001978   -0.000003133
      5        1          -0.000000466   -0.000000180    0.000003616
      6        1          -0.000020916    0.000003171    0.000002835
 -------------------------------------------------------------------
 Cartesian Forces:  Max     0.000066373 RMS     0.000022678
 Leave Link  716 at Sat Dec 21 15:13:26 2019, MaxMem= 2684354560 cpu:       0.0
 (Enter /opt/g09gh/gaussian/g09/l103.exe)

 GradGradGradGradGradGradGradGradGradGradGradGradGradGradGradGradGradGrad
 Berny optimization.
 Using GEDIIS/GDIIS optimizer.
 Internal  Forces:  Max     0.000077148 RMS     0.000023429
 Search for a local minimum.
 Step number   9 out of a maximum of  100
 All quantities printed in internal units (Hartrees-Bohrs-Radians)
 RMS Force = .23429D-04 SwitMx=.10000D-02 MixMth= 2
 Mixed Optimization -- En-DIIS/RFO-DIIS
 Swaping is turned off.
 Update second derivatives using D2CorX and points    4    5    6    7    8
                                                      9
 DE= -1.63D-07 DEPred=-2.07D-07 R= 7.88D-01
 Trust test= 7.88D-01 RLast= 8.95D-03 DXMaxT set to 8.40D-01
 The second derivative matrix:
                          R1        R2        R3        R4        R5
           R1           0.42592
           R2           0.00566   0.55554
           R3           0.01442   0.01139   0.34329
           R4           0.00879   0.01026   0.00138   0.34594
           R5           0.01335   0.01075   0.00252   0.00137   0.34423
           A1           0.04952   0.01117  -0.00413   0.00405  -0.00276
           A2           0.02393  -0.00170  -0.00257  -0.00788  -0.00057
           A3           0.03450   0.00237  -0.00741   0.00248  -0.00663
           A4           0.03181   0.00498  -0.00012  -0.00550   0.00215
           A5          -0.03379  -0.01198   0.00072  -0.00154  -0.00062
           A6          -0.02912   0.00486   0.00516   0.00884   0.00288
           A7          -0.02999  -0.00572   0.00157   0.00071   0.00018
           D1           0.00466   0.01907   0.00587   0.01167   0.00463
           D2          -0.00195  -0.00733  -0.00271  -0.00281  -0.00265
           D3          -0.00313  -0.01149  -0.00279  -0.00908  -0.00194
                          A1        A2        A3        A4        A5
           A1           0.19189
           A2          -0.00750   0.17182
           A3           0.02781  -0.01166   0.18641
           A4          -0.00415   0.01299  -0.00974   0.17471
           A5          -0.00719   0.00199  -0.00705   0.00122   0.15681
           A6           0.00192  -0.01152   0.00966  -0.01344   0.00316
           A7          -0.01060  -0.00191  -0.00789  -0.00414   0.00243
           D1           0.01050  -0.01443   0.01726  -0.01416   0.00417
           D2           0.00371   0.00128   0.00246   0.00259  -0.00233
           D3          -0.01355   0.01199  -0.01955   0.01278  -0.00050
                          A6        A7        D1        D2        D3
           A6           0.16548
           A7           0.00605   0.16486
           D1           0.00444   0.00210   0.01622
           D2          -0.00169  -0.00198  -0.00405   0.01096
           D3          -0.00293  -0.00159  -0.00934  -0.00308   0.01552
     Eigenvalues ---    0.00324   0.10481   0.10700   0.15510   0.16017
     Eigenvalues ---    0.16811   0.23127   0.34127   0.34493   0.34686
     Eigenvalues ---    0.45854   0.558981000.000001000.000001000.00000
 En-DIIS/RFO-DIIS IScMMF=        0 using points:     9    8    7
 RFO step:  Lambda=-1.28614755D-08.
 DIIS coeffs:      0.82581      0.17611     -0.00192
 Iteration  1 RMS(Cart)=  0.00014527 RMS(Int)=  0.00000003
 Iteration  2 RMS(Cart)=  0.00000002 RMS(Int)=  0.00000000
 Variable       Old X    -DE/DX   Delta X   Delta X   Delta X     New X
                                  (DIIS)     (GDIIS)  (Total)
    R1        2.64496  -0.00008  -0.00007  -0.00009  -0.00017   2.64479
    R2        1.78825  -0.00001  -0.00001   0.00000  -0.00001   1.78824
    R3        2.05495   0.00001   0.00001   0.00001   0.00002   2.05497
    R4        2.04291   0.00000   0.00000   0.00000   0.00000   2.04291
    R5        2.05496   0.00000   0.00000   0.00001   0.00002   2.05497
    A1        1.91032  -0.00003  -0.00010  -0.00001  -0.00010   1.91021
    A2        1.95536   0.00001   0.00001   0.00004   0.00004   1.95540
    A3        1.87056  -0.00003  -0.00007  -0.00002  -0.00009   1.87047
    A4        1.95536   0.00000   0.00000   0.00005   0.00005   1.95541
    A5        1.89182   0.00001   0.00003  -0.00004  -0.00001   1.89181
    A6        1.89685   0.00000   0.00002  -0.00002   0.00000   1.89685
    A7        1.89180   0.00001   0.00001   0.00000   0.00001   1.89181
    D1       -1.06816  -0.00001  -0.00089   0.00044  -0.00045  -1.06862
    D2       -3.14118   0.00000  -0.00089   0.00048  -0.00041  -3.14159
    D3        1.06900   0.00000  -0.00086   0.00048  -0.00039   1.06861
         Item               Value     Threshold  Converged?
 Maximum Force            0.000077     0.000450     YES
 RMS     Force            0.000023     0.000300     YES
 Maximum Displacement     0.000276     0.001800     YES
 RMS     Displacement     0.000145     0.001200     YES
 Predicted change in Energy=-1.093591D-08
 Optimization completed.
    -- Stationary point found.
                           ----------------------------
                           !   Optimized Parameters   !
                           ! (Angstroms and Degrees)  !
 --------------------------                            --------------------------
 ! Name  Definition              Value          Derivative Info.                !
 --------------------------------------------------------------------------------
 ! R1    R(1,2)                  1.3997         -DE/DX =   -0.0001              !
 ! R2    R(1,6)                  0.9463         -DE/DX =    0.0                 !
 ! R3    R(2,3)                  1.0874         -DE/DX =    0.0                 !
 ! R4    R(2,4)                  1.0811         -DE/DX =    0.0                 !
 ! R5    R(2,5)                  1.0874         -DE/DX =    0.0                 !
 ! A1    A(2,1,6)              109.4531         -DE/DX =    0.0                 !
 ! A2    A(1,2,3)              112.034          -DE/DX =    0.0                 !
 ! A3    A(1,2,4)              107.1752         -DE/DX =    0.0                 !
 ! A4    A(1,2,5)              112.0342         -DE/DX =    0.0                 !
 ! A5    A(3,2,4)              108.3932         -DE/DX =    0.0                 !
 ! A6    A(3,2,5)              108.6814         -DE/DX =    0.0                 !
 ! A7    A(4,2,5)              108.3923         -DE/DX =    0.0                 !
 ! D1    D(6,1,2,3)            -61.2012         -DE/DX =    0.0                 !
 ! D2    D(6,1,2,4)           -179.9766         -DE/DX =    0.0                 !
 ! D3    D(6,1,2,5)             61.2491         -DE/DX =    0.0                 !
 --------------------------------------------------------------------------------
 GradGradGradGradGradGradGradGradGradGradGradGradGradGradGradGradGradGrad

 Largest change from initial coordinates is atom    4       2.725 Angstoms.
 Leave Link  103 at Sat Dec 21 15:13:26 2019, MaxMem= 2684354560 cpu:       0.0
 (Enter /opt/g09gh/gaussian/g09/l202.exe)
                          Input orientation:                          
 ---------------------------------------------------------------------
 Center     Atomic      Atomic             Coordinates (Angstroms)
 Number     Number       Type             X           Y           Z
 ---------------------------------------------------------------------
      1          8           0        0.723151    0.066192   -0.178494
      2          6           0       -0.662950   -0.034007   -0.012031
      3          1           0       -1.075082   -0.895489   -0.532133
      4          1           0       -1.100544    0.860265   -0.433320
      5          1           0       -0.944724   -0.092645    1.036627
      6          1           0        1.140147   -0.703716    0.180452
 ---------------------------------------------------------------------
                    Distance matrix (angstroms):
                    1          2          3          4          5
     1  O    0.000000
     2  C    1.399653   0.000000
     3  H    2.069670   1.087432   0.000000
     4  H    2.005331   1.081062   1.758717   0.000000
     5  H    2.069675   1.087437   1.767077   1.758710   0.000000
     6  H    0.946302   1.933060   2.334908   2.800616   2.335195
                    6
     6  H    0.000000
 Stoichiometry    CH4O
 Framework group  C1[X(CH4O)]
 Deg. of freedom    12
 Full point group                 C1      NOp   1
 Largest Abelian subgroup         C1      NOp   1
 Largest concise Abelian subgroup C1      NOp   1
                         Standard orientation:                         
 ---------------------------------------------------------------------
 Center     Atomic      Atomic             Coordinates (Angstroms)
 Number     Number       Type             X           Y           Z
 ---------------------------------------------------------------------
      1          8           0        0.737004    0.120602    0.000000
      2          6           0       -0.655596   -0.019723   -0.000001
      3          1           0       -1.012812   -0.543788   -0.883325
      4          1           0       -1.076772    0.975921   -0.000445
      5          1           0       -1.012895   -0.543019    0.883751
      6          1           0        1.140026   -0.735588    0.000019
 ---------------------------------------------------------------------
 Rotational constants (GHZ):    131.0703009     25.4203867     24.5452984
 Leave Link  202 at Sat Dec 21 15:13:26 2019, MaxMem= 2684354560 cpu:       0.0
 (Enter /opt/g09gh/gaussian/g09/l601.exe)
 Copying SCF densities to generalized density rwf, IOpCl= 0 IROHF=0.

 **********************************************************************

            Population analysis using the SCF density.

 **********************************************************************

 Orbital symmetries:
       Occupied  (A) (A) (A) (A) (A) (A) (A) (A) (A)
       Virtual   (A) (A) (A) (A) (A) (A) (A) (A) (A) (A) (A) (A)
                 (A) (A) (A) (A) (A) (A) (A) (A) (A) (A) (A) (A)
                 (A) (A) (A) (A) (A)
 The electronic state is 1-A.
 Alpha  occ. eigenvalues --  -20.55538 -11.26675  -1.36027  -0.92684  -0.69363
 Alpha  occ. eigenvalues --   -0.62086  -0.59534  -0.49733  -0.44328
 Alpha virt. eigenvalues --    0.22683   0.28034   0.32379   0.33056   0.38755
 Alpha virt. eigenvalues --    0.76236   0.77450   0.79850   1.05529   1.13007
 Alpha virt. eigenvalues --    1.15183   1.18946   1.21806   1.25375   1.27028
 Alpha virt. eigenvalues --    1.40974   1.72483   1.77527   1.87141   2.03239
 Alpha virt. eigenvalues --    2.38761   2.45615   2.47792   2.70439   2.75572
 Alpha virt. eigenvalues --    2.82374   3.16735   4.13601   4.64220
          Condensed to atoms (all electrons):
              1          2          3          4          5          6
     1  O    8.357423   0.219303  -0.038673  -0.036919  -0.038680   0.263715
     2  C    0.219303   4.784388   0.393218   0.402850   0.393218  -0.026464
     3  H   -0.038673   0.393218   0.586981  -0.033745  -0.044279  -0.004023
     4  H   -0.036919   0.402850  -0.033745   0.521712  -0.033755   0.005439
     5  H   -0.038680   0.393218  -0.044279  -0.033755   0.586985  -0.004015
     6  H    0.263715  -0.026464  -0.004023   0.005439  -0.004015   0.328132
 Mulliken atomic charges:
              1
     1  O   -0.726169
     2  C   -0.166513
     3  H    0.140521
     4  H    0.174419
     5  H    0.140526
     6  H    0.437216
 Sum of Mulliken atomic charges =   0.00000
 Mulliken charges with hydrogens summed into heavy atoms:
              1
     1  O   -0.288953
     2  C    0.288953
 Sum of Mulliken charges with hydrogens summed into heavy atoms =   0.00000
 Electronic spatial extent (au):  <R**2>=             82.7197
 Charge=              0.0000 electrons
 Dipole moment (field-independent basis, Debye):
    X=             -0.8946    Y=             -1.6385    Z=              0.0000  Tot=              1.8668
 Quadrupole moment (field-independent basis, Debye-Ang):
   XX=            -12.5719   YY=            -12.0517   ZZ=            -13.6326
   XY=             -2.3470   XZ=              0.0001   YZ=             -0.0001
 Traceless Quadrupole moment (field-independent basis, Debye-Ang):
   XX=              0.1801   YY=              0.7004   ZZ=             -0.8805
   XY=             -2.3470   XZ=              0.0001   YZ=             -0.0001
 Octapole moment (field-independent basis, Debye-Ang**2):
  XXX=              4.3988  YYY=             -0.7266  ZZZ=              0.0004  XYY=              1.8901
  XXY=             -2.4130  XXZ=              0.0000  XZZ=              0.5876  YZZ=             -0.5719
  YYZ=             -0.0006  XYZ=              0.0000
 Hexadecapole moment (field-independent basis, Debye-Ang**3):
 XXXX=            -58.0161 YYYY=            -18.8652 ZZZZ=            -18.8090 XXXY=             -3.9620
 XXXZ=              0.0002 YYYX=             -2.9133 YYYZ=             -0.0001 ZZZX=             -0.0005
 ZZZY=              0.0000 XXYY=            -11.7845 XXZZ=            -13.4980 YYZZ=             -6.4141
 XXYZ=             -0.0002 YYXZ=              0.0008 ZZXY=             -0.0015
 N-N= 4.078583197906D+01 E-N=-3.525848724241D+02  KE= 1.148617199361D+02
 No NMR shielding tensors so no spin-rotation constants.
 Leave Link  601 at Sat Dec 21 15:13:27 2019, MaxMem= 2684354560 cpu:       0.5
 (Enter /opt/g09gh/gaussian/g09/l9999.exe)
 1\1\GINC-NODE44\FOpt\RHF\6-31G(d)\C1H4O1\BDW2292\21-Dec-2019\0\\#P opt
 =(,maxcycle=400) HF/6-31G* MaxDisk=100GB\\methanol Rotatable Bond Opti
 mization on bme-nova.bme.utexas.edu\\0,1\O,0.7231513992,0.0661924053,-
 0.1784937067\C,-0.6629501526,-0.0340070346,-0.0120312247\H,-1.07508190
 3,-0.8954887008,-0.5321332965\H,-1.1005436905,0.8602653352,-0.43332046
 64\H,-0.9447241209,-0.0926446129,1.0366267844\H,1.1401474678,-0.703716
 3921,0.1804519099\\Version=EM64L-G09RevA.02\State=1-A\HF=-115.0354183\
 RMSD=3.243e-09\RMSF=2.268e-05\Dipole=-0.33957,-0.5680141,0.3185968\Qua
 drupole=0.1912884,0.3337286,-0.525017,-1.5830219,0.7390453,-0.3737217\
 PG=C01 [X(C1H4O1)]\\@


 ACHIEVEMENT--  THE MAN WHO ROWS THE BOAT GENERALLY 
                DOESN'T HAVE TIME TO ROCK IT.

                   -- FROM THE BACK OF A SUGAR PACKET
 Job cpu time:  0 days  0 hours  0 minutes 26.7 seconds.
 File lengths (MBytes):  RWF=      5 Int=      0 D2E=      0 Chk=      1 Scr=      1
 Normal termination of Gaussian 09 at Sat Dec 21 15:13:27 2019.
