
    -----------------------------------------------------------------------
          Psi4: An Open-Source Ab Initio Electronic Structure Package
                               Psi4 1.3.2 release

                         Git: Rev {HEAD} ecbda83 


    R. M. Parrish, L. A. Burns, D. G. A. Smith, A. C. Simmonett,
    A. E. DePrince III, E. G. Hohenstein, U. Bozkaya, A. Yu. Sokolov,
    R. Di Remigio, R. M. Richard, J. F. Gonthier, A. M. James,
    H. R. McAlexander, A. Kumar, M. Saitow, X. Wang, B. P. Pritchard,
    P. Verma, H. F. Schaefer III, K. Patkowski, R. A. King, E. F. Valeev,
    F. A. Evangelista, J. M. Turney, T. D. Crawford, and C. D. Sherrill,
    J. Chem. Theory Comput. 13(7) pp 3185--3197 (2017).
    (doi: 10.1021/acs.jctc.7b00174)


                         Additional Contributions by
    P. Kraus, H. Kruse, M. H. Lechner, M. C. Schieber, R. A. Shaw,
    A. Alenaizan, R. Galvelis, Z. L. Glick, S. Lehtola, and J. P. Misiewicz

    -----------------------------------------------------------------------


    Psi4 started on: Sunday, 29 December 2019 01:28PM

    Process ID: 143707
    Host:       bme-nova.bme.utexas.edu
    PSIDATADIR: /home/bdw2292/miniconda3/envs/p4env/share/psi4
    Memory:     500.0 MiB
    Threads:    1
    
  ==> Input File <==

--------------------------------------------------------------------------
molecule { 
0 1
O           -0.054496654631     0.038534940133     0.000000000000
H            0.873105012011     0.317390171806     0.000000000000
H           -0.008203555903    -0.928967635735     0.000000000000
}
memory 700MB
set_num_threads(1)
psi4_io.set_default_path("/scratch/bdw2292")
set freeze_core True
E, wfn = energy('mp2/6-311G**',return_wfn=True)
gdma(wfn)
fchk(wfn, "water-dma.fchk")
clean()
--------------------------------------------------------------------------

  Memory set to 667.572 MiB by Python driver.
  Threads set to 1 by Python driver.
    SCF Algorithm Type (re)set to DF.

*** tstart() called on bme-nova.bme.utexas.edu
*** at Sun Dec 29 13:28:35 2019

   => Loading Basis Set <=

    Name: 6-311G**
    Role: ORBITAL
    Keyword: BASIS
    atoms 1   entry O          line   151 file /home/bdw2292/miniconda3/envs/p4env/share/psi4/basis/6-311gss.gbs 
    atoms 2-3 entry H          line    32 file /home/bdw2292/miniconda3/envs/p4env/share/psi4/basis/6-311gss.gbs 


         ---------------------------------------------------------
                                   SCF
               by Justin Turney, Rob Parrish, Andy Simmonett
                          and Daniel G. A. Smith
                              RHF Reference
                        1 Threads,    667 MiB Core
         ---------------------------------------------------------

  ==> Geometry <==

    Molecular point group: cs
    Full point group: Cs

    Geometry (in Angstrom), charge = 0, multiplicity = 1:

       Center              X                  Y                   Z               Mass       
    ------------   -----------------  -----------------  -----------------  -----------------
         O           -0.054496654631     0.038534940133     0.000000000000    15.994914619570
         H            0.873105012011     0.317390171806     0.000000000000     1.007825032230
         H           -0.008203555903    -0.928967635735     0.000000000000     1.007825032230

  Running in cs symmetry.

  Rotational constants: A =     26.47717  B =     14.35702  C =      9.30919 [cm^-1]
  Rotational constants: A = 793765.53768  B = 430412.77196  C = 279082.56720 [MHz]
  Nuclear repulsion =    9.087892479637290

  Charge       = 0
  Multiplicity = 1
  Electrons    = 10
  Nalpha       = 5
  Nbeta        = 5

  ==> Algorithm <==

  SCF Algorithm Type is DF.
  DIIS enabled.
  MOM disabled.
  Fractional occupation disabled.
  Guess Type is SAD.
  Energy threshold   = 1.00e-08
  Density threshold  = 1.00e-08
  Integral threshold = 0.00e+00

  ==> Primary Basis <==

  Basis Set: 6-311G**
    Blend: 6-311G**
    Number of shells: 16
    Number of basis function: 30
    Number of Cartesian functions: 31
    Spherical Harmonics?: true
    Max angular momentum: 2

   => Loading Basis Set <=

    Name: (6-311G** AUX)
    Role: JKFIT
    Keyword: DF_BASIS_SCF
    atoms 1   entry O          line   229 file /home/bdw2292/miniconda3/envs/p4env/share/psi4/basis/cc-pvtz-jkfit.gbs 
    atoms 2-3 entry H          line    51 file /home/bdw2292/miniconda3/envs/p4env/share/psi4/basis/cc-pvtz-jkfit.gbs 

  ==> Pre-Iterations <==

   -------------------------------------------------------
    Irrep   Nso     Nmo     Nalpha   Nbeta   Ndocc  Nsocc
   -------------------------------------------------------
     A'        23      23       0       0       0       0
     A"         7       7       0       0       0       0
   -------------------------------------------------------
    Total      30      30       5       5       5       0
   -------------------------------------------------------

  ==> Integral Setup <==

  DFHelper Memory: AOs need 0.001 GiB; user supplied 0.489 GiB. Using in-core AOs.

  ==> MemDFJK: Density-Fitted J/K Matrices <==

    J tasked:                   Yes
    K tasked:                   Yes
    wK tasked:                   No
    OpenMP threads:               1
    Memory [MiB]:               500
    Algorithm:                 Core
    Schwarz Cutoff:           1E-12
    Mask sparsity (%):       0.0000
    Fitting Condition:        1E-10

   => Auxiliary Basis Set <=

  Basis Set: (6-311G** AUX)
    Blend: CC-PVTZ-JKFIT
    Number of shells: 45
    Number of basis function: 139
    Number of Cartesian functions: 166
    Spherical Harmonics?: true
    Max angular momentum: 4

  Minimum eigenvalue in the overlap matrix is 1.8628521739E-02.
  Using Symmetric Orthogonalization.

  SCF Guess: Superposition of Atomic Densities via on-the-fly atomic UHF.

  ==> Iterations <==

                           Total Energy        Delta E     RMS |[F,P]|

   @DF-RHF iter SAD:   -75.48339189874484   -7.54834e+01   0.00000e+00 
   @DF-RHF iter   1:   -75.96637564144253   -4.82984e-01   1.85613e-02 DIIS
   @DF-RHF iter   2:   -76.02176146541979   -5.53858e-02   1.14814e-02 DIIS
   @DF-RHF iter   3:   -76.04496900719499   -2.32075e-02   9.52011e-04 DIIS
   @DF-RHF iter   4:   -76.04539322338228   -4.24216e-04   2.29511e-04 DIIS
   @DF-RHF iter   5:   -76.04541922488701   -2.60015e-05   4.12926e-05 DIIS
   @DF-RHF iter   6:   -76.04542036295855   -1.13807e-06   8.08537e-06 DIIS
   @DF-RHF iter   7:   -76.04542040763108   -4.46725e-08   1.12952e-06 DIIS
   @DF-RHF iter   8:   -76.04542040843543   -8.04349e-10   2.39151e-07 DIIS
   @DF-RHF iter   9:   -76.04542040848079   -4.53610e-11   5.66143e-08 DIIS
   @DF-RHF iter  10:   -76.04542040848322   -2.43006e-12   4.83844e-09 DIIS
  Energy and wave function converged.


  ==> Post-Iterations <==

    Orbital Energies [Eh]
    ---------------------

    Doubly Occupied:                                                      

       1Ap   -20.547263     2Ap    -1.335997     3Ap    -0.699382  
       4Ap    -0.570798     1App   -0.499138  

    Virtual:                                                              

       5Ap     0.148707     6Ap     0.215799     7Ap     0.560110  
       8Ap     0.608256     9Ap     1.000383     2App    1.004012  
      10Ap     1.108279    11Ap     1.316267    12Ap     1.484819  
       3App    1.514118     4App    1.711499    13Ap     1.915141  
      14Ap     2.230522    15Ap     2.373888    16Ap     2.596481  
      17Ap     2.783516     5App    3.488550     6App    3.538528  
      18Ap     3.705146    19Ap     3.998930    20Ap     4.251967  
       7App    5.324877    21Ap     5.739584    22Ap     6.155315  
      23Ap    51.537058  

    Final Occupation by Irrep:
             Ap   App 
    DOCC [     4,    1 ]

  @DF-RHF Final Energy:   -76.04542040848322

   => Energetics <=

    Nuclear Repulsion Energy =              9.0878924796372900
    One-Electron Energy =                -122.9614690519479012
    Two-Electron Energy =                  37.8281561638273942
    Total Energy =                        -76.0454204084832099

Computation Completed


Properties will be evaluated at   0.000000,   0.000000,   0.000000 [a0]

Properties computed using the SCF density matrix

  Nuclear Dipole Moment: [e a0]
     X:     0.8106      Y:    -0.5732      Z:     0.0000

  Electronic Dipole Moment: [e a0]
     X:    -0.1091      Y:     0.0771      Z:     0.0000

  Dipole Moment: [e a0]
     X:     0.7015      Y:    -0.4960      Z:     0.0000     Total:     0.8591

  Dipole Moment: [D]
     X:     1.7829      Y:    -1.2607      Z:     0.0000     Total:     2.1836


*** tstop() called on bme-nova.bme.utexas.edu at Sun Dec 29 13:28:35 2019
Module time:
	user time   =       0.57 seconds =       0.01 minutes
	system time =       0.01 seconds =       0.00 minutes
	total time  =          0 seconds =       0.00 minutes
Total time:
	user time   =       0.57 seconds =       0.01 minutes
	system time =       0.01 seconds =       0.00 minutes
	total time  =          0 seconds =       0.00 minutes

*** tstart() called on bme-nova.bme.utexas.edu
*** at Sun Dec 29 13:28:35 2019


  //>>>>>>>>>>>>>>>>>>>>>>>>>>>>>>>>>>>//
  //               DFMP2               //
  //<<<<<<<<<<<<<<<<<<<<<<<<<<<<<<<<<<<//

   => Loading Basis Set <=

    Name: (6-311G** AUX)
    Role: RIFIT
    Keyword: DF_BASIS_MP2
    atoms 1   entry O          line   305 file /home/bdw2292/miniconda3/envs/p4env/share/psi4/basis/cc-pvtz-ri.gbs 
    atoms 2-3 entry H          line    19 file /home/bdw2292/miniconda3/envs/p4env/share/psi4/basis/cc-pvtz-ri.gbs 

	 --------------------------------------------------------
	                          DF-MP2                         
	      2nd-Order Density-Fitted Moller-Plesset Theory     
	              RMP2 Wavefunction,   1 Threads             
	                                                         
	        Rob Parrish, Justin Turney, Andy Simmonett,      
	           Ed Hohenstein, and C. David Sherrill          
	 --------------------------------------------------------

   => Auxiliary Basis Set <=

  Basis Set: (6-311G** AUX)
    Blend: CC-PVTZ-RI
    Number of shells: 43
    Number of basis function: 141
    Number of Cartesian functions: 171
    Spherical Harmonics?: true
    Max angular momentum: 4

	 --------------------------------------------------------
	                 NBF =    30, NAUX =   141
	 --------------------------------------------------------
	   CLASS    FOCC     OCC    AOCC    AVIR     VIR    FVIR
	   PAIRS       1       5       4      25      25       0
	 --------------------------------------------------------

	-----------------------------------------------------------
	 ==================> DF-MP2 Energies <==================== 
	-----------------------------------------------------------
	 Reference Energy          =     -76.0454204084832242 [Eh]
	 Singles Energy            =      -0.0000000000000000 [Eh]
	 Same-Spin Energy          =      -0.0546718221236624 [Eh]
	 Opposite-Spin Energy      =      -0.1635298870701045 [Eh]
	 Correlation Energy        =      -0.2182017091937669 [Eh]
	 Total Energy              =     -76.2636221176769880 [Eh]
	-----------------------------------------------------------
	 ================> DF-SCS-MP2 Energies <================== 
	-----------------------------------------------------------
	 SCS Same-Spin Scale       =       0.3333333333333333 [-]
	 SCS Opposite-Spin Scale   =       1.2000000000000000 [-]
	 SCS Same-Spin Energy      =      -0.0182239407078875 [Eh]
	 SCS Opposite-Spin Energy  =      -0.1962358644841254 [Eh]
	 SCS Correlation Energy    =      -0.2144598051920129 [Eh]
	 SCS Total Energy          =     -76.2598802136752312 [Eh]
	-----------------------------------------------------------


*** tstop() called on bme-nova.bme.utexas.edu at Sun Dec 29 13:28:36 2019
Module time:
	user time   =       0.12 seconds =       0.00 minutes
	system time =       0.00 seconds =       0.00 minutes
	total time  =          1 seconds =       0.02 minutes
Total time:
	user time   =       0.70 seconds =       0.01 minutes
	system time =       0.01 seconds =       0.00 minutes
	total time  =          1 seconds =       0.02 minutes
                                     G D M A

                                 by Anthony Stone

                           version 2.2.06, 22 June 2011

               Distributed Multipoles from Gaussian wavefunctions


Starting at 13:28:36 on 29 Dec 2019 


Using CC density matrix from file water-dma.default.143707.fchk


                         Distributed Multipole Analysis

Standard DMA for products of primitives with exponent greater than 4.00000
Using 80-point Euler-MacLaurin radial quadrature
Using 590-point Lebedev quadrature
Becke smoothing parameter = 3

Positions and radii in angstrom
Multipole moments in atomic units, ea_0^k for rank k

O          x = -0.054497  y =  0.038535  z =  0.000000 angstrom
           Maximum rank =  2   Radius =  0.650 angstrom
                   Q00  =  -0.418252
|Q1| =   0.433783  Q11c =   0.354182  Q11s =  -0.250445
|Q2| =   1.058120  Q20  =  -0.951626  Q22c =  -0.154210  Q22s =   0.436170

H          x =  0.873105  y =  0.317390  z =  0.000000 angstrom
           Maximum rank =  2   Radius =  0.325 angstrom
                   Q00  =   0.209126
|Q1| =   0.029000  Q11c =  -0.028979  Q11s =  -0.001105
|Q2| =   0.181868  Q20  =  -0.115105  Q22c =   0.108056  Q22s =   0.090280

H          x = -0.008204  y = -0.928968  z =  0.000000 angstrom
           Maximum rank =  2   Radius =  0.325 angstrom
                   Q00  =   0.209126
|Q1| =   0.029000  Q11c =  -0.008618  Q11s =   0.027690
|Q2| =   0.181868  Q20  =  -0.115106  Q22c =  -0.140788  Q22s =   0.002301

Total multipoles referred to origin at
           x =   0.000000,  y =    0.000000,  z =    0.000000 angstrom
                   Q00  =   0.000000
|Q1| =   0.859110  Q11c =   0.701461  Q11s =  -0.496008
|Q2| =   1.970495  Q20  =  -1.671374  Q22c =  -0.347907  Q22s =   0.984033

Finished at 13:28:36 on 29 Dec 2019 

  DMA results are available in the Python driver through the
	  variable('DMA DISTRIBUTED MULTIPOLES')
  and
	  variable('DMA TOTAL MULTIPOLES')
  commands.


    Psi4 stopped on: Sunday, 29 December 2019 01:28PM
    Psi4 wall time for execution: 0:00:01.37

*** Psi4 exiting successfully. Buy a developer a beer!
