
    -----------------------------------------------------------------------
          Psi4: An Open-Source Ab Initio Electronic Structure Package
                               Psi4 1.3.2 release

                         Git: Rev {HEAD} ecbda83 


    R. M. Parrish, L. A. Burns, D. G. A. Smith, A. C. Simmonett,
    A. E. DePrince III, E. G. Hohenstein, U. Bozkaya, A. Yu. Sokolov,
    R. Di Remigio, R. M. Richard, J. F. Gonthier, A. M. James,
    H. R. McAlexander, A. Kumar, M. Saitow, X. Wang, B. P. Pritchard,
    P. Verma, H. F. Schaefer III, K. Patkowski, R. A. King, E. F. Valeev,
    F. A. Evangelista, J. M. Turney, T. D. Crawford, and C. D. Sherrill,
    J. Chem. Theory Comput. 13(7) pp 3185--3197 (2017).
    (doi: 10.1021/acs.jctc.7b00174)


                         Additional Contributions by
    P. Kraus, H. Kruse, M. H. Lechner, M. C. Schieber, R. A. Shaw,
    A. Alenaizan, R. Galvelis, Z. L. Glick, S. Lehtola, and J. P. Misiewicz

    -----------------------------------------------------------------------


    Psi4 started on: Sunday, 29 December 2019 01:28PM

    Process ID: 143687
    Host:       bme-nova.bme.utexas.edu
    PSIDATADIR: /home/bdw2292/miniconda3/envs/p4env/share/psi4
    Memory:     500.0 MiB
    Threads:    1
    
  ==> Input File <==

--------------------------------------------------------------------------
molecule { 
0 1
 O    1.023500   -0.100600   -0.009700
 H    0.744600    0.599400    0.599500
 H    1.991400   -0.065600    0.020700
}
memory 700MB
set_num_threads(1)
psi4_io.set_default_path("/scratch/bdw2292")
optimize('mp2/6-31G*')
clean()
--------------------------------------------------------------------------

  Memory set to 667.572 MiB by Python driver.
  Threads set to 1 by Python driver.
gradient() will perform analytic gradient computation.
    SCF Algorithm Type (re)set to DF.

*** tstart() called on bme-nova.bme.utexas.edu
*** at Sun Dec 29 13:28:32 2019

   => Loading Basis Set <=

    Name: 6-31G*
    Role: ORBITAL
    Keyword: BASIS
    atoms 1   entry O          line   145 file /home/bdw2292/miniconda3/envs/p4env/share/psi4/basis/6-31gs.gbs 
    atoms 2-3 entry H          line    44 file /home/bdw2292/miniconda3/envs/p4env/share/psi4/basis/6-31gs.gbs 


         ---------------------------------------------------------
                                   SCF
               by Justin Turney, Rob Parrish, Andy Simmonett
                          and Daniel G. A. Smith
                              RHF Reference
                        1 Threads,    667 MiB Core
         ---------------------------------------------------------

  ==> Geometry <==

    Molecular point group: cs
    Full point group: Cs

    Geometry (in Angstrom), charge = 0, multiplicity = 1:

       Center              X                  Y                   Z               Mass       
    ------------   -----------------  -----------------  -----------------  -----------------
         O           -0.054520842983     0.038554673889     0.000000000000    15.994914619570
         H            0.873447173618     0.317454674185     0.000000000000     1.007825032230
         H           -0.008161830814    -0.929345327140     0.000000000000     1.007825032230

  Running in cs symmetry.

  Rotational constants: A =     26.45248  B =     14.34698  C =      9.30192 [cm^-1]
  Rotational constants: A = 793025.31513  B = 430111.50398  C = 278864.39657 [MHz]
  Nuclear repulsion =    9.084325798115151

  Charge       = 0
  Multiplicity = 1
  Electrons    = 10
  Nalpha       = 5
  Nbeta        = 5

  ==> Algorithm <==

  SCF Algorithm Type is DF.
  DIIS enabled.
  MOM disabled.
  Fractional occupation disabled.
  Guess Type is SAD.
  Energy threshold   = 1.00e-10
  Density threshold  = 1.00e-10
  Integral threshold = 0.00e+00

  ==> Primary Basis <==

  Basis Set: 6-31G*
    Blend: 6-31G*
    Number of shells: 10
    Number of basis function: 19
    Number of Cartesian functions: 19
    Spherical Harmonics?: false
    Max angular momentum: 2

   => Loading Basis Set <=

    Name: (6-31G* AUX)
    Role: JKFIT
    Keyword: DF_BASIS_SCF
    atoms 1   entry O          line   221 file /home/bdw2292/miniconda3/envs/p4env/share/psi4/basis/cc-pvdz-jkfit.gbs 
    atoms 2-3 entry H          line    51 file /home/bdw2292/miniconda3/envs/p4env/share/psi4/basis/cc-pvdz-jkfit.gbs 

  ==> Pre-Iterations <==

   -------------------------------------------------------
    Irrep   Nso     Nmo     Nalpha   Nbeta   Ndocc  Nsocc
   -------------------------------------------------------
     A'        15      15       0       0       0       0
     A"         4       4       0       0       0       0
   -------------------------------------------------------
    Total      19      19       5       5       5       0
   -------------------------------------------------------

  ==> Integral Setup <==

  DFHelper Memory: AOs need 0.001 GiB; user supplied 0.489 GiB. Using in-core AOs.

  ==> MemDFJK: Density-Fitted J/K Matrices <==

    J tasked:                   Yes
    K tasked:                   Yes
    wK tasked:                   No
    OpenMP threads:               1
    Memory [MiB]:               500
    Algorithm:                 Core
    Schwarz Cutoff:           1E-12
    Mask sparsity (%):       0.0000
    Fitting Condition:        1E-10

   => Auxiliary Basis Set <=

  Basis Set: (6-31G* AUX)
    Blend: CC-PVDZ-JKFIT
    Number of shells: 42
    Number of basis function: 131
    Number of Cartesian functions: 131
    Spherical Harmonics?: false
    Max angular momentum: 3

  Minimum eigenvalue in the overlap matrix is 2.2713848975E-02.
  Using Symmetric Orthogonalization.

  SCF Guess: Superposition of Atomic Densities via on-the-fly atomic UHF.

  ==> Iterations <==

                           Total Energy        Delta E     RMS |[F,P]|

   @DF-RHF iter SAD:   -75.50761945222990   -7.55076e+01   0.00000e+00 
   @DF-RHF iter   1:   -75.93832219969443   -4.30703e-01   2.62852e-02 DIIS
   @DF-RHF iter   2:   -75.99032362173634   -5.20014e-02   1.55111e-02 DIIS
   @DF-RHF iter   3:   -76.00936277473957   -1.90392e-02   1.38018e-03 DIIS
   @DF-RHF iter   4:   -76.00972437196749   -3.61597e-04   3.31283e-04 DIIS
   @DF-RHF iter   5:   -76.00974512516288   -2.07532e-05   6.02033e-05 DIIS
   @DF-RHF iter   6:   -76.00974610548364   -9.80321e-07   9.09005e-06 DIIS
   @DF-RHF iter   7:   -76.00974612966580   -2.41822e-08   1.51984e-06 DIIS
   @DF-RHF iter   8:   -76.00974613038952   -7.23716e-10   3.31385e-07 DIIS
   @DF-RHF iter   9:   -76.00974613042692   -3.74030e-11   4.81593e-08 DIIS
   @DF-RHF iter  10:   -76.00974613042752   -5.96856e-13   5.65780e-09 DIIS
   @DF-RHF iter  11:   -76.00974613042750    1.42109e-14   5.38253e-10 DIIS
   @DF-RHF iter  12:   -76.00974613042754   -4.26326e-14   3.52373e-11 DIIS
  Energy and wave function converged.


  ==> Post-Iterations <==

    Orbital Energies [Eh]
    ---------------------

    Doubly Occupied:                                                      

       1Ap   -20.562983     2Ap    -1.336241     3Ap    -0.699547  
       4Ap    -0.569928     1App   -0.497327  

    Virtual:                                                              

       5Ap     0.208114     6Ap     0.300894     7Ap     1.015168  
       8Ap     1.128085     9Ap     1.162620     2App    1.167696  
      10Ap     1.376738    11Ap     1.435484    12Ap     2.022224  
       3App    2.037560     4App    2.069936    13Ap     2.607861  
      14Ap     2.926160    15Ap     3.963457  

    Final Occupation by Irrep:
             Ap   App 
    DOCC [     4,    1 ]

  @DF-RHF Final Energy:   -76.00974613042754

   => Energetics <=

    Nuclear Repulsion Energy =              9.0843257981151506
    One-Electron Energy =                -122.8560921936742716
    Two-Electron Energy =                  37.7620202651315822
    Total Energy =                        -76.0097461304275441

Computation Completed


Properties will be evaluated at   0.000000,   0.000000,   0.000000 [a0]

Properties computed using the SCF density matrix

  Nuclear Dipole Moment: [e a0]
     X:     0.8109      Y:    -0.5734      Z:     0.0000

  Electronic Dipole Moment: [e a0]
     X:    -0.0900      Y:     0.0636      Z:     0.0000

  Dipole Moment: [e a0]
     X:     0.7209      Y:    -0.5098      Z:     0.0000     Total:     0.8830

  Dipole Moment: [D]
     X:     1.8325      Y:    -1.2958      Z:     0.0000     Total:     2.2443


*** tstop() called on bme-nova.bme.utexas.edu at Sun Dec 29 13:28:33 2019
Module time:
	user time   =       0.62 seconds =       0.01 minutes
	system time =       0.01 seconds =       0.00 minutes
	total time  =          1 seconds =       0.02 minutes
Total time:
	user time   =       0.62 seconds =       0.01 minutes
	system time =       0.01 seconds =       0.00 minutes
	total time  =          1 seconds =       0.02 minutes

*** tstart() called on bme-nova.bme.utexas.edu
*** at Sun Dec 29 13:28:33 2019


  //>>>>>>>>>>>>>>>>>>>>>>>>>>>>>>>>>>>//
  //               DFMP2               //
  //<<<<<<<<<<<<<<<<<<<<<<<<<<<<<<<<<<<//

   => Loading Basis Set <=

    Name: (6-31G* AUX)
    Role: RIFIT
    Keyword: DF_BASIS_MP2
    atoms 1   entry O          line   235 file /home/bdw2292/miniconda3/envs/p4env/share/psi4/basis/cc-pvdz-ri.gbs 
    atoms 2-3 entry H          line    19 file /home/bdw2292/miniconda3/envs/p4env/share/psi4/basis/cc-pvdz-ri.gbs 

	 --------------------------------------------------------
	                          DF-MP2                         
	      2nd-Order Density-Fitted Moller-Plesset Theory     
	              RMP2 Wavefunction,   1 Threads             
	                                                         
	        Rob Parrish, Justin Turney, Andy Simmonett,      
	           Ed Hohenstein, and C. David Sherrill          
	 --------------------------------------------------------

   => Auxiliary Basis Set <=

  Basis Set: (6-31G* AUX)
    Blend: CC-PVDZ-RI
    Number of shells: 30
    Number of basis function: 84
    Number of Cartesian functions: 96
    Spherical Harmonics?: true
    Max angular momentum: 3

	 --------------------------------------------------------
	                 NBF =    19, NAUX =    84
	 --------------------------------------------------------
	   CLASS    FOCC     OCC    AOCC    AVIR     VIR    FVIR
	   PAIRS       0       5       5      14      14       0
	 --------------------------------------------------------

  DFHelper Memory: AOs need 0.001 GiB; user supplied 0.489 GiB. Using in-core AOs.


         ------------------------------------------------------------
                                     CPHF                           
                                  Rob Parrish                       
         ------------------------------------------------------------

  ==> Geometry <==

    Molecular point group: cs
    Full point group: Cs

    Geometry (in Angstrom), charge = 0, multiplicity = 1:

       Center              X                  Y                   Z               Mass       
    ------------   -----------------  -----------------  -----------------  -----------------
         O           -0.054520842983     0.038554673889     0.000000000000    15.994914619570
         H            0.873447173618     0.317454674185     0.000000000000     1.007825032230
         H           -0.008161830814    -0.929345327140     0.000000000000     1.007825032230

  Nuclear repulsion =    9.084325798115151
  Reference energy  =  -76.009746130427544

  ==> Basis Set <==

  Basis Set: 6-31G*
    Blend: 6-31G*
    Number of shells: 10
    Number of basis function: 19
    Number of Cartesian functions: 19
    Spherical Harmonics?: false
    Max angular momentum: 2

  ==> CGRSolver (by Rob Parrish) <==

   Number of roots    =         1
   Preconditioning    =    JACOBI
   Convergence cutoff =     1E-06
   Maximum iterations =       100

  ==> CPHFRHamiltonian (by Rob Parrish) <== 

  ==> MemDFJK: Density-Fitted J/K Matrices <==

    J tasked:                   Yes
    K tasked:                   Yes
    wK tasked:                   No
    OpenMP threads:               1
    Memory [MiB]:               500
    Algorithm:                 Core
    Schwarz Cutoff:           1E-12
    Mask sparsity (%):       0.0000
    Fitting Condition:        1E-10

   => Auxiliary Basis Set <=

  Basis Set: (6-31G* AUX)
    Blend: CC-PVDZ-JKFIT
    Number of shells: 42
    Number of basis function: 131
    Number of Cartesian functions: 131
    Spherical Harmonics?: false
    Max angular momentum: 3

  ==> CPHF Iterations <==

  => Iterations <=

             Iter  Converged  Remaining    Residual
  CGR           1          0          1   6.451E-02
  CGR           2          0          1   1.515E-02
  CGR           3          0          1   2.378E-03
  CGR           4          0          1   4.963E-04
  CGR           5          0          1   8.310E-05
  CGR           6          0          1   1.586E-05
  CGR           7          0          1   1.229E-06
  CGR           8          1          0   1.588E-07

    CGRSolver converged.

  ==> DFCorrGrad: Density-Fitted Correlated Gradients <==

    OpenMP threads:              1
    Integrals threads:           1
    Memory [GiB]:            0.489
    Schwarz Cutoff:          0E+00
    Fitting Condition:       1E-10

   => Auxiliary Basis Set <=

  Basis Set: (6-31G* AUX)
    Blend: CC-PVDZ-JKFIT
    Number of shells: 42
    Number of basis function: 131
    Number of Cartesian functions: 131
    Spherical Harmonics?: false
    Max angular momentum: 3

	-----------------------------------------------------------
	 ==================> DF-MP2 Energies <==================== 
	-----------------------------------------------------------
	 Reference Energy          =     -76.0097461304275441 [Eh]
	 Singles Energy            =      -0.0000000000000000 [Eh]
	 Same-Spin Energy          =      -0.0485766678706634 [Eh]
	 Opposite-Spin Energy      =      -0.1408422683891534 [Eh]
	 Correlation Energy        =      -0.1894189362598168 [Eh]
	 Total Energy              =     -76.1991650666873568 [Eh]
	-----------------------------------------------------------
	 ================> DF-SCS-MP2 Energies <================== 
	-----------------------------------------------------------
	 SCS Same-Spin Scale       =       0.3333333333333333 [-]
	 SCS Opposite-Spin Scale   =       1.2000000000000000 [-]
	 SCS Same-Spin Energy      =      -0.0161922226235545 [Eh]
	 SCS Opposite-Spin Energy  =      -0.1690107220669841 [Eh]
	 SCS Correlation Energy    =      -0.1852029446905386 [Eh]
	 SCS Total Energy          =     -76.1949490751180889 [Eh]
	-----------------------------------------------------------


  -Total Gradient:
     Atom            X                  Y                   Z
    ------   -----------------  -----------------  -----------------
       1       -0.000384824891     0.000307627012     0.000000000000
       2        0.000355585647     0.000096566002     0.000000000000
       3        0.000029239244    -0.000404193014     0.000000000000


*** tstop() called on bme-nova.bme.utexas.edu at Sun Dec 29 13:28:34 2019
Module time:
	user time   =       0.54 seconds =       0.01 minutes
	system time =       0.02 seconds =       0.00 minutes
	total time  =          1 seconds =       0.02 minutes
Total time:
	user time   =       1.16 seconds =       0.02 minutes
	system time =       0.03 seconds =       0.00 minutes
	total time  =          2 seconds =       0.03 minutes

			-----------------------------------------
			 OPTKING 2.0: for geometry optimizations 
			  - R.A. King,  Bethel University        
			-----------------------------------------

	Internal coordinates to be generated automatically.
	Detected frag 1 with atoms:  1 2 3
	---Fragment 1 Bond Connectivity---
	 1 : 2 3
	 2 : 1
	 3 : 1

	---Fragment 1 Geometry and Gradient---
	 O          -0.1030294614        0.0728577745        0.0000000000
	 H           1.6505759432        0.5999023915        0.0000000000
	 H          -0.0154236249       -1.7562081443        0.0000000000
	            -0.0003848249        0.0003076270        0.0000000000
	             0.0003555856        0.0000965660        0.0000000000
	             0.0000292392       -0.0004041930        0.0000000000

	Previous optimization step data not found.  Starting new optimization.

	---Fragment 1 Intrafragment Coordinates---
	 - Coordinate -           - BOHR/RAD -       - ANG/DEG -
	 R(1,2)           =         1.831095	       0.968974
	 R(1,3)           =         1.831163	       0.969010
	 B(2,1,3)         =         1.814897	     103.985935

	Current energy   :       -76.1991650667

	Generating empirical Hessian (Schlegel '84) for each fragment.
	Taking RFO optimization step.
	Going to follow RFO solution 1.
	Using RFO vector 1.
	Norm of target step-size    0.00103
	Projected energy change by RFO approximation:        -0.0000002757

	Back-transformation to cartesian coordinates...
	Successfully converged to displaced geometry.

	--- Internal Coordinate Step in ANG or DEG, aJ/ANG or AJ/DEG ---
	 ---------------------------------------------------------------------------
	   Coordinate                Previous        Force       Change         New 
	   ----------                --------       ------       ------       ------
	    1 R(1,2)          =      0.968974    -0.003035    -0.000364     0.968610
	    2 R(1,3)          =      0.969010    -0.003338    -0.000400     0.968609
	    3 B(2,1,3)        =    103.985935     0.000001     0.006471   103.992406
	 ---------------------------------------------------------------------------
	Successfully symmetrized geometry.

  ==> Convergence Check <==

  Measures of convergence in internal coordinates in au.
  Criteria marked as inactive (o), active & met (*), and active & unmet ( ).
  --------------------------------------------------------------------------------------------- ~
   Step     Total Energy     Delta E     MAX Force     RMS Force      MAX Disp      RMS Disp    ~
  --------------------------------------------------------------------------------------------- ~
    Convergence Criteria    1.00e-06 *    3.00e-04 *             o    1.20e-03 *             o  ~
  --------------------------------------------------------------------------------------------- ~
      1     -76.19916507   -7.62e+01      4.05e-04      3.16e-04 o    7.56e-04 *    5.94e-04 o  ~
  ---------------------------------------------------------------------------------------------

	Writing optimization data to binary file.
	Structure for next step:
	Cartesian Geometry (in Angstrom)
	    O    -0.0543767550   0.0384371216   0.0000000000
	    H     0.8732249080   0.3172923521   0.0000000000
	    H    -0.0080836564  -0.9290654505   0.0000000000
			--------------------------
			 OPTKING Finished Execution 
			--------------------------

    Structure for next step:
    Molecular point group: cs
    Full point group: Cs

    Geometry (in Angstrom), charge = 0, multiplicity = 1:

    O           -0.054496654631     0.038534940133     0.000000000000
    H            0.873105012011     0.317390171806     0.000000000000
    H           -0.008203555903    -0.928967635735     0.000000000000

gradient() will perform analytic gradient computation.
    SCF Algorithm Type (re)set to DF.

*** tstart() called on bme-nova.bme.utexas.edu
*** at Sun Dec 29 13:28:34 2019

   => Loading Basis Set <=

    Name: 6-31G*
    Role: ORBITAL
    Keyword: BASIS
    atoms 1   entry O          line   145 file /home/bdw2292/miniconda3/envs/p4env/share/psi4/basis/6-31gs.gbs 
    atoms 2-3 entry H          line    44 file /home/bdw2292/miniconda3/envs/p4env/share/psi4/basis/6-31gs.gbs 


         ---------------------------------------------------------
                                   SCF
               by Justin Turney, Rob Parrish, Andy Simmonett
                          and Daniel G. A. Smith
                              RHF Reference
                        1 Threads,    667 MiB Core
         ---------------------------------------------------------

  ==> Geometry <==

    Molecular point group: cs
    Full point group: Cs

    Geometry (in Angstrom), charge = 0, multiplicity = 1:

       Center              X                  Y                   Z               Mass       
    ------------   -----------------  -----------------  -----------------  -----------------
         O           -0.054496654631     0.038534940133     0.000000000000    15.994914619570
         H            0.873105012011     0.317390171806     0.000000000000     1.007825032230
         H           -0.008203555903    -0.928967635735     0.000000000000     1.007825032230

  Running in cs symmetry.

  Rotational constants: A =     26.47717  B =     14.35702  C =      9.30919 [cm^-1]
  Rotational constants: A = 793765.53768  B = 430412.77196  C = 279082.56720 [MHz]
  Nuclear repulsion =    9.087892479636434

  Charge       = 0
  Multiplicity = 1
  Electrons    = 10
  Nalpha       = 5
  Nbeta        = 5

  ==> Algorithm <==

  SCF Algorithm Type is DF.
  DIIS enabled.
  MOM disabled.
  Fractional occupation disabled.
  Guess Type is READ.
  Energy threshold   = 1.00e-10
  Density threshold  = 1.00e-10
  Integral threshold = 0.00e+00

  ==> Primary Basis <==

  Basis Set: 6-31G*
    Blend: 6-31G*
    Number of shells: 10
    Number of basis function: 19
    Number of Cartesian functions: 19
    Spherical Harmonics?: false
    Max angular momentum: 2

   => Loading Basis Set <=

    Name: (6-31G* AUX)
    Role: JKFIT
    Keyword: DF_BASIS_SCF
    atoms 1   entry O          line   221 file /home/bdw2292/miniconda3/envs/p4env/share/psi4/basis/cc-pvdz-jkfit.gbs 
    atoms 2-3 entry H          line    51 file /home/bdw2292/miniconda3/envs/p4env/share/psi4/basis/cc-pvdz-jkfit.gbs 

   => Loading Basis Set <=

    Name: 6-31G*
    Role: ORBITAL
    Keyword: BASIS
    atoms 1   entry O          line   145 file /home/bdw2292/miniconda3/envs/p4env/share/psi4/basis/6-31gs.gbs 
    atoms 2-3 entry H          line    44 file /home/bdw2292/miniconda3/envs/p4env/share/psi4/basis/6-31gs.gbs 

  Reading orbitals from file 180, no projection.

  ==> Pre-Iterations <==

   -------------------------------------------------------
    Irrep   Nso     Nmo     Nalpha   Nbeta   Ndocc  Nsocc
   -------------------------------------------------------
     A'        15      15       0       0       0       0
     A"         4       4       0       0       0       0
   -------------------------------------------------------
    Total      19      19       5       5       5       0
   -------------------------------------------------------

  ==> Integral Setup <==

  DFHelper Memory: AOs need 0.001 GiB; user supplied 0.489 GiB. Using in-core AOs.

  ==> MemDFJK: Density-Fitted J/K Matrices <==

    J tasked:                   Yes
    K tasked:                   Yes
    wK tasked:                   No
    OpenMP threads:               1
    Memory [MiB]:               500
    Algorithm:                 Core
    Schwarz Cutoff:           1E-12
    Mask sparsity (%):       0.0000
    Fitting Condition:        1E-10

   => Auxiliary Basis Set <=

  Basis Set: (6-31G* AUX)
    Blend: CC-PVDZ-JKFIT
    Number of shells: 42
    Number of basis function: 131
    Number of Cartesian functions: 131
    Spherical Harmonics?: false
    Max angular momentum: 3

  Minimum eigenvalue in the overlap matrix is 2.2699655882E-02.
  Using Symmetric Orthogonalization.

  SCF Guess: Orbitals guess was supplied from a previous computation.

  ==> Iterations <==

                           Total Energy        Delta E     RMS |[F,P]|

   @DF-RHF iter   0:   -76.01017941419732   -7.60102e+01   5.31329e-05 
   @DF-RHF iter   1:   -76.00977838448115    4.01030e-04   7.76210e-06 DIIS
   @DF-RHF iter   2:   -76.00977839332887   -8.84772e-09   1.78428e-06 DIIS
   @DF-RHF iter   3:   -76.00977839412103   -7.92156e-10   6.23425e-07 DIIS
   @DF-RHF iter   4:   -76.00977839425222   -1.31195e-10   1.27902e-07 DIIS
   @DF-RHF iter   5:   -76.00977839425734   -5.11591e-12   5.55937e-08 DIIS
   @DF-RHF iter   6:   -76.00977839425774   -3.97904e-13   1.17574e-08 DIIS
   @DF-RHF iter   7:   -76.00977839425778   -4.26326e-14   1.64007e-09 DIIS
   @DF-RHF iter   8:   -76.00977839425782   -4.26326e-14   2.21809e-10 DIIS
   @DF-RHF iter   9:   -76.00977839425784   -1.42109e-14   2.48455e-11 DIIS
  Energy and wave function converged.


  ==> Post-Iterations <==

    Orbital Energies [Eh]
    ---------------------

    Doubly Occupied:                                                      

       1Ap   -20.562904     2Ap    -1.336428     3Ap    -0.699764  
       4Ap    -0.569985     1App   -0.497349  

    Virtual:                                                              

       5Ap     0.208198     6Ap     0.301001     7Ap     1.015362  
       8Ap     1.128252     9Ap     1.162911     2App    1.167698  
      10Ap     1.376860    11Ap     1.435478    12Ap     2.022146  
       3App    2.037464     4App    2.069878    13Ap     2.608336  
      14Ap     2.926837    15Ap     3.963668  

    Final Occupation by Irrep:
             Ap   App 
    DOCC [     4,    1 ]

  @DF-RHF Final Energy:   -76.00977839425784

   => Energetics <=

    Nuclear Repulsion Energy =              9.0878924796364338
    One-Electron Energy =                -122.8624797373710464
    Two-Electron Energy =                  37.7648088634767589
    Total Energy =                        -76.0097783942578502

Computation Completed


Properties will be evaluated at   0.000000,   0.000000,   0.000000 [a0]

Properties computed using the SCF density matrix

  Nuclear Dipole Moment: [e a0]
     X:     0.8106      Y:    -0.5732      Z:     0.0000

  Electronic Dipole Moment: [e a0]
     X:    -0.0897      Y:     0.0635      Z:     0.0000

  Dipole Moment: [e a0]
     X:     0.7208      Y:    -0.5097      Z:     0.0000     Total:     0.8828

  Dipole Moment: [D]
     X:     1.8321      Y:    -1.2955      Z:     0.0000     Total:     2.2439


*** tstop() called on bme-nova.bme.utexas.edu at Sun Dec 29 13:28:34 2019
Module time:
	user time   =       0.31 seconds =       0.01 minutes
	system time =       0.00 seconds =       0.00 minutes
	total time  =          0 seconds =       0.00 minutes
Total time:
	user time   =       1.47 seconds =       0.02 minutes
	system time =       0.03 seconds =       0.00 minutes
	total time  =          2 seconds =       0.03 minutes

*** tstart() called on bme-nova.bme.utexas.edu
*** at Sun Dec 29 13:28:34 2019


  //>>>>>>>>>>>>>>>>>>>>>>>>>>>>>>>>>>>//
  //               DFMP2               //
  //<<<<<<<<<<<<<<<<<<<<<<<<<<<<<<<<<<<//

   => Loading Basis Set <=

    Name: (6-31G* AUX)
    Role: RIFIT
    Keyword: DF_BASIS_MP2
    atoms 1   entry O          line   235 file /home/bdw2292/miniconda3/envs/p4env/share/psi4/basis/cc-pvdz-ri.gbs 
    atoms 2-3 entry H          line    19 file /home/bdw2292/miniconda3/envs/p4env/share/psi4/basis/cc-pvdz-ri.gbs 

	 --------------------------------------------------------
	                          DF-MP2                         
	      2nd-Order Density-Fitted Moller-Plesset Theory     
	              RMP2 Wavefunction,   1 Threads             
	                                                         
	        Rob Parrish, Justin Turney, Andy Simmonett,      
	           Ed Hohenstein, and C. David Sherrill          
	 --------------------------------------------------------

   => Auxiliary Basis Set <=

  Basis Set: (6-31G* AUX)
    Blend: CC-PVDZ-RI
    Number of shells: 30
    Number of basis function: 84
    Number of Cartesian functions: 96
    Spherical Harmonics?: true
    Max angular momentum: 3

	 --------------------------------------------------------
	                 NBF =    19, NAUX =    84
	 --------------------------------------------------------
	   CLASS    FOCC     OCC    AOCC    AVIR     VIR    FVIR
	   PAIRS       0       5       5      14      14       0
	 --------------------------------------------------------

  DFHelper Memory: AOs need 0.001 GiB; user supplied 0.489 GiB. Using in-core AOs.


         ------------------------------------------------------------
                                     CPHF                           
                                  Rob Parrish                       
         ------------------------------------------------------------

  ==> Geometry <==

    Molecular point group: cs
    Full point group: Cs

    Geometry (in Angstrom), charge = 0, multiplicity = 1:

       Center              X                  Y                   Z               Mass       
    ------------   -----------------  -----------------  -----------------  -----------------
         O           -0.054496654631     0.038534940133     0.000000000000    15.994914619570
         H            0.873105012011     0.317390171806     0.000000000000     1.007825032230
         H           -0.008203555903    -0.928967635735     0.000000000000     1.007825032230

  Nuclear repulsion =    9.087892479636434
  Reference energy  =  -76.009778394257836

  ==> Basis Set <==

  Basis Set: 6-31G*
    Blend: 6-31G*
    Number of shells: 10
    Number of basis function: 19
    Number of Cartesian functions: 19
    Spherical Harmonics?: false
    Max angular momentum: 2

  ==> CGRSolver (by Rob Parrish) <==

   Number of roots    =         1
   Preconditioning    =    JACOBI
   Convergence cutoff =     1E-06
   Maximum iterations =       100

  ==> CPHFRHamiltonian (by Rob Parrish) <== 

  ==> MemDFJK: Density-Fitted J/K Matrices <==

    J tasked:                   Yes
    K tasked:                   Yes
    wK tasked:                   No
    OpenMP threads:               1
    Memory [MiB]:               500
    Algorithm:                 Core
    Schwarz Cutoff:           1E-12
    Mask sparsity (%):       0.0000
    Fitting Condition:        1E-10

   => Auxiliary Basis Set <=

  Basis Set: (6-31G* AUX)
    Blend: CC-PVDZ-JKFIT
    Number of shells: 42
    Number of basis function: 131
    Number of Cartesian functions: 131
    Spherical Harmonics?: false
    Max angular momentum: 3

  ==> CPHF Iterations <==

  => Iterations <=

             Iter  Converged  Remaining    Residual
  CGR           1          0          1   6.458E-02
  CGR           2          0          1   1.513E-02
  CGR           3          0          1   2.375E-03
  CGR           4          0          1   4.952E-04
  CGR           5          0          1   8.308E-05
  CGR           6          0          1   1.583E-05
  CGR           7          0          1   1.227E-06
  CGR           8          1          0   1.587E-07

    CGRSolver converged.

  ==> DFCorrGrad: Density-Fitted Correlated Gradients <==

    OpenMP threads:              1
    Integrals threads:           1
    Memory [GiB]:            0.489
    Schwarz Cutoff:          0E+00
    Fitting Condition:       1E-10

   => Auxiliary Basis Set <=

  Basis Set: (6-31G* AUX)
    Blend: CC-PVDZ-JKFIT
    Number of shells: 42
    Number of basis function: 131
    Number of Cartesian functions: 131
    Spherical Harmonics?: false
    Max angular momentum: 3

	-----------------------------------------------------------
	 ==================> DF-MP2 Energies <==================== 
	-----------------------------------------------------------
	 Reference Energy          =     -76.0097783942578360 [Eh]
	 Singles Energy            =      -0.0000000000000000 [Eh]
	 Same-Spin Energy          =      -0.0485704355112479 [Eh]
	 Opposite-Spin Energy      =      -0.1408165312576693 [Eh]
	 Correlation Energy        =      -0.1893869667689172 [Eh]
	 Total Energy              =     -76.1991653610267576 [Eh]
	-----------------------------------------------------------
	 ================> DF-SCS-MP2 Energies <================== 
	-----------------------------------------------------------
	 SCS Same-Spin Scale       =       0.3333333333333333 [-]
	 SCS Opposite-Spin Scale   =       1.2000000000000000 [-]
	 SCS Same-Spin Energy      =      -0.0161901451704160 [Eh]
	 SCS Opposite-Spin Energy  =      -0.1689798375092031 [Eh]
	 SCS Correlation Energy    =      -0.1851699826796191 [Eh]
	 SCS Total Energy          =     -76.1949483769374609 [Eh]
	-----------------------------------------------------------


  -Total Gradient:
     Atom            X                  Y                   Z
    ------   -----------------  -----------------  -----------------
       1       -0.000046293480     0.000032322233     0.000000000000
       2        0.000021668324    -0.000018479650     0.000000000000
       3        0.000024625155    -0.000013842583     0.000000000000


*** tstop() called on bme-nova.bme.utexas.edu at Sun Dec 29 13:28:34 2019
Module time:
	user time   =       0.55 seconds =       0.01 minutes
	system time =       0.01 seconds =       0.00 minutes
	total time  =          0 seconds =       0.00 minutes
Total time:
	user time   =       2.02 seconds =       0.03 minutes
	system time =       0.04 seconds =       0.00 minutes
	total time  =          2 seconds =       0.03 minutes

			-----------------------------------------
			 OPTKING 2.0: for geometry optimizations 
			  - R.A. King,  Bethel University        
			-----------------------------------------

	Previous internal coordinate definitions found.
	---Fragment 1 Geometry and Gradient---
	 O          -0.1029837520        0.0728204831        0.0000000000
	 H           1.6499293515        0.5997804996        0.0000000000
	 H          -0.0155024739       -1.7554944110        0.0000000000
	            -0.0000462935        0.0000323222        0.0000000000
	             0.0000216683       -0.0000184797        0.0000000000
	             0.0000246252       -0.0000138426        0.0000000000

	---Fragment 1 Intrafragment Coordinates---
	 - Coordinate -           - BOHR/RAD -       - ANG/DEG -
	 R(1,2)           =         1.830407	       0.968610
	 R(1,3)           =         1.830407	       0.968609
	 B(2,1,3)         =         1.815010	     103.992406

	Current energy   :       -76.1991653610

	Energy change for the previous step:
		Projected    :        -0.0000002757
		Actual       :        -0.0000002943
	Energy ratio indicates good step: Trust radius increased to 1.000e+00.


	Performing BFGS update.
	Previous computed or guess Hessian on step 1.
	Steps to be used in Hessian update: 1
	Taking RFO optimization step.
	Going to follow RFO solution 1.
	Using RFO vector 1.
	Norm of target step-size    0.00030
	Projected energy change by RFO approximation:        -0.0000000203

	Back-transformation to cartesian coordinates...
	Successfully converged to displaced geometry.

	--- Internal Coordinate Step in ANG or DEG, aJ/ANG or AJ/DEG ---
	 ---------------------------------------------------------------------------
	   Coordinate                Previous        Force       Change         New 
	   ----------                --------       ------       ------       ------
	    1 R(1,2)          =      0.968610    -0.000127    -0.000024     0.968586
	    2 R(1,3)          =      0.968609    -0.000124    -0.000025     0.968585
	    3 B(2,1,3)        =    103.992406     0.000003     0.016625   104.009031
	 ---------------------------------------------------------------------------
	Successfully symmetrized geometry.

  ==> Convergence Check <==

  Measures of convergence in internal coordinates in au.
  Criteria marked as inactive (o), active & met (*), and active & unmet ( ).
  ---------------------------------------------------------------------------------------------
   Step     Total Energy     Delta E     MAX Force     RMS Force      MAX Disp      RMS Disp   
  ---------------------------------------------------------------------------------------------
    Convergence Criteria    1.00e-06 *    3.00e-04 *             o    1.20e-03 *             o
  ---------------------------------------------------------------------------------------------
      2     -76.19916536   -2.94e-07 *    4.38e-05 *    2.82e-05 o    2.90e-04 *    1.72e-04 o  ~
  ---------------------------------------------------------------------------------------------


  **** Optimization is complete! (in 2 steps) ****

  ==> Optimization Summary <==

  Measures of convergence in internal coordinates in au.
  --------------------------------------------------------------------------------------------------------------- ~
   Step         Total Energy             Delta E       MAX Force       RMS Force        MAX Disp        RMS Disp  ~
  --------------------------------------------------------------------------------------------------------------- ~
      1     -76.199165066687    -76.199165066687      0.00040513      0.00031629      0.00075612      0.00059356  ~
      2     -76.199165361027     -0.000000294339      0.00004381      0.00002818      0.00029017      0.00017173  ~
  --------------------------------------------------------------------------------------------------------------- ~

	Writing optimization data to binary file.
	Final energy is    -76.1991653610268
	Final (previous) structure:
	Cartesian Geometry (in Angstrom)
	    O    -0.0544966544   0.0385349400   0.0000000000
	    H     0.8731050086   0.3173901706   0.0000000000
	    H    -0.0082035559  -0.9289676321   0.0000000000
	Saving final (previous) structure.
			--------------------------
			 OPTKING Finished Execution 
			--------------------------

    Final optimized geometry and variables:
    Molecular point group: cs
    Full point group: Cs

    Geometry (in Angstrom), charge = 0, multiplicity = 1:

    O           -0.054496654631     0.038534940133     0.000000000000
    H            0.873105012011     0.317390171806     0.000000000000
    H           -0.008203555903    -0.928967635735     0.000000000000

	Removing binary optimization data file.
	Cleaning optimization helper files.

    Psi4 stopped on: Sunday, 29 December 2019 01:28PM
    Psi4 wall time for execution: 0:00:02.09

*** Psi4 exiting successfully. Buy a developer a beer!
