Generated by Psi4
        SP                        DF-MP2                      6-311G**
Number of atoms                            I                3
Charge                                     I                0
Multiplicity                               I                1
Number of electrons                        I               10
Number of alpha electrons                  I                5
Number of beta electrons                   I                5
Number of basis functions                  I               30
Number of independent functions            I               30
Atomic numbers                             I   N=           3
           8           1           1
Nuclear charges                            R   N=           3
  8.00000000e+00  1.00000000e+00  1.00000000e+00
Current cartesian coordinates              R   N=           9
 -1.02983752e-01  7.28204831e-02  0.00000000e+00  1.64992935e+00  5.99780500e-01
  0.00000000e+00 -1.55024739e-02 -1.75549441e+00  0.00000000e+00
Integer atomic weights                     I   N=           3
          15           1           1
Real atomic weights                        R   N=           3
  1.59949146e+01  1.00782503e+00  1.00782503e+00
Number of primitive shells                 I               29
Number of contracted shells                I               16
Pure/Cartesian d shells                    I                0
Pure/Cartesian f shells                    I                0
Highest angular momentum                   I                2
Largest degree of contraction              I                6
Shell types                                I   N=          16
           0           0           1           0           1           0
           1          -2           0           0           0           1
           0           0           0           1
Number of primitives per shell             I   N=          16
           6           3           3           1           1           1
           1           1           3           1           1           1
           3           1           1           1
Shell to atom map                          I   N=          16
           1           1           1           1           1           1
           1           1           2           2           2           2
           3           3           3           3
Primitive exponents                        R   N=          29
  8.58850000e+03  1.29723000e+03  2.99296000e+02  8.73771000e+01  2.56789000e+01
  3.74004000e+00  4.21175000e+01  9.62837000e+00  2.85332000e+00  4.21175000e+01
  9.62837000e+00  2.85332000e+00  9.05661000e-01  9.05661000e-01  2.55611000e-01
  2.55611000e-01  1.29200000e+00  3.38650000e+01  5.09479000e+00  1.15879000e+00
  3.25840000e-01  1.02741000e-01  7.50000000e-01  3.38650000e+01  5.09479000e+00
  1.15879000e+00  3.25840000e-01  1.02741000e-01  7.50000000e-01
Contraction coefficients                   R   N=          29
  1.89515008e-03  1.43859006e-02  7.07320031e-02  2.40001011e-01  5.94797026e-01
  2.80802012e-01  1.13889012e-01  9.20811101e-01 -3.27447036e-03  3.65113974e-02
  2.37152983e-01  8.19701941e-01  1.00000000e+00  1.00000000e+00  1.00000000e+00
  1.00000000e+00  1.00000000e+00  2.54938145e-02  1.90373109e-01  8.52161486e-01
  1.00000000e+00  1.00000000e+00  1.00000000e+00  2.54938145e-02  1.90373109e-01
  8.52161486e-01  1.00000000e+00  1.00000000e+00  1.00000000e+00
Coordinates of each shell                  R   N=          48
 -1.02983752e-01  7.28204831e-02  0.00000000e+00 -1.02983752e-01  7.28204831e-02
  0.00000000e+00 -1.02983752e-01  7.28204831e-02  0.00000000e+00 -1.02983752e-01
  7.28204831e-02  0.00000000e+00 -1.02983752e-01  7.28204831e-02  0.00000000e+00
 -1.02983752e-01  7.28204831e-02  0.00000000e+00 -1.02983752e-01  7.28204831e-02
  0.00000000e+00 -1.02983752e-01  7.28204831e-02  0.00000000e+00  1.64992935e+00
  5.99780500e-01  0.00000000e+00  1.64992935e+00  5.99780500e-01  0.00000000e+00
  1.64992935e+00  5.99780500e-01  0.00000000e+00  1.64992935e+00  5.99780500e-01
  0.00000000e+00 -1.55024739e-02 -1.75549441e+00  0.00000000e+00 -1.55024739e-02
 -1.75549441e+00  0.00000000e+00 -1.55024739e-02 -1.75549441e+00  0.00000000e+00
 -1.55024739e-02 -1.75549441e+00  0.00000000e+00
Total Energy                               R     -7.626362211767699e+01
Alpha Orbital Energies                     R   N=          30
 -2.05472626e+01 -1.33599692e+00 -6.99382260e-01 -5.70798265e-01 -4.99138386e-01
  1.48706669e-01  2.15799000e-01  5.60110495e-01  6.08255674e-01  1.00038299e+00
  1.00401199e+00  1.10827942e+00  1.31626685e+00  1.48481851e+00  1.51411828e+00
  1.71149868e+00  1.91514147e+00  2.23052166e+00  2.37388797e+00  2.59648117e+00
  2.78351553e+00  3.48854958e+00  3.53852794e+00  3.70514626e+00  3.99892995e+00
  4.25196735e+00  5.32487696e+00  5.73958407e+00  6.15531519e+00  5.15370583e+01
Alpha MO coefficients                      R   N=         900
  5.51459868e-01  4.71691199e-01  1.46512129e-03 -1.03599764e-03  0.00000000e+00
  5.44390817e-03 -5.34939231e-04  3.78259015e-04  0.00000000e+00 -4.63538838e-04
  7.27131824e-05 -5.14160733e-05  0.00000000e+00  1.41882744e-04  0.00000000e+00
  0.00000000e+00  1.85001755e-05 -5.23272082e-05  1.97515838e-04  1.19595677e-04
  8.68392049e-05 -7.88132074e-05 -5.47396352e-05  0.00000000e+00  1.97516044e-04
  1.19595288e-04  8.68394037e-05  2.53380471e-05  9.25520932e-05  0.00000000e+00
  1.13638074e-01  1.89912786e-01 -2.90339954e-02  2.05301907e-02  0.00000000e+00
 -5.41654221e-01 -4.91974000e-02  3.47878928e-02  0.00000000e+00 -3.80404383e-01
 -1.68352633e-02  1.19043495e-02  0.00000000e+00  7.76530624e-03  0.00000000e+00
  0.00000000e+00  4.01819977e-04 -1.13648523e-03 -9.17173229e-02 -8.05066951e-02
  2.20559633e-03  2.56331537e-02  1.06287396e-02  0.00000000e+00 -9.17174346e-02
 -8.05067517e-02  2.20560543e-03 -1.47649241e-03 -2.77100920e-02  0.00000000e+00
 -2.95664437e-08 -5.04724253e-08  1.30237300e-01  1.84183504e-01  0.00000000e+00
  1.52108232e-07  2.00366737e-01  2.83361559e-01  0.00000000e+00  2.82681644e-07
  1.26105107e-01  1.78339683e-01  0.00000000e+00  8.32715151e-09  0.00000000e+00
  0.00000000e+00  2.68376869e-02  9.48854929e-03  1.47421503e-01  2.13751310e-01
  5.98655754e-02 -3.26503186e-02 -3.39071722e-04  0.00000000e+00 -1.47421586e-01
 -2.13751385e-01 -5.98655446e-02  1.05637461e-02 -3.08960343e-02  0.00000000e+00
  3.80806109e-02  6.46999288e-02  2.06950695e-01 -1.46336187e-01  0.00000000e+00
 -1.95827546e-01  3.06530159e-01 -2.16749457e-01  0.00000000e+00 -3.30424991e-01
  2.75932157e-01 -1.95113430e-01  0.00000000e+00 -1.27395515e-02  0.00000000e+00
  0.00000000e+00  4.02730719e-03 -1.13909344e-02  8.83578766e-02  1.50837658e-01
  3.09991481e-02 -1.09189237e-02 -2.91246196e-02  0.00000000e+00  8.83577852e-02
  1.50837486e-01  3.09990233e-02  2.38193383e-02  2.00026359e-02  0.00000000e+00
  0.00000000e+00  0.00000000e+00  0.00000000e+00  0.00000000e+00  2.92395999e-01
  0.00000000e+00  0.00000000e+00  0.00000000e+00  4.37273572e-01  0.00000000e+00
  0.00000000e+00  0.00000000e+00  4.66972030e-01  0.00000000e+00  1.37989983e-02
 -9.75737332e-03  0.00000000e+00  0.00000000e+00  0.00000000e+00  0.00000000e+00
  0.00000000e+00  0.00000000e+00  0.00000000e+00  3.03992915e-02  0.00000000e+00
  0.00000000e+00  0.00000000e+00  0.00000000e+00  0.00000000e+00  3.03993099e-02
  3.34937748e-02  5.45807017e-02 -6.33815017e-02  4.48173796e-02  0.00000000e+00
 -1.03798868e-01 -9.83113180e-02  6.95164843e-02  0.00000000e+00 -8.36275626e-01
 -1.77299891e-01  1.25369577e-01  0.00000000e+00  4.55796877e-03  0.00000000e+00
  0.00000000e+00 -9.92649463e-04  2.80766534e-03  3.70202449e-02 -6.37161070e-02
  8.35391758e-01  1.16634343e-03  7.05575576e-03  0.00000000e+00  3.70201723e-02
 -6.37161137e-02  8.35390758e-01 -6.26346626e-03 -3.45152971e-03  0.00000000e+00
  1.54791513e-08  2.45020335e-08  7.20624840e-02  1.01911721e-01  0.00000000e+00
 -2.67068994e-08  7.79781452e-02  1.10277743e-01  0.00000000e+00 -5.28566945e-07
  2.91892212e-01  4.12797753e-01  0.00000000e+00  6.88874394e-09  0.00000000e+00
  0.00000000e+00  4.33510892e-03  1.53268464e-03 -2.78080956e-02  1.20151141e-01
 -1.54268148e+00 -1.13596438e-02 -1.60570690e-03  0.00000000e+00  2.78080689e-02
 -1.20151380e-01  1.54268243e+00  2.27267402e-03 -1.12452233e-02  0.00000000e+00
 -8.38521113e-08 -1.45888359e-07  7.09779775e-02  1.00377496e-01  0.00000000e+00
  3.73102013e-07  1.05934361e-01  1.49812954e-01  0.00000000e+00  2.02443008e-06
  6.14378482e-01  8.68858605e-01  0.00000000e+00  2.32733943e-08  0.00000000e+00
  0.00000000e+00 -1.42528477e-02 -5.03918587e-03 -8.41463172e-02 -1.41683079e+00
  7.70588965e-01  6.18969958e-03  2.01834138e-02  0.00000000e+00  8.41459185e-02
  1.41682283e+00 -7.70585297e-01  1.69659361e-02  1.25634233e-02  0.00000000e+00
  3.34480138e-02  5.85048078e-02 -8.44146316e-02  5.96905290e-02  0.00000000e+00
 -1.37012293e-01 -1.53544197e-01  1.08572776e-01  0.00000000e+00 -1.26912191e+00
 -8.28381189e-01  5.85758448e-01  0.00000000e+00 -4.02985486e-03  0.00000000e+00
  0.00000000e+00 -4.75828495e-03  1.34584235e-02  6.54794784e-02  1.75472129e+00
 -6.29127875e-01 -4.43859863e-02  3.15731354e-04  0.00000000e+00  6.54798606e-02
  1.75472983e+00 -6.29131205e-01 -1.50929067e-02  4.17424707e-02  0.00000000e+00
  1.50672030e-02  2.79558964e-02  1.90623874e-01 -1.34791521e-01  0.00000000e+00
 -5.96625399e-02  6.04341555e-01 -4.27334157e-01  0.00000000e+00 -8.93880658e-01
 -1.28041374e+00  9.05389677e-01  0.00000000e+00  1.13990463e-02  0.00000000e+00
  0.00000000e+00  3.48747029e-03 -9.86401464e-03  3.03448390e-02  5.82190980e-01
  9.66968207e-02 -1.74752679e-01 -5.13781636e-02  0.00000000e+00  3.03449085e-02
  5.82190988e-01  9.66972485e-02 -9.81093882e-03  1.81884478e-01  0.00000000e+00
  0.00000000e+00  0.00000000e+00  0.00000000e+00  0.00000000e+00  2.40442157e-01
  0.00000000e+00  0.00000000e+00  0.00000000e+00  8.37244509e-01  0.00000000e+00
  0.00000000e+00  0.00000000e+00 -1.14710828e+00  0.00000000e+00  6.49480583e-03
 -4.59253237e-03  0.00000000e+00  0.00000000e+00  0.00000000e+00  0.00000000e+00
  0.00000000e+00  0.00000000e+00  0.00000000e+00  1.51864983e-02  0.00000000e+00
  0.00000000e+00  0.00000000e+00  0.00000000e+00  0.00000000e+00  1.51867079e-02
  3.29190215e-09  1.94909529e-09  1.38155007e-01  1.95380605e-01  0.00000000e+00
  1.07748654e-07  4.14374703e-01  5.86013941e-01  0.00000000e+00 -1.83934895e-07
 -1.03269069e+00 -1.46044397e+00  0.00000000e+00 -9.11631619e-09  0.00000000e+00
  0.00000000e+00 -2.72624415e-02 -9.63872387e-03  1.24748526e-02  3.50738642e-01
  7.60244704e-01 -2.16609374e-01 -5.96371097e-02  0.00000000e+00 -1.24749950e-02
 -3.50737747e-01 -7.60245034e-01  1.59768183e-02 -2.24100157e-01  0.00000000e+00
  9.96150861e-02  2.05364681e-01 -2.27107167e-02  1.60589311e-02  0.00000000e+00
 -1.51241588e+00  1.20950301e-01 -8.55252085e-02  0.00000000e+00  3.05915917e+00
  4.70230073e-01 -3.32503256e-01  0.00000000e+00 -2.80153195e-02  0.00000000e+00
  0.00000000e+00  7.34180541e-03 -2.07660458e-02  1.77042134e-02 -8.39454799e-01
 -3.36249487e-01  3.86046891e-01 -9.51482260e-02  0.00000000e+00  1.77041259e-02
 -8.39455502e-01 -3.36250024e-01  2.18388848e-01 -3.32252866e-01  0.00000000e+00
  3.60713573e-02  7.55823350e-02  7.49828804e-03 -5.30205097e-03  0.00000000e+00
 -6.42617324e-01  6.18672130e-02 -4.37468209e-02  0.00000000e+00  2.01789084e+00
  1.01498270e+00 -7.17701955e-01  0.00000000e+00  9.80812674e-03  0.00000000e+00
  0.00000000e+00 -4.40192459e-02  1.24505103e-01  8.38674079e-02 -1.15485154e+00
  2.25487102e-02  8.98327846e-03  7.22811152e-01  0.00000000e+00  8.38673462e-02
 -1.15485259e+00  2.25484218e-02 -6.78478373e-01 -2.49406789e-01  0.00000000e+00
  0.00000000e+00  0.00000000e+00  0.00000000e+00  0.00000000e+00  3.78579789e-08
  0.00000000e+00  0.00000000e+00  0.00000000e+00  2.80158046e-07  0.00000000e+00
  0.00000000e+00  0.00000000e+00 -2.68794803e-07  0.00000000e+00  7.25970709e-02
  1.02667634e-01  0.00000000e+00  0.00000000e+00  0.00000000e+00  0.00000000e+00
  0.00000000e+00  0.00000000e+00  0.00000000e+00  6.88624872e-01  0.00000000e+00
  0.00000000e+00  0.00000000e+00  0.00000000e+00  0.00000000e+00 -6.88624481e-01
  0.00000000e+00  0.00000000e+00  0.00000000e+00  0.00000000e+00  4.66972040e-02
  0.00000000e+00  0.00000000e+00  0.00000000e+00  3.70803624e-02  0.00000000e+00
  0.00000000e+00  0.00000000e+00  5.58809473e-01  0.00000000e+00 -1.19972558e-01
  8.48334546e-02  0.00000000e+00  0.00000000e+00  0.00000000e+00  0.00000000e+00
  0.00000000e+00  0.00000000e+00  0.00000000e+00 -7.65328571e-01  0.00000000e+00
  0.00000000e+00  0.00000000e+00  0.00000000e+00  0.00000000e+00 -7.65329007e-01
 -1.51431688e-08 -3.33542281e-08  7.53219462e-03  1.06521565e-02  0.00000000e+00
  2.18264427e-07  2.52296609e-02  3.56802038e-02  0.00000000e+00  5.17247404e-07
 -5.11485192e-01 -7.23349390e-01  0.00000000e+00  1.96805760e-09  0.00000000e+00
  0.00000000e+00 -6.46289119e-02 -2.28497728e-02 -1.75389186e-01  7.07408098e-01
 -1.54333179e-01 -2.37892182e-01  7.68652171e-01  0.00000000e+00  1.75389029e-01
 -7.07408544e-01  1.54333054e-01  8.03989786e-01  3.19298632e-02  0.00000000e+00
 -7.65294529e-08 -1.51588456e-07  9.85361887e-02  1.39350702e-01  0.00000000e+00
  5.69910459e-07  2.80279309e-01  3.96373219e-01  0.00000000e+00  2.18140539e-06
  1.58953723e-02  2.24781425e-02  0.00000000e+00  3.73632360e-07  0.00000000e+00
  0.00000000e+00 -2.12854326e-01 -7.52553404e-02 -6.57409281e-01  6.29641688e-01
 -5.26750622e-01  5.88212382e-01 -2.72772190e-02  0.00000000e+00  6.57407562e-01
 -6.29642212e-01  5.26749620e-01 -2.21788202e-01  5.45476354e-01  0.00000000e+00
  3.21103547e-02  6.11104706e-02 -1.33302284e-01  9.42593763e-02  0.00000000e+00
 -2.68371236e-01 -2.23677103e-01  1.58164325e-01  0.00000000e+00 -2.74331223e-02
  1.27718512e-01 -9.03116970e-02  0.00000000e+00 -2.74231886e-01  0.00000000e+00
  0.00000000e+00 -2.11144299e-02  5.97186952e-02  8.48890681e-01 -9.48875375e-01
  3.98945638e-01 -3.49985232e-01 -1.87170547e-01  0.00000000e+00  8.48893861e-01
 -9.48880155e-01  3.98947737e-01  5.98040370e-02  3.92359919e-01  0.00000000e+00
  5.26153388e-02  1.22525641e-01 -1.33302511e-02  9.42601412e-03  0.00000000e+00
 -8.34289542e-01 -5.25219333e-01  3.71387504e-01  0.00000000e+00 -1.75512406e+00
 -6.18692701e-01  4.37482388e-01  0.00000000e+00 -7.40692261e-03  0.00000000e+00
  0.00000000e+00  8.22450821e-03 -2.32624358e-02 -6.27146394e-01  2.02126880e+00
 -2.92028498e-01 -1.02300026e+00 -3.35504147e-01  0.00000000e+00 -6.27144943e-01
  2.02126968e+00 -2.92027765e-01 -2.46836537e-02  1.07633074e+00  0.00000000e+00
  3.11152328e-08  8.69019332e-08  6.74808457e-03  9.54328670e-03  0.00000000e+00
 -1.03233176e-06  4.87326416e-01  6.89184335e-01  0.00000000e+00 -9.21351062e-07
  3.81980562e-01  5.40202278e-01  0.00000000e+00  2.13679279e-08  0.00000000e+00
  0.00000000e+00  2.12399906e-01  7.50946096e-02  8.19920706e-01 -2.05805303e+00
  5.32788606e-01  9.96398507e-01  3.41237911e-01  0.00000000e+00 -8.19919096e-01
  2.05805316e+00 -5.32788117e-01 -1.04104810e-02  1.05316075e+00  0.00000000e+00
  0.00000000e+00  0.00000000e+00  0.00000000e+00  0.00000000e+00  1.62958522e-02
  0.00000000e+00  0.00000000e+00  0.00000000e+00 -1.64895883e-02  0.00000000e+00
  0.00000000e+00  0.00000000e+00  2.60487884e-01  0.00000000e+00  8.42585062e-01
 -5.95792361e-01  0.00000000e+00  0.00000000e+00  0.00000000e+00  0.00000000e+00
  0.00000000e+00  0.00000000e+00  0.00000000e+00 -3.50188289e-01  0.00000000e+00
  0.00000000e+00  0.00000000e+00  0.00000000e+00  0.00000000e+00 -3.50185689e-01
  0.00000000e+00  0.00000000e+00  0.00000000e+00  0.00000000e+00 -1.25213538e-07
  0.00000000e+00  0.00000000e+00  0.00000000e+00  3.23115861e-08  0.00000000e+00
  0.00000000e+00  0.00000000e+00 -1.25076768e-06  0.00000000e+00  6.05993378e-01
  8.57011543e-01  0.00000000e+00  0.00000000e+00  0.00000000e+00  0.00000000e+00
  0.00000000e+00  0.00000000e+00  0.00000000e+00 -3.32192234e-01  0.00000000e+00
  0.00000000e+00  0.00000000e+00  0.00000000e+00  0.00000000e+00  3.32195543e-01
 -3.81614743e-04 -3.81301135e-04  2.72953256e-02 -1.93006367e-02  0.00000000e+00
 -5.91312019e-02  1.63339484e-02 -1.15499093e-02  0.00000000e+00  6.53124193e-01
  4.71411029e-01 -3.33337766e-01  0.00000000e+00 -3.87030833e-01  0.00000000e+00
  0.00000000e+00  3.35277502e-01 -9.48308520e-01 -6.19635423e-03 -4.49994340e-01
  3.10932271e-02  7.47788804e-03  4.42749944e-01  0.00000000e+00 -6.19627868e-03
 -4.49994495e-01  3.10933394e-02 -4.14936537e-01 -1.54633417e-01  0.00000000e+00
  2.12661581e-02  4.17749093e-02 -2.45885405e-01  1.73867008e-01  0.00000000e+00
 -9.17063689e-02 -9.33821796e-02  6.60314912e-02  0.00000000e+00 -2.00536023e+00
 -7.80854374e-01  5.52146790e-01  0.00000000e+00  1.03757186e+00  0.00000000e+00
  0.00000000e+00  1.41631391e-01 -4.00597441e-01  2.92423566e-01  1.07249049e+00
  4.25179230e-02 -7.08182078e-01 -2.04060477e-01  0.00000000e+00  2.92423696e-01
  1.07248987e+00  4.25178158e-02 -4.36705441e-02  7.35699694e-01  0.00000000e+00
  3.74881407e-08  7.87639126e-08  2.52829430e-01  3.57555581e-01  0.00000000e+00
 -5.33186002e-07 -2.07438923e-02 -2.93360535e-02  0.00000000e+00 -2.05522285e-06
  5.30467221e-01  7.50195393e-01  0.00000000e+00  9.23992932e-07  0.00000000e+00
  0.00000000e+00  1.09028198e+00  3.85472315e-01 -3.88435846e-01 -5.04964646e-01
 -2.21719279e-01  5.62095561e-01  1.70249967e-01  0.00000000e+00  3.88437207e-01
  5.04966445e-01  2.21719548e-01 -2.68518315e-02  5.86700135e-01  0.00000000e+00
  0.00000000e+00  0.00000000e+00  0.00000000e+00  0.00000000e+00  1.27029909e+00
  0.00000000e+00  0.00000000e+00  0.00000000e+00 -1.37295899e+00  0.00000000e+00
  0.00000000e+00  0.00000000e+00  4.84725098e-01  0.00000000e+00 -1.97620131e-02
  1.39739461e-02  0.00000000e+00  0.00000000e+00  0.00000000e+00  0.00000000e+00
  0.00000000e+00  0.00000000e+00  0.00000000e+00  5.40700076e-02  0.00000000e+00
  0.00000000e+00  0.00000000e+00  0.00000000e+00  0.00000000e+00  5.40701481e-02
  2.13076085e-02  3.98562123e-02  1.03109713e+00 -7.29094629e-01  0.00000000e+00
 -2.00146669e-01 -1.38752206e+00  9.81125010e-01  0.00000000e+00 -9.76003103e-01
  8.35772244e-02 -5.90976685e-02  0.00000000e+00  3.52897238e-01  0.00000000e+00
  0.00000000e+00  3.04414515e-02 -8.61020650e-02  2.62873537e-01  4.79594697e-01
  1.00758864e-02 -4.80901251e-01 -2.17685832e-01  0.00000000e+00  2.62873784e-01
  4.79594384e-01  1.00762599e-02  4.49360785e-02  5.25959386e-01  0.00000000e+00
 -4.94790486e-08 -9.46145049e-08  7.26196583e-01  1.02699855e+00  0.00000000e+00
  8.06687126e-07 -1.13232618e+00 -1.60135375e+00  0.00000000e+00  1.39332917e-06
  9.63476035e-02  1.36255954e-01  0.00000000e+00 -5.01636007e-07  0.00000000e+00
  0.00000000e+00 -5.91977862e-01 -2.09295415e-01  3.20611341e-01  4.69379329e-01
 -1.47847868e-01 -6.54218460e-01 -1.51072237e-01  0.00000000e+00 -3.20612762e-01
 -4.69380622e-01  1.47847762e-01  7.56404380e-02 -6.67161959e-01  0.00000000e+00
  2.24706440e+00 -2.33534274e+00 -1.41311478e-02  9.99226649e-03  0.00000000e+00
  2.62063605e-01  5.38642954e-02 -3.80879794e-02  0.00000000e+00 -8.31170229e-02
  5.45602961e-03 -3.85804536e-03  0.00000000e+00 -2.13875487e-02  0.00000000e+00
  0.00000000e+00 -2.90010237e-03  8.20256853e-03 -3.10086644e-03 -6.03402905e-02
  3.06952768e-02  6.59732269e-02  2.03181145e-02  0.00000000e+00 -3.10094040e-03
 -6.03404983e-02  3.06953246e-02  2.83497223e-03 -6.89730563e-02  0.00000000e+00
Total SCF Density                          R   N=         465
  6.36943462e-01  5.68327805e-01  5.25491068e-01  1.07787866e-02  1.71336930e-02
  1.21270928e-01 -7.62175326e-03 -1.21153509e-02 -1.37888093e-02  1.11520810e-01
  0.00000000e+00  0.00000000e+00  0.00000000e+00  0.00000000e+00  1.70990840e-01
 -1.32015357e-01 -2.25938493e-01 -4.95845294e-02  3.50615602e-02  0.00000000e+00
  6.63534718e-01  1.15743089e-02  2.04738559e-02  1.81918931e-01 -1.79233694e-02
  0.00000000e+00 -6.67639020e-02  2.73056476e-01 -8.18427255e-03 -1.44772033e-02
 -1.79233673e-02  1.69245248e-01  0.00000000e+00  4.72092149e-02 -2.27513810e-02
  2.56968881e-01  0.00000000e+00  0.00000000e+00  0.00000000e+00  0.00000000e+00
  2.55714086e-01  0.00000000e+00  0.00000000e+00  0.00000000e+00  3.82416354e-01
 -1.12133660e-01 -1.87681553e-01 -1.14675329e-01  8.10877823e-02  0.00000000e+00
  5.41502863e-01 -1.65140028e-01  1.16771750e-01  0.00000000e+00  5.07776768e-01
  1.72692657e-02  2.93797019e-02  1.48033683e-01 -3.49961717e-02  0.00000000e+00
 -8.98316213e-02  2.21354018e-01 -4.93208826e-02  0.00000000e+00 -1.69541341e-01
  1.84648969e-01 -1.22112208e-02 -2.07745967e-02 -3.49961744e-02  1.23287670e-01
  0.00000000e+00  6.35205804e-02 -4.93208914e-02  1.86478897e-01  0.00000000e+00
  1.19883922e-01 -6.30978827e-02  1.40032019e-01  0.00000000e+00  0.00000000e+00
  0.00000000e+00  0.00000000e+00  2.73081506e-01  0.00000000e+00  0.00000000e+00
  0.00000000e+00  4.08389055e-01  0.00000000e+00  0.00000000e+00  0.00000000e+00
  4.36125753e-01  9.51094364e-04  1.43481540e-03 -5.72341589e-03  4.04707032e-03
  0.00000000e+00 -3.42116679e-03 -8.57432772e-03  6.06297108e-03  0.00000000e+00
  2.51088782e-03 -7.29194308e-03  5.15618541e-03  0.00000000e+00  4.45232570e-04
  0.00000000e+00  0.00000000e+00  0.00000000e+00  0.00000000e+00  8.06954380e-03
  0.00000000e+00  0.00000000e+00  0.00000000e+00  1.20678746e-02  0.00000000e+00
  0.00000000e+00  0.00000000e+00  1.28874925e-02  0.00000000e+00  3.80824710e-04
  0.00000000e+00  0.00000000e+00  0.00000000e+00  0.00000000e+00 -5.70603383e-03
  0.00000000e+00  0.00000000e+00  0.00000000e+00 -8.53328297e-03  0.00000000e+00
  0.00000000e+00  0.00000000e+00 -9.11284085e-03  0.00000000e+00 -2.69283956e-04
  1.90412668e-04  4.18451355e-04  6.91204510e-04  8.63416514e-03  8.72389743e-03
  0.00000000e+00 -2.01240075e-03  1.31841850e-02  1.34916752e-02  0.00000000e+00
 -2.96715603e-03  8.97773907e-03  8.01045065e-03  0.00000000e+00 -9.63659680e-05
  0.00000000e+00  0.00000000e+00  1.47328489e-03 -1.18355674e-03 -1.95501696e-03
 -2.17735741e-03  6.78252423e-03  0.00000000e+00  5.69191465e-03 -3.06907030e-03
  1.02362265e-02  0.00000000e+00  8.39240059e-03 -3.85488270e-03  7.80236546e-03
  0.00000000e+00  2.72565789e-04  0.00000000e+00  0.00000000e+00  4.16636586e-04
  4.42160582e-04 -1.38978807e-02 -2.32167698e-02  8.02974243e-02  2.46789510e-02
  0.00000000e+00  6.47545333e-02  1.22269735e-01  3.88629750e-02  0.00000000e+00
  1.13879423e-02  8.90309670e-02  1.59189012e-02  0.00000000e+00 -3.67564714e-03
  0.00000000e+00  0.00000000e+00  8.55089252e-03  9.93124942e-04  7.59046405e-02
 -6.67737948e-03 -1.09473271e-02  1.22783916e-01  3.12870315e-02  0.00000000e+00
  2.81386128e-02  1.86051200e-01  5.01486216e-02  0.00000000e+00 -3.84308546e-02
  1.39862905e-01  1.54630041e-02  0.00000000e+00 -5.09348903e-03  0.00000000e+00
  0.00000000e+00  1.26234267e-02  8.02992763e-04  1.04446234e-01  1.49845928e-01
  2.95798556e-03  4.93094377e-03  2.82962322e-02  1.30702913e-02  0.00000000e+00
 -1.45293516e-02  4.27773755e-02  2.06426303e-02  0.00000000e+00 -2.21638701e-02
  3.21317822e-02  9.30861875e-03  0.00000000e+00 -7.55550588e-04  0.00000000e+00
  0.00000000e+00  3.46476904e-03  4.24834059e-04  2.27244355e-02  3.45892583e-02
  9.09941298e-03  4.90728318e-03  8.24887239e-03 -1.45126330e-02 -7.77896250e-03
  0.00000000e+00 -2.34930278e-02 -2.23001191e-02 -1.19869616e-02  0.00000000e+00
 -1.22861029e-02 -1.51236014e-02 -6.77453753e-03  0.00000000e+00  6.76280050e-04
  0.00000000e+00  0.00000000e+00 -1.81986887e-03 -4.29109982e-04 -1.62583035e-02
 -2.13793663e-02 -4.47315579e-03  3.68466196e-03  1.37118999e-04  2.16705106e-04
 -1.27603900e-02  8.83560225e-03  0.00000000e+00 -1.07993939e-04 -1.90367801e-02
  1.31727926e-02  0.00000000e+00  1.11606166e-02 -1.65162388e-02  1.14973310e-02
  0.00000000e+00  9.07124482e-04  0.00000000e+00  0.00000000e+00 -2.44247727e-04
  6.32925582e-04 -7.19645273e-03 -1.06425154e-02 -1.79939833e-03  1.20306546e-03
  1.92266308e-03  0.00000000e+00  0.00000000e+00  0.00000000e+00  0.00000000e+00
  1.77772624e-02  0.00000000e+00  0.00000000e+00  0.00000000e+00  2.65856136e-02
  0.00000000e+00  0.00000000e+00  0.00000000e+00  2.83912377e-02  0.00000000e+00
  8.38959545e-04 -5.93234471e-04  0.00000000e+00  0.00000000e+00  0.00000000e+00
  0.00000000e+00  0.00000000e+00  0.00000000e+00  0.00000000e+00  1.84823385e-03
 -1.38978954e-02 -2.32167941e-02  3.49825736e-03 -8.39314935e-02  0.00000000e+00
  6.47546004e-02  4.11619475e-03 -1.28231388e-01  0.00000000e+00  1.13879209e-02
  1.46684819e-02 -8.92455121e-02  0.00000000e+00 -3.67565146e-03  0.00000000e+00
  0.00000000e+00 -7.27492134e-03 -4.60213909e-03 -1.10277779e-02 -2.15999690e-02
 -1.25774730e-02  2.99513435e-03 -6.99650387e-03  0.00000000e+00  7.59046981e-02
 -6.67738061e-03 -1.09473281e-02  1.14302544e-02 -1.26190809e-01  0.00000000e+00
  2.81386115e-02  1.47364598e-02 -1.92126967e-01  0.00000000e+00 -3.84309394e-02
  3.20422655e-02 -1.37018320e-01  0.00000000e+00 -5.09349264e-03  0.00000000e+00
  0.00000000e+00 -1.03229417e-02 -7.30976396e-03 -2.15999661e-02 -3.29126369e-02
 -1.65961422e-02  6.53683290e-03 -1.03525984e-02  0.00000000e+00  1.04446261e-01
  1.49845906e-01  2.95798543e-03  4.93094335e-03 -2.89073556e-03 -3.10346662e-02
  0.00000000e+00 -1.45293490e-02 -5.20296963e-03 -4.72117085e-02  0.00000000e+00
 -2.21638623e-02  1.93430169e-03 -3.33969524e-02  0.00000000e+00 -7.55549262e-04
  0.00000000e+00  0.00000000e+00 -2.96184458e-03 -1.84731239e-03 -1.25774715e-02
 -1.65961482e-02 -5.23613948e-03  3.34536583e-03 -1.71819599e-03  0.00000000e+00
  2.27244065e-02  3.45892041e-02  9.09939022e-03  1.50648360e-03  2.54531181e-03
  1.26962559e-02 -3.14060457e-03  0.00000000e+00 -7.72918933e-03  1.89811898e-02
 -4.44164706e-03  0.00000000e+00 -1.46176984e-02  1.58590454e-02 -5.56223126e-03
  0.00000000e+00 -6.29818840e-04  0.00000000e+00  0.00000000e+00  7.57682976e-04
 -3.38826415e-04  7.59474883e-03  1.19394767e-02  2.73505917e-03 -1.28568073e-03
 -1.42601135e-03  0.00000000e+00  1.36544973e-03  2.90740876e-03  2.05434896e-04
  1.36226856e-03 -4.67233845e-03 -7.84934816e-03  1.84082719e-03 -1.83732774e-02
  0.00000000e+00  2.21854407e-02  2.60817708e-03 -2.81084992e-02  0.00000000e+00
  7.86323605e-03  4.17947239e-03 -1.94852945e-02  0.00000000e+00 -9.39978175e-04
  0.00000000e+00  0.00000000e+00 -1.51950819e-03 -9.79039981e-04 -4.91671284e-04
 -2.71211608e-03 -2.58130688e-03  1.60107533e-04 -1.73324322e-03  0.00000000e+00
  1.77272956e-02  2.37041560e-02  4.81712121e-03  3.81975547e-04  4.24505629e-03
  0.00000000e+00  0.00000000e+00  0.00000000e+00  0.00000000e+00  1.77772732e-02
  0.00000000e+00  0.00000000e+00  0.00000000e+00  2.65856297e-02  0.00000000e+00
  0.00000000e+00  0.00000000e+00  2.83912549e-02  0.00000000e+00  8.38960054e-04
 -5.93234831e-04  0.00000000e+00  0.00000000e+00  0.00000000e+00  0.00000000e+00
  0.00000000e+00  0.00000000e+00  0.00000000e+00  1.84823497e-03  0.00000000e+00
  0.00000000e+00  0.00000000e+00  0.00000000e+00  0.00000000e+00  1.84823609e-03
Total CC Density                           R   N=         465
  6.36943462e-01  5.68327805e-01  5.25491068e-01  1.07787866e-02  1.71336930e-02
  1.21270928e-01 -7.62175326e-03 -1.21153509e-02 -1.37888093e-02  1.11520810e-01
  0.00000000e+00  0.00000000e+00  0.00000000e+00  0.00000000e+00  1.70990840e-01
 -1.32015357e-01 -2.25938493e-01 -4.95845294e-02  3.50615602e-02  0.00000000e+00
  6.63534718e-01  1.15743089e-02  2.04738559e-02  1.81918931e-01 -1.79233694e-02
  0.00000000e+00 -6.67639020e-02  2.73056476e-01 -8.18427255e-03 -1.44772033e-02
 -1.79233673e-02  1.69245248e-01  0.00000000e+00  4.72092149e-02 -2.27513810e-02
  2.56968881e-01  0.00000000e+00  0.00000000e+00  0.00000000e+00  0.00000000e+00
  2.55714086e-01  0.00000000e+00  0.00000000e+00  0.00000000e+00  3.82416354e-01
 -1.12133660e-01 -1.87681553e-01 -1.14675329e-01  8.10877823e-02  0.00000000e+00
  5.41502863e-01 -1.65140028e-01  1.16771750e-01  0.00000000e+00  5.07776768e-01
  1.72692657e-02  2.93797019e-02  1.48033683e-01 -3.49961717e-02  0.00000000e+00
 -8.98316213e-02  2.21354018e-01 -4.93208826e-02  0.00000000e+00 -1.69541341e-01
  1.84648969e-01 -1.22112208e-02 -2.07745967e-02 -3.49961744e-02  1.23287670e-01
  0.00000000e+00  6.35205804e-02 -4.93208914e-02  1.86478897e-01  0.00000000e+00
  1.19883922e-01 -6.30978827e-02  1.40032019e-01  0.00000000e+00  0.00000000e+00
  0.00000000e+00  0.00000000e+00  2.73081506e-01  0.00000000e+00  0.00000000e+00
  0.00000000e+00  4.08389055e-01  0.00000000e+00  0.00000000e+00  0.00000000e+00
  4.36125753e-01  9.51094364e-04  1.43481540e-03 -5.72341589e-03  4.04707032e-03
  0.00000000e+00 -3.42116679e-03 -8.57432772e-03  6.06297108e-03  0.00000000e+00
  2.51088782e-03 -7.29194308e-03  5.15618541e-03  0.00000000e+00  4.45232570e-04
  0.00000000e+00  0.00000000e+00  0.00000000e+00  0.00000000e+00  8.06954380e-03
  0.00000000e+00  0.00000000e+00  0.00000000e+00  1.20678746e-02  0.00000000e+00
  0.00000000e+00  0.00000000e+00  1.28874925e-02  0.00000000e+00  3.80824710e-04
  0.00000000e+00  0.00000000e+00  0.00000000e+00  0.00000000e+00 -5.70603383e-03
  0.00000000e+00  0.00000000e+00  0.00000000e+00 -8.53328297e-03  0.00000000e+00
  0.00000000e+00  0.00000000e+00 -9.11284085e-03  0.00000000e+00 -2.69283956e-04
  1.90412668e-04  4.18451355e-04  6.91204510e-04  8.63416514e-03  8.72389743e-03
  0.00000000e+00 -2.01240075e-03  1.31841850e-02  1.34916752e-02  0.00000000e+00
 -2.96715603e-03  8.97773907e-03  8.01045065e-03  0.00000000e+00 -9.63659680e-05
  0.00000000e+00  0.00000000e+00  1.47328489e-03 -1.18355674e-03 -1.95501696e-03
 -2.17735741e-03  6.78252423e-03  0.00000000e+00  5.69191465e-03 -3.06907030e-03
  1.02362265e-02  0.00000000e+00  8.39240059e-03 -3.85488270e-03  7.80236546e-03
  0.00000000e+00  2.72565789e-04  0.00000000e+00  0.00000000e+00  4.16636586e-04