
    -----------------------------------------------------------------------
          Psi4: An Open-Source Ab Initio Electronic Structure Package
                               Psi4 1.3.2 release

                         Git: Rev {HEAD} ecbda83 


    R. M. Parrish, L. A. Burns, D. G. A. Smith, A. C. Simmonett,
    A. E. DePrince III, E. G. Hohenstein, U. Bozkaya, A. Yu. Sokolov,
    R. Di Remigio, R. M. Richard, J. F. Gonthier, A. M. James,
    H. R. McAlexander, A. Kumar, M. Saitow, X. Wang, B. P. Pritchard,
    P. Verma, H. F. Schaefer III, K. Patkowski, R. A. King, E. F. Valeev,
    F. A. Evangelista, J. M. Turney, T. D. Crawford, and C. D. Sherrill,
    J. Chem. Theory Comput. 13(7) pp 3185--3197 (2017).
    (doi: 10.1021/acs.jctc.7b00174)


                         Additional Contributions by
    P. Kraus, H. Kruse, M. H. Lechner, M. C. Schieber, R. A. Shaw,
    A. Alenaizan, R. Galvelis, Z. L. Glick, S. Lehtola, and J. P. Misiewicz

    -----------------------------------------------------------------------


    Psi4 started on: Tuesday, 14 April 2020 12:44PM

    Process ID: 35593
    Host:       node72.bme.utexas.edu
    PSIDATADIR: /home/bdw2292/miniconda3/envs/p4env/share/psi4
    Memory:     500.0 MiB
    Threads:    1
    
  ==> Input File <==

--------------------------------------------------------------------------
molecule { 
0 1
 C   -0.592373    4.289625   -0.520832
 C    0.808362    4.280542   -0.485522
 C    1.500701    3.054201   -0.485567
 C    0.698339    1.891866   -0.595289
 N   -0.639010    1.880312   -0.628788
 C   -1.268615    3.065247   -0.577528
 C    2.994488    2.934383   -0.323019
 C    3.901788    4.005928   -0.285312
 C    5.238506    3.666027   -0.042061
 N    5.673257    2.424147    0.165477
 C    4.731500    1.460794    0.115908
 N    3.441253    1.679888   -0.132925
 N    5.169998    0.171904    0.350968
 C    4.524388   -1.111279    0.238185
 C    5.308355   -2.272664   -0.035958
 C    4.633963   -3.502960   -0.103950
 C    3.248746   -3.643513    0.037524
 C    2.483665   -2.492881    0.258852
 C    3.139512   -1.258954    0.397720
 N    1.053069   -2.456207    0.363713
 C    0.106193   -3.386513    0.002248
 C   -1.338904   -2.964081    0.154023
 C   -2.177108   -3.063580   -0.967743
 C   -3.525274   -2.711475   -0.874538
 C   -4.075261   -2.224829    0.327141
 C   -3.211590   -2.100462    1.433330
 C   -1.874155   -2.501112    1.365478
 C   -5.558937   -1.866269    0.432005
 N   -6.005014   -0.474135    0.269900
 C   -5.804029    0.185745   -1.040422
 C   -4.566763    1.113327   -1.127652
 N   -4.493276    2.127720   -0.049838
 C   -5.345775    3.313301   -0.205134
 C   -4.595049    1.418488    1.249659
 C   -5.833157    0.491820    1.378866
 O    0.385979   -4.496334   -0.419367
 C    6.813957   -2.233738   -0.236987
 H   -1.152248    5.219476   -0.489637
 H    1.332460    5.230172   -0.411181
 H    1.157647    0.910171   -0.660262
 H   -2.355290    3.033621   -0.577545
 H    3.627133    5.044886   -0.418861
 H    6.022802    4.421110    0.004661
 H    6.173191    0.170569    0.458028
 H    5.205390   -4.410803   -0.293381
 H    2.764524   -4.606185   -0.068691
 H    2.561947   -0.376407    0.623078
 H    0.678994   -1.529511    0.516851
 H   -1.764580   -3.435744   -1.902197
 H   -4.155437   -2.814221   -1.757682
 H   -3.596649   -1.721965    2.379851
 H   -1.229091   -2.441209    2.238643
 H   -6.101968   -2.451704   -0.323639
 H   -5.917151   -2.206243    1.414226
 H   -5.766591   -0.655227   -1.938681
 H   -6.999380    1.011202   -1.292414
 H   -4.521943    1.680069   -2.225311
 H   -3.290227    0.244037   -1.005167
 H   -6.407061    3.041981   -0.178428
 H   -5.132457    3.808325   -1.159847
 H   -5.143592    4.031872    0.597662
 H   -4.585167    2.283620    2.203062
 H   -3.381240    0.610817    1.381442
 H   -7.035184    1.358205    1.379339
 H   -5.830852   -0.067202    2.413920
 H    7.352784   -1.907912    0.664232
 H    7.085878   -1.545415   -1.042180
 H    7.228377   -3.208221   -0.508456
}
memory 20GB
set_num_threads(6)
psi4_io.set_default_path("/scratch/bdw2292")
set freeze_core True
E, wfn = energy('mp2/6-311++G**',return_wfn=True)
oeprop(wfn,"WIBERG_LOWDIN_INDICES")
clean()
--------------------------------------------------------------------------

  Memory set to  18.626 GiB by Python driver.
  Threads set to 6 by Python driver.
    SCF Algorithm Type (re)set to DF.

*** tstart() called on node72.bme.utexas.edu
*** at Tue Apr 14 12:44:12 2020

   => Loading Basis Set <=

    Name: 6-311++G**
    Role: ORBITAL
    Keyword: BASIS
    atoms 1-4, 6-9, 11, 14-19, 21-28, 30-31, 33-35, 37 entry C          line   119 file /home/bdw2292/miniconda3/envs/p4env/share/psi4/basis/6-311ppgss.gbs 
    atoms 5, 10, 12-13, 20, 29, 32                     entry N          line   140 file /home/bdw2292/miniconda3/envs/p4env/share/psi4/basis/6-311ppgss.gbs 
    atoms 36                                           entry O          line   161 file /home/bdw2292/miniconda3/envs/p4env/share/psi4/basis/6-311ppgss.gbs 
    atoms 38-68                                        entry H          line    42 file /home/bdw2292/miniconda3/envs/p4env/share/psi4/basis/6-311ppgss.gbs 


         ---------------------------------------------------------
                                   SCF
               by Justin Turney, Rob Parrish, Andy Simmonett
                          and Daniel G. A. Smith
                              RHF Reference
                        6 Threads,  19073 MiB Core
         ---------------------------------------------------------

  ==> Geometry <==

    Molecular point group: c1
    Full point group: C1

    Geometry (in Angstrom), charge = 0, multiplicity = 1:

       Center              X                  Y                   Z               Mass       
    ------------   -----------------  -----------------  -----------------  -----------------
         C           -0.665238553176     4.318244836414    -0.504319583775    12.000000000000
         C            0.735496446824     4.309161836414    -0.469009583775    12.000000000000
         C            1.427835446824     3.082820836414    -0.469054583775    12.000000000000
         C            0.625473446824     1.920485836414    -0.578776583775    12.000000000000
         N           -0.711875553176     1.908931836414    -0.612275583775    14.003074004430
         C           -1.341480553176     3.093866836414    -0.561015583775    12.000000000000
         C            2.921622446824     2.963002836414    -0.306506583775    12.000000000000
         C            3.828922446824     4.034547836414    -0.268799583775    12.000000000000
         C            5.165640446824     3.694646836414    -0.025548583775    12.000000000000
         N            5.600391446824     2.452766836414     0.181989416225    14.003074004430
         C            4.658634446824     1.489413836414     0.132420416225    12.000000000000
         N            3.368387446824     1.708507836414    -0.116412583775    14.003074004430
         N            5.097132446824     0.200523836414     0.367480416225    14.003074004430
         C            4.451522446824    -1.082659163586     0.254697416225    12.000000000000
         C            5.235489446824    -2.244044163586    -0.019445583775    12.000000000000
         C            4.561097446824    -3.474340163586    -0.087437583775    12.000000000000
         C            3.175880446824    -3.614893163586     0.054036416225    12.000000000000
         C            2.410799446824    -2.464261163586     0.275364416225    12.000000000000
         C            3.066646446824    -1.230334163586     0.414232416225    12.000000000000
         N            0.980203446824    -2.427587163586     0.380225416225    14.003074004430
         C            0.033327446824    -3.357893163586     0.018760416225    12.000000000000
         C           -1.411769553176    -2.935461163586     0.170535416225    12.000000000000
         C           -2.249973553176    -3.034960163586    -0.951230583775    12.000000000000
         C           -3.598139553176    -2.682855163586    -0.858025583775    12.000000000000
         C           -4.148126553176    -2.196209163586     0.343653416225    12.000000000000
         C           -3.284455553176    -2.071842163586     1.449842416225    12.000000000000
         C           -1.947020553176    -2.472492163586     1.381990416225    12.000000000000
         C           -5.631802553176    -1.837649163586     0.448517416225    12.000000000000
         N           -6.077879553176    -0.445515163586     0.286412416225    14.003074004430
         C           -5.876894553176     0.214364836414    -1.023909583775    12.000000000000
         C           -4.639628553176     1.141946836414    -1.111139583775    12.000000000000
         N           -4.566141553176     2.156339836414    -0.033325583775    14.003074004430
         C           -5.418640553176     3.341920836414    -0.188621583775    12.000000000000
         C           -4.667914553176     1.447107836414     1.266171416225    12.000000000000
         C           -5.906022553176     0.520439836414     1.395378416225    12.000000000000
         O            0.313113446824    -4.467714163586    -0.402854583775    15.994914619570
         C            6.741091446824    -2.205118163586    -0.220474583775    12.000000000000
         H           -1.225113553176     5.248095836414    -0.473124583775     1.007825032230
         H            1.259594446824     5.258791836414    -0.394668583775     1.007825032230
         H            1.084781446824     0.938790836414    -0.643749583775     1.007825032230
         H           -2.428155553176     3.062240836414    -0.561032583775     1.007825032230
         H            3.554267446824     5.073505836414    -0.402348583775     1.007825032230
         H            5.949936446824     4.449729836414     0.021173416225     1.007825032230
         H            6.100325446824     0.199188836414     0.474540416225     1.007825032230
         H            5.132524446824    -4.382183163586    -0.276868583775     1.007825032230
         H            2.691658446824    -4.577565163586    -0.052178583775     1.007825032230
         H            2.489081446824    -0.347787163586     0.639590416225     1.007825032230
         H            0.606128446824    -1.500891163586     0.533363416225     1.007825032230
         H           -1.837445553176    -3.407124163586    -1.885684583775     1.007825032230
         H           -4.228302553176    -2.785601163586    -1.741169583775     1.007825032230
         H           -3.669514553176    -1.693345163586     2.396363416225     1.007825032230
         H           -1.301956553176    -2.412589163586     2.255155416225     1.007825032230
         H           -6.174833553176    -2.423084163586    -0.307126583775     1.007825032230
         H           -5.990016553176    -2.177623163586     1.430738416225     1.007825032230
         H           -5.839456553176    -0.626607163586    -1.922168583775     1.007825032230
         H           -7.072245553176     1.039821836414    -1.275901583775     1.007825032230
         H           -4.594808553176     1.708688836414    -2.208798583775     1.007825032230
         H           -3.363092553176     0.272656836414    -0.988654583775     1.007825032230
         H           -6.479926553176     3.070600836414    -0.161915583775     1.007825032230
         H           -5.205322553176     3.836944836414    -1.143334583775     1.007825032230
         H           -5.216457553176     4.060491836414     0.614174416225     1.007825032230
         H           -4.658032553176     2.312239836414     2.219574416225     1.007825032230
         H           -3.454105553176     0.639436836414     1.397954416225     1.007825032230
         H           -7.108049553176     1.386824836414     1.395851416225     1.007825032230
         H           -5.903717553176    -0.038582163586     2.430432416225     1.007825032230
         H            7.279918446824    -1.879292163586     0.680744416225     1.007825032230
         H            7.013012446824    -1.516795163586    -1.025667583775     1.007825032230
         H            7.155511446824    -3.179601163586    -0.491943583775     1.007825032230

  Running in c1 symmetry.

  Rotational constants: A =      0.00454  B =      0.00210  C =      0.00149 [cm^-1]
  Rotational constants: A =    136.13948  B =     62.81344  C =     44.65250 [MHz]
  Nuclear repulsion = 3795.431605248838423

  Charge       = 0
  Multiplicity = 1
  Electrons    = 262
  Nalpha       = 131
  Nbeta        = 131

  ==> Algorithm <==

  SCF Algorithm Type is DF.
  DIIS enabled.
  MOM disabled.
  Fractional occupation disabled.
  Guess Type is SAD.
  Energy threshold   = 1.00e-08
  Density threshold  = 1.00e-08
  Integral threshold = 0.00e+00

  ==> Primary Basis <==

  Basis Set: 6-311++G**
    Blend: 6-311++G**
    Number of shells: 525
    Number of basis function: 1031
    Number of Cartesian functions: 1068
    Spherical Harmonics?: true
    Max angular momentum: 2

   => Loading Basis Set <=

    Name: (6-311++G** AUX)
    Role: JKFIT
    Keyword: DF_BASIS_SCF
    atoms 1-4, 6-9, 11, 14-19, 21-28, 30-31, 33-35, 37 entry C          line   162 file /home/bdw2292/miniconda3/envs/p4env/share/psi4/basis/aug-cc-pvtz-jkfit.gbs 
    atoms 5, 10, 12-13, 20, 29, 32                     entry N          line   224 file /home/bdw2292/miniconda3/envs/p4env/share/psi4/basis/aug-cc-pvtz-jkfit.gbs 
    atoms 36                                           entry O          line   286 file /home/bdw2292/miniconda3/envs/p4env/share/psi4/basis/aug-cc-pvtz-jkfit.gbs 
    atoms 38-68                                        entry H          line    70 file /home/bdw2292/miniconda3/envs/p4env/share/psi4/basis/aug-cc-pvtz-jkfit.gbs 

  ==> Pre-Iterations <==

   -------------------------------------------------------
    Irrep   Nso     Nmo     Nalpha   Nbeta   Ndocc  Nsocc
   -------------------------------------------------------
     A       1031    1031       0       0       0       0
   -------------------------------------------------------
    Total    1031    1031     131     131     131       0
   -------------------------------------------------------

  ==> Integral Setup <==

  ==> DiskDFJK: Density-Fitted J/K Matrices <==

    J tasked:                  Yes
    K tasked:                  Yes
    wK tasked:                  No
    OpenMP threads:              6
    Integrals threads:           6
    Memory [MiB]:            14305
    Algorithm:                Disk
    Integral Cache:           NONE
    Schwarz Cutoff:          1E-12
    Fitting Condition:       1E-10

   => Auxiliary Basis Set <=

  Basis Set: (6-311++G** AUX)
    Blend: AUG-CC-PVTZ-JKFIT
    Number of shells: 1544
    Number of basis function: 5274
    Number of Cartesian functions: 6552
    Spherical Harmonics?: true
    Max angular momentum: 4

  Minimum eigenvalue in the overlap matrix is 1.5182818357E-07.
  Using Symmetric Orthogonalization.

  SCF Guess: Superposition of Atomic Densities via on-the-fly atomic UHF.

  ==> Iterations <==

                           Total Energy        Delta E     RMS |[F,P]|

   @DF-RHF iter SAD: -1571.18580495475157   -1.57119e+03   0.00000e+00 
   @DF-RHF iter   1: -1571.34912446977205   -1.63320e-01   1.20808e-03 DIIS
   @DF-RHF iter   2: -1572.11212027447982   -7.62996e-01   6.32825e-04 DIIS
   @DF-RHF iter   3: -1572.30027693075795   -1.88157e-01   1.65944e-04 DIIS
   @DF-RHF iter   4: -1572.31748327813307   -1.72063e-02   6.56574e-05 DIIS
   @DF-RHF iter   5: -1572.32006882843075   -2.58555e-03   1.32338e-05 DIIS
   @DF-RHF iter   6: -1572.32022021166199   -1.51383e-04   6.03374e-06 DIIS
   @DF-RHF iter   7: -1572.32025595465029   -3.57430e-05   2.00940e-06 DIIS
   @DF-RHF iter   8: -1572.32026177625198   -5.82160e-06   7.98252e-07 DIIS
   @DF-RHF iter   9: -1572.32026276466877   -9.88417e-07   3.28456e-07 DIIS
   @DF-RHF iter  10: -1572.32026296529648   -2.00628e-07   1.49173e-07 DIIS
   @DF-RHF iter  11: -1572.32026300703183   -4.17353e-08   7.20404e-08 DIIS
   @DF-RHF iter  12: -1572.32026301872202   -1.16902e-08   2.96324e-08 DIIS
   @DF-RHF iter  13: -1572.32026302088570   -2.16369e-09   1.21382e-08 DIIS
   @DF-RHF iter  14: -1572.32026302124086   -3.55158e-10   5.96720e-09 DIIS
  Energy and wave function converged.


  ==> Post-Iterations <==

    Orbital Energies [Eh]
    ---------------------

    Doubly Occupied:                                                      

       1A    -20.524184     2A    -15.602553     3A    -15.599105  
       4A    -15.571346     5A    -15.571247     6A    -15.568013  
       7A    -15.567446     8A    -15.561386     9A    -11.368279  
      10A    -11.364435    11A    -11.327405    12A    -11.319166  
      13A    -11.317577    14A    -11.316369    15A    -11.315439  
      16A    -11.308587    17A    -11.298578    18A    -11.291323  
      19A    -11.288093    20A    -11.281059    21A    -11.278418  
      22A    -11.278201    23A    -11.268202    24A    -11.258214  
      25A    -11.258113    26A    -11.256252    27A    -11.254882  
      28A    -11.251545    29A    -11.250670    30A    -11.248579  
      31A    -11.246854    32A    -11.246137    33A    -11.246092  
      34A    -11.238237    35A    -11.232569    36A    -11.231240  
      37A    -11.225038    38A     -1.388573    39A     -1.340476  
      40A     -1.264087    41A     -1.250372    42A     -1.249806  
      43A     -1.238681    44A     -1.207020    45A     -1.203817  
      46A     -1.162922    47A     -1.138069    48A     -1.105358  
      49A     -1.067782    50A     -1.059348    51A     -1.038835  
      52A     -1.035857    53A     -1.025053    54A     -1.005495  
      55A     -0.994620    56A     -0.980539    57A     -0.947669  
      58A     -0.931196    59A     -0.917329    60A     -0.894831  
      61A     -0.867776    62A     -0.862339    63A     -0.848923  
      64A     -0.843686    65A     -0.836055    66A     -0.829819  
      67A     -0.822159    68A     -0.805105    69A     -0.777074  
      70A     -0.748639    71A     -0.733810    72A     -0.728170  
      73A     -0.712630    74A     -0.698588    75A     -0.691111  
      76A     -0.675397    77A     -0.673826    78A     -0.660313  
      79A     -0.658268    80A     -0.651791    81A     -0.648172  
      82A     -0.645618    83A     -0.638160    84A     -0.628890  
      85A     -0.625737    86A     -0.619912    87A     -0.611264  
      88A     -0.608490    89A     -0.603467    90A     -0.597379  
      91A     -0.595689    92A     -0.594632    93A     -0.591659  
      94A     -0.586683    95A     -0.582627    96A     -0.578463  
      97A     -0.577527    98A     -0.574968    99A     -0.567116  
     100A     -0.549650   101A     -0.547126   102A     -0.535683  
     103A     -0.531652   104A     -0.526063   105A     -0.523850  
     106A     -0.517260   107A     -0.512963   108A     -0.510154  
     109A     -0.509522   110A     -0.503623   111A     -0.501770  
     112A     -0.493721   113A     -0.483016   114A     -0.476897  
     115A     -0.465984   116A     -0.444945   117A     -0.435952  
     118A     -0.429238   119A     -0.427498   120A     -0.424578  
     121A     -0.407436   122A     -0.397294   123A     -0.389363  
     124A     -0.384715   125A     -0.365901   126A     -0.346253  
     127A     -0.344204   128A     -0.335906   129A     -0.317138  
     130A     -0.312688   131A     -0.290238  

    Virtual:                                                              

     132A      0.029753   133A      0.036940   134A      0.040656  
     135A      0.043730   136A      0.045370   137A      0.048192  
     138A      0.050863   139A      0.054073   140A      0.059700  
     141A      0.060234   142A      0.062952   143A      0.064376  
     144A      0.068582   145A      0.072465   146A      0.073199  
     147A      0.077660   148A      0.082082   149A      0.083323  
     150A      0.084464   151A      0.086738   152A      0.088684  
     153A      0.090556   154A      0.090966   155A      0.093237  
     156A      0.100573   157A      0.103295   158A      0.106343  
     159A      0.106888   160A      0.110161   161A      0.111157  
     162A      0.113371   163A      0.117444   164A      0.118127  
     165A      0.120155   166A      0.123579   167A      0.124283  
     168A      0.127984   169A      0.128849   170A      0.131555  
     171A      0.135126   172A      0.138020   173A      0.142263  
     174A      0.148020   175A      0.149321   176A      0.151474  
     177A      0.151913   178A      0.153458   179A      0.155716  
     180A      0.156677   181A      0.159849   182A      0.161038  
     183A      0.163529   184A      0.165433   185A      0.167976  
     186A      0.169127   187A      0.172779   188A      0.173878  
     189A      0.175675   190A      0.178111   191A      0.179063  
     192A      0.179842   193A      0.181542   194A      0.183217  
     195A      0.184979   196A      0.187094   197A      0.188497  
     198A      0.190389   199A      0.192622   200A      0.194402  
     201A      0.195813   202A      0.197808   203A      0.198921  
     204A      0.201204   205A      0.203450   206A      0.205152  
     207A      0.207149   208A      0.208049   209A      0.209753  
     210A      0.211065   211A      0.212442   212A      0.215919  
     213A      0.216395   214A      0.219697   215A      0.220769  
     216A      0.221155   217A      0.222332   218A      0.226496  
     219A      0.229901   220A      0.230690   221A      0.232561  
     222A      0.235874   223A      0.236315   224A      0.239604  
     225A      0.240642   226A      0.243908   227A      0.245930  
     228A      0.247023   229A      0.248171   230A      0.250342  
     231A      0.252203   232A      0.253866   233A      0.257175  
     234A      0.260045   235A      0.263385   236A      0.263641  
     237A      0.266390   238A      0.269077   239A      0.270132  
     240A      0.270543   241A      0.274764   242A      0.278857  
     243A      0.280960   244A      0.282167   245A      0.283386  
     246A      0.288296   247A      0.289888   248A      0.292305  
     249A      0.294946   250A      0.297048   251A      0.298856  
     252A      0.301954   253A      0.305164   254A      0.309356  
     255A      0.312773   256A      0.314687   257A      0.315601  
     258A      0.316278   259A      0.319181   260A      0.323560  
     261A      0.324790   262A      0.327957   263A      0.328126  
     264A      0.330136   265A      0.331516   266A      0.332836  
     267A      0.334480   268A      0.337143   269A      0.339424  
     270A      0.341528   271A      0.343881   272A      0.345177  
     273A      0.348471   274A      0.350908   275A      0.352834  
     276A      0.353542   277A      0.356166   278A      0.358511  
     279A      0.360166   280A      0.362933   281A      0.365143  
     282A      0.366014   283A      0.368275   284A      0.370644  
     285A      0.374106   286A      0.374702   287A      0.376055  
     288A      0.377272   289A      0.380473   290A      0.381704  
     291A      0.382895   292A      0.384165   293A      0.385645  
     294A      0.387563   295A      0.390275   296A      0.392314  
     297A      0.393962   298A      0.396288   299A      0.398313  
     300A      0.398570   301A      0.401554   302A      0.401935  
     303A      0.404069   304A      0.405330   305A      0.407044  
     306A      0.408408   307A      0.410382   308A      0.412241  
     309A      0.414311   310A      0.417029   311A      0.418565  
     312A      0.419449   313A      0.422814   314A      0.424862  
     315A      0.425096   316A      0.426849   317A      0.428803  
     318A      0.430467   319A      0.434575   320A      0.435826  
     321A      0.436646   322A      0.437999   323A      0.439828  
     324A      0.443466   325A      0.446294   326A      0.446712  
     327A      0.448785   328A      0.454693   329A      0.456988  
     330A      0.459041   331A      0.461651   332A      0.463524  
     333A      0.465865   334A      0.466281   335A      0.468155  
     336A      0.471986   337A      0.473813   338A      0.475520  
     339A      0.478278   340A      0.480371   341A      0.481203  
     342A      0.483550   343A      0.488955   344A      0.491522  
     345A      0.494376   346A      0.497533   347A      0.497808  
     348A      0.500876   349A      0.504189   350A      0.506689  
     351A      0.509112   352A      0.511276   353A      0.514295  
     354A      0.518226   355A      0.520346   356A      0.523009  
     357A      0.528739   358A      0.531254   359A      0.532830  
     360A      0.535217   361A      0.537683   362A      0.540242  
     363A      0.545274   364A      0.547620   365A      0.549521  
     366A      0.552323   367A      0.556474   368A      0.558666  
     369A      0.561617   370A      0.568510   371A      0.572332  
     372A      0.577282   373A      0.579474   374A      0.585147  
     375A      0.589871   376A      0.597288   377A      0.600015  
     378A      0.605013   379A      0.613774   380A      0.617896  
     381A      0.621442   382A      0.626278   383A      0.633479  
     384A      0.642888   385A      0.648469   386A      0.655115  
     387A      0.661311   388A      0.668468   389A      0.678962  
     390A      0.687556   391A      0.690982   392A      0.702467  
     393A      0.709757   394A      0.712601   395A      0.714642  
     396A      0.721550   397A      0.724262   398A      0.732173  
     399A      0.735813   400A      0.740588   401A      0.745036  
     402A      0.749035   403A      0.756037   404A      0.757383  
     405A      0.765063   406A      0.766637   407A      0.769179  
     408A      0.774046   409A      0.775034   410A      0.779605  
     411A      0.781905   412A      0.784994   413A      0.787259  
     414A      0.787943   415A      0.798854   416A      0.800341  
     417A      0.802308   418A      0.807260   419A      0.811539  
     420A      0.812927   421A      0.818078   422A      0.818312  
     423A      0.824780   424A      0.826375   425A      0.828795  
     426A      0.834521   427A      0.840835   428A      0.846861  
     429A      0.848850   430A      0.851644   431A      0.852303  
     432A      0.858049   433A      0.858843   434A      0.865881  
     435A      0.866766   436A      0.869295   437A      0.875423  
     438A      0.876699   439A      0.882456   440A      0.883912  
     441A      0.889151   442A      0.891711   443A      0.893781  
     444A      0.895406   445A      0.899720   446A      0.903377  
     447A      0.905595   448A      0.908265   449A      0.913592  
     450A      0.914327   451A      0.915522   452A      0.923055  
     453A      0.925761   454A      0.928901   455A      0.930622  
     456A      0.934956   457A      0.940377   458A      0.941583  
     459A      0.942426   460A      0.945242   461A      0.948173  
     462A      0.950113   463A      0.955260   464A      0.958886  
     465A      0.963351   466A      0.965989   467A      0.968680  
     468A      0.971024   469A      0.976724   470A      0.976962  
     471A      0.983146   472A      0.984296   473A      0.992188  
     474A      0.992744   475A      0.998401   476A      1.000870  
     477A      1.002214   478A      1.008941   479A      1.013541  
     480A      1.016330   481A      1.017079   482A      1.023963  
     483A      1.025738   484A      1.029884   485A      1.034236  
     486A      1.038290   487A      1.043539   488A      1.046472  
     489A      1.048408   490A      1.054322   491A      1.059661  
     492A      1.066085   493A      1.070276   494A      1.071820  
     495A      1.077885   496A      1.086170   497A      1.088305  
     498A      1.091354   499A      1.096547   500A      1.103880  
     501A      1.111026   502A      1.114471   503A      1.114799  
     504A      1.122258   505A      1.123447   506A      1.129434  
     507A      1.134924   508A      1.137182   509A      1.140582  
     510A      1.143985   511A      1.149751   512A      1.154452  
     513A      1.158425   514A      1.160729   515A      1.161556  
     516A      1.168305   517A      1.172680   518A      1.175157  
     519A      1.176957   520A      1.181277   521A      1.184451  
     522A      1.189612   523A      1.193934   524A      1.200346  
     525A      1.203630   526A      1.206779   527A      1.210585  
     528A      1.216294   529A      1.220721   530A      1.223718  
     531A      1.224076   532A      1.229259   533A      1.235718  
     534A      1.240593   535A      1.243392   536A      1.247174  
     537A      1.250972   538A      1.252485   539A      1.257266  
     540A      1.259529   541A      1.264924   542A      1.271502  
     543A      1.275907   544A      1.278664   545A      1.285536  
     546A      1.290131   547A      1.291282   548A      1.295785  
     549A      1.297850   550A      1.301531   551A      1.302176  
     552A      1.307626   553A      1.314106   554A      1.321161  
     555A      1.331319   556A      1.334284   557A      1.345400  
     558A      1.355341   559A      1.358534   560A      1.367108  
     561A      1.368532   562A      1.371476   563A      1.373538  
     564A      1.385730   565A      1.392555   566A      1.398780  
     567A      1.404258   568A      1.410991   569A      1.415409  
     570A      1.420341   571A      1.431288   572A      1.441620  
     573A      1.444906   574A      1.448520   575A      1.457136  
     576A      1.464003   577A      1.467857   578A      1.474081  
     579A      1.482750   580A      1.490988   581A      1.498766  
     582A      1.507632   583A      1.512094   584A      1.514114  
     585A      1.523284   586A      1.527206   587A      1.543831  
     588A      1.547458   589A      1.559539   590A      1.567278  
     591A      1.579420   592A      1.591629   593A      1.601034  
     594A      1.603632   595A      1.616700   596A      1.619139  
     597A      1.622824   598A      1.625997   599A      1.638465  
     600A      1.643798   601A      1.654234   602A      1.666279  
     603A      1.668374   604A      1.687567   605A      1.696179  
     606A      1.707469   607A      1.713798   608A      1.719552  
     609A      1.724180   610A      1.733038   611A      1.738060  
     612A      1.749314   613A      1.752554   614A      1.756600  
     615A      1.759104   616A      1.761986   617A      1.768229  
     618A      1.776047   619A      1.778618   620A      1.788037  
     621A      1.800766   622A      1.805553   623A      1.808843  
     624A      1.810138   625A      1.814854   626A      1.818327  
     627A      1.821089   628A      1.823727   629A      1.829921  
     630A      1.833332   631A      1.835297   632A      1.838069  
     633A      1.840598   634A      1.844305   635A      1.848851  
     636A      1.852193   637A      1.852682   638A      1.859050  
     639A      1.862050   640A      1.873361   641A      1.876970  
     642A      1.878764   643A      1.881484   644A      1.883111  
     645A      1.886968   646A      1.889357   647A      1.902022  
     648A      1.909835   649A      1.914330   650A      1.923363  
     651A      1.927644   652A      1.932405   653A      1.939228  
     654A      1.941058   655A      1.945143   656A      1.951266  
     657A      1.962039   658A      1.964642   659A      1.968624  
     660A      1.972333   661A      1.975989   662A      1.981747  
     663A      1.984561   664A      1.989412   665A      1.991811  
     666A      1.996682   667A      2.000151   668A      2.003304  
     669A      2.003858   670A      2.013095   671A      2.018116  
     672A      2.018870   673A      2.025867   674A      2.028187  
     675A      2.033456   676A      2.041615   677A      2.052889  
     678A      2.055493   679A      2.057734   680A      2.061054  
     681A      2.068120   682A      2.070960   683A      2.079654  
     684A      2.086229   685A      2.088895   686A      2.090082  
     687A      2.097021   688A      2.104827   689A      2.109118  
     690A      2.111793   691A      2.118815   692A      2.131413  
     693A      2.137611   694A      2.144232   695A      2.147798  
     696A      2.153738   697A      2.159614   698A      2.168545  
     699A      2.174851   700A      2.187356   701A      2.191801  
     702A      2.194819   703A      2.202550   704A      2.204243  
     705A      2.208906   706A      2.212872   707A      2.221705  
     708A      2.226965   709A      2.227727   710A      2.232533  
     711A      2.237903   712A      2.244557   713A      2.250060  
     714A      2.250251   715A      2.255616   716A      2.265640  
     717A      2.267636   718A      2.270517   719A      2.275552  
     720A      2.278565   721A      2.281417   722A      2.284983  
     723A      2.288987   724A      2.295634   725A      2.299911  
     726A      2.302452   727A      2.307370   728A      2.312877  
     729A      2.329215   730A      2.330874   731A      2.336130  
     732A      2.343256   733A      2.348357   734A      2.356355  
     735A      2.367897   736A      2.375959   737A      2.378832  
     738A      2.384283   739A      2.394342   740A      2.400628  
     741A      2.407882   742A      2.413417   743A      2.418782  
     744A      2.425442   745A      2.429485   746A      2.436859  
     747A      2.445290   748A      2.455248   749A      2.462299  
     750A      2.466930   751A      2.477783   752A      2.481390  
     753A      2.506780   754A      2.506842   755A      2.515623  
     756A      2.519896   757A      2.528811   758A      2.533054  
     759A      2.538167   760A      2.542366   761A      2.545710  
     762A      2.551832   763A      2.562309   764A      2.575366  
     765A      2.580352   766A      2.599639   767A      2.616628  
     768A      2.622716   769A      2.630449   770A      2.651496  
     771A      2.659864   772A      2.661186   773A      2.664985  
     774A      2.680239   775A      2.691016   776A      2.700810  
     777A      2.710845   778A      2.714620   779A      2.726916  
     780A      2.749862   781A      2.755321   782A      2.758872  
     783A      2.760525   784A      2.767354   785A      2.773898  
     786A      2.786554   787A      2.790704   788A      2.809843  
     789A      2.817514   790A      2.821025   791A      2.826915  
     792A      2.830620   793A      2.832713   794A      2.849298  
     795A      2.854578   796A      2.860694   797A      2.863913  
     798A      2.874274   799A      2.879127   800A      2.883350  
     801A      2.885375   802A      2.894224   803A      2.907288  
     804A      2.916494   805A      2.932518   806A      2.936241  
     807A      2.939266   808A      2.954889   809A      2.965273  
     810A      2.968624   811A      2.970979   812A      2.975796  
     813A      2.978324   814A      2.987093   815A      2.994738  
     816A      2.998641   817A      3.005874   818A      3.006452  
     819A      3.012322   820A      3.018714   821A      3.025192  
     822A      3.038165   823A      3.042073   824A      3.052235  
     825A      3.053162   826A      3.060657   827A      3.061573  
     828A      3.069715   829A      3.076590   830A      3.082356  
     831A      3.083494   832A      3.091730   833A      3.098116  
     834A      3.099848   835A      3.111808   836A      3.112882  
     837A      3.117869   838A      3.118511   839A      3.128037  
     840A      3.128811   841A      3.135001   842A      3.138484  
     843A      3.140366   844A      3.154196   845A      3.159841  
     846A      3.161126   847A      3.171313   848A      3.179180  
     849A      3.183872   850A      3.187695   851A      3.201940  
     852A      3.208063   853A      3.213630   854A      3.219643  
     855A      3.228325   856A      3.242598   857A      3.246921  
     858A      3.257158   859A      3.266270   860A      3.266673  
     861A      3.270154   862A      3.274288   863A      3.274455  
     864A      3.286066   865A      3.294400   866A      3.297605  
     867A      3.299937   868A      3.304763   869A      3.314424  
     870A      3.316572   871A      3.325896   872A      3.330579  
     873A      3.337683   874A      3.340947   875A      3.347866  
     876A      3.352872   877A      3.356618   878A      3.360228  
     879A      3.365099   880A      3.370159   881A      3.370710  
     882A      3.386081   883A      3.390119   884A      3.392947  
     885A      3.400726   886A      3.406142   887A      3.414401  
     888A      3.424525   889A      3.431848   890A      3.450792  
     891A      3.456383   892A      3.460753   893A      3.469096  
     894A      3.513902   895A      3.524933   896A      3.535061  
     897A      3.584488   898A      3.590647   899A      3.601807  
     900A      3.612531   901A      3.624436   902A      3.632157  
     903A      3.643697   904A      3.658292   905A      3.660572  
     906A      3.668439   907A      3.672227   908A      3.708488  
     909A      3.750873   910A      3.767977   911A      3.781861  
     912A      3.786549   913A      3.789372   914A      3.801275  
     915A      3.813203   916A      3.818593   917A      3.853469  
     918A      3.866949   919A      3.883884   920A      3.888691  
     921A      3.896125   922A      3.900284   923A      3.905767  
     924A      3.920297   925A      3.926174   926A      3.931759  
     927A      3.941070   928A      3.954257   929A      3.968336  
     930A      3.981368   931A      3.988360   932A      4.000824  
     933A      4.048090   934A      4.055588   935A      4.080001  
     936A      4.084937   937A      4.095047   938A      4.104949  
     939A      4.125949   940A      4.134400   941A      4.150986  
     942A      4.170229   943A      4.171624   944A      4.191928  
     945A      4.192266   946A      4.203276   947A      4.216787  
     948A      4.219616   949A      4.246884   950A      4.275289  
     951A      4.347791   952A      4.362913   953A      4.377817  
     954A      4.409964   955A      4.417798   956A      4.426744  
     957A      4.437564   958A      4.443168   959A      4.452312  
     960A      4.459059   961A      4.460791   962A      4.465703  
     963A      4.543348   964A      4.543963   965A      4.557703  
     966A      4.575956   967A      4.581338   968A      4.603732  
     969A      4.619330   970A      4.656650   971A      4.740808  
     972A      4.764713   973A      4.785317   974A      4.794226  
     975A      4.927446   976A      4.953891   977A      5.010389  
     978A      5.055615   979A      5.199452   980A      5.256216  
     981A      5.258773   982A      5.277164   983A      5.284276  
     984A      5.323129   985A      5.340826   986A      5.381895  
     987A      5.417735   988A      5.589100   989A      5.710615  
     990A      5.712839   991A      5.796583   992A      5.853434  
     993A      5.860049   994A      6.390618   995A     24.764423  
     996A     24.789396   997A     24.800392   998A     24.815382  
     999A     24.845992  1000A     24.860220  1001A     24.940328  
    1002A     24.947730  1003A     25.020403  1004A     25.028427  
    1005A     25.046449  1006A     25.072850  1007A     25.086163  
    1008A     25.096037  1009A     25.111259  1010A     25.113964  
    1011A     25.122808  1012A     25.133935  1013A     25.151845  
    1014A     25.159332  1015A     25.187671  1016A     25.204664  
    1017A     25.209837  1018A     25.241491  1019A     25.241631  
    1020A     25.250312  1021A     25.261793  1022A     25.321610  
    1023A     25.327086  1024A     36.945165  1025A     36.987088  
    1026A     37.024073  1027A     37.060056  1028A     37.096372  
    1029A     37.141873  1030A     37.157712  1031A     51.752007  

    Final Occupation by Irrep:
              A 
    DOCC [   131 ]

  @DF-RHF Final Energy: -1572.32026302124086

   => Energetics <=

    Nuclear Repulsion Energy =           3795.4316052488384230
    One-Electron Energy =               -9689.6581721687434765
    Two-Electron Energy =                4321.9063038986641914
    Total Energy =                      -1572.3202630212408621

Computation Completed


Properties will be evaluated at   0.000000,   0.000000,   0.000000 [a0]

Properties computed using the SCF density matrix

  Nuclear Dipole Moment: [e a0]
     X:   -33.2273      Y:     8.9709      Z:     0.4967

  Electronic Dipole Moment: [e a0]
     X:    32.8829      Y:    -6.5554      Z:    -0.2252

  Dipole Moment: [e a0]
     X:    -0.3445      Y:     2.4155      Z:     0.2715     Total:     2.4550

  Dipole Moment: [D]
     X:    -0.8756      Y:     6.1397      Z:     0.6901     Total:     6.2401


*** tstop() called on node72.bme.utexas.edu at Tue Apr 14 12:59:00 2020
Module time:
	user time   =    4307.95 seconds =      71.80 minutes
	system time =     129.95 seconds =       2.17 minutes
	total time  =        888 seconds =      14.80 minutes
Total time:
	user time   =    4307.95 seconds =      71.80 minutes
	system time =     129.95 seconds =       2.17 minutes
	total time  =        888 seconds =      14.80 minutes

*** tstart() called on node72.bme.utexas.edu
*** at Tue Apr 14 12:59:00 2020


  //>>>>>>>>>>>>>>>>>>>>>>>>>>>>>>>>>>>//
  //               DFMP2               //
  //<<<<<<<<<<<<<<<<<<<<<<<<<<<<<<<<<<<//

   => Loading Basis Set <=

    Name: (6-311++G** AUX)
    Role: RIFIT
    Keyword: DF_BASIS_MP2
    atoms 1-4, 6-9, 11, 14-19, 21-28, 30-31, 33-35, 37 entry C          line   148 file /home/bdw2292/miniconda3/envs/p4env/share/psi4/basis/aug-cc-pvtz-ri.gbs 
    atoms 5, 10, 12-13, 20, 29, 32                     entry N          line   206 file /home/bdw2292/miniconda3/envs/p4env/share/psi4/basis/aug-cc-pvtz-ri.gbs 
    atoms 36                                           entry O          line   264 file /home/bdw2292/miniconda3/envs/p4env/share/psi4/basis/aug-cc-pvtz-ri.gbs 
    atoms 38-68                                        entry H          line    30 file /home/bdw2292/miniconda3/envs/p4env/share/psi4/basis/aug-cc-pvtz-ri.gbs 

	 --------------------------------------------------------
	                          DF-MP2                         
	      2nd-Order Density-Fitted Moller-Plesset Theory     
	              RMP2 Wavefunction,   6 Threads             
	                                                         
	        Rob Parrish, Justin Turney, Andy Simmonett,      
	           Ed Hohenstein, and C. David Sherrill          
	 --------------------------------------------------------

   => Auxiliary Basis Set <=

  Basis Set: (6-311++G** AUX)
    Blend: AUG-CC-PVTZ-RI
    Number of shells: 1470
    Number of basis function: 5348
    Number of Cartesian functions: 6737
    Spherical Harmonics?: true
    Max angular momentum: 4

	 --------------------------------------------------------
	                 NBF =  1031, NAUX =  5348
	 --------------------------------------------------------
	   CLASS    FOCC     OCC    AOCC    AVIR     VIR    FVIR
	   PAIRS      37     131      94     900     900       0
	 --------------------------------------------------------

	-----------------------------------------------------------
	 ==================> DF-MP2 Energies <==================== 
	-----------------------------------------------------------
	 Reference Energy          =   -1572.3202630212408621 [Eh]
	 Singles Energy            =      -0.0000000000000000 [Eh]
	 Same-Spin Energy          =      -1.4739773175077469 [Eh]
	 Opposite-Spin Energy      =      -4.0543139332687845 [Eh]
	 Correlation Energy        =      -5.5282912507765314 [Eh]
	 Total Energy              =   -1577.8485542720172816 [Eh]
	-----------------------------------------------------------
	 ================> DF-SCS-MP2 Energies <================== 
	-----------------------------------------------------------
	 SCS Same-Spin Scale       =       0.3333333333333333 [-]
	 SCS Opposite-Spin Scale   =       1.2000000000000000 [-]
	 SCS Same-Spin Energy      =      -0.4913257725025822 [Eh]
	 SCS Opposite-Spin Energy  =      -4.8651767199225411 [Eh]
	 SCS Correlation Energy    =      -5.3565024924251237 [Eh]
	 SCS Total Energy          =   -1577.6767655136659414 [Eh]
	-----------------------------------------------------------


*** tstop() called on node72.bme.utexas.edu at Tue Apr 14 13:08:30 2020
Module time:
	user time   =    2824.95 seconds =      47.08 minutes
	system time =      78.23 seconds =       1.30 minutes
	total time  =        570 seconds =       9.50 minutes
Total time:
	user time   =    7132.91 seconds =     118.88 minutes
	system time =     208.18 seconds =       3.47 minutes
	total time  =       1458 seconds =      24.30 minutes


Properties will be evaluated at   0.000000,   0.000000,   0.000000 [a0]
OEProp: No title given, name of density matrix used for the following properties is 'SCF density'


  Wiberg Bond Indices using Orthogonal Lowdin Orbitals:

  Irrep: 1 Size: 68 x 68

                 1                   2                   3                   4                   5

    1     0.00000000000000     1.46755389422304     0.12592468404784     0.14014513540153     0.12334149101107
    2     1.46755389422304     0.00000000000000     1.39937025745302     0.12748936994787     0.12079038659825
    3     0.12592468404784     1.39937025745302     0.00000000000000     1.35734396430609     0.11996465607554
    4     0.14014513540153     0.12748936994787     1.35734396430609     0.00000000000000     1.67195920349372
    5     0.12334149101107     0.12079038659825     0.11996465607554     1.67195920349372     0.00000000000000
    6     1.45846209226829     0.13943543920646     0.13505219265808     0.15394536093370     1.62000808879434
    7     0.01491943641134     0.10355774907671     1.02369632281518     0.10474482207623     0.01422034412639
    8     0.00355916314281     0.04126859476935     0.09813391063301     0.02348805725884     0.00224547454764
    9     0.00036981219143     0.00475293520441     0.01494252852605     0.00409303589671     0.00072237083603
   10     0.00044624797119     0.00538669734190     0.00590421959616     0.00602534946180     0.00035112562819
   11     0.00092309963167     0.00341453617537     0.01823139647091     0.00701814110413     0.00044213879421
   12     0.00295002631709     0.02231772575607     0.11998044358801     0.06273871519538     0.00419590585552
   13     0.00016446929122     0.00048959104242     0.00165991591218     0.00095266841258     0.00008372729735
   14     0.00003251250284     0.00009885315989     0.00062047431652     0.00150337345211     0.00012459708205
   15     0.00001123592855     0.00002372166421     0.00007792932093     0.00015584105356     0.00002224967504
   16     0.00000236377423     0.00000677277066     0.00004916364181     0.00029337948653     0.00001526638464
   17     0.00001297667856     0.00001920598495     0.00006398947919     0.00029577085200     0.00006161230671
   18     0.00003654060592     0.00006518666774     0.00032340409160     0.00211262520348     0.00022544301814
   19     0.00021024815664     0.00026262810851     0.00213159464275     0.01095594334283     0.00065141777081
   20     0.00007936772453     0.00008579073109     0.00031388754567     0.00348943029839     0.00067011995970
   21     0.00002718382047     0.00002156803602     0.00005291614363     0.00045973632064     0.00032347805568
   22     0.00006571108772     0.00003370667186     0.00003231732235     0.00053983261042     0.00184693290038
   23     0.00004153069558     0.00001832809945     0.00001538315425     0.00014574821411     0.00076132173388
   24     0.00001994334431     0.00001011835687     0.00001316518952     0.00014280685541     0.00054303254723
   25     0.00001836670781     0.00001068143851     0.00001585911182     0.00016578369043     0.00057756740670
   26     0.00003185312354     0.00003405583130     0.00002153609541     0.00014199577149     0.00088215182292
   27     0.00007628750425     0.00006754552775     0.00002528795916     0.00037160358243     0.00152590679393
   28     0.00000951260543     0.00000139426861     0.00000267992066     0.00001641132938     0.00009599694087
   29     0.00002358016413     0.00000321583796     0.00000516598297     0.00001938571823     0.00017070047194
   30     0.00009655591201     0.00002070133005     0.00002533851173     0.00014243652117     0.00106186116421
   31     0.00083561467721     0.00029007621460     0.00042641741659     0.00111701644467     0.01226352101236
   32     0.00309906343530     0.00049330632388     0.00040076195036     0.00070166650466     0.00418750788245
   33     0.00098522219881     0.00011708965267     0.00014607083479     0.00024816305338     0.00073926044063
   34     0.00061573325793     0.00020187464890     0.00045797297243     0.00041207367765     0.00337643722975
   35     0.00008880468279     0.00001809106308     0.00001990457265     0.00008709314498     0.00041827479198
   36     0.00000523669657     0.00000407416879     0.00001158512394     0.00024277971755     0.00015689213431
   37     0.00000266095843     0.00000761280672     0.00003287757284     0.00003596611594     0.00000352601944
   38     0.88590313227576     0.07923494563861     0.01182194567934     0.00634464289003     0.01074457723309
   39     0.07780703173896     0.87080447525398     0.07307592216966     0.01175452993458     0.00397304501873
   40     0.00573913085216     0.01055386474218     0.06916916205690     0.85081110184329     0.08797442730970
   41     0.07550706921811     0.01092074876332     0.00561995503829     0.01460555442539     0.08532819927679
   42     0.00105041345719     0.01390701780026     0.01422534700254     0.00135017011579     0.00028984477640
   43     0.00004456399512     0.00027544980056     0.00143080535989     0.00031673471973     0.00008080947239
   44     0.00002541450069     0.00008303075534     0.00035543934013     0.00009846082077     0.00000817891181
   45     0.00000040470785     0.00000121391215     0.00000678083053     0.00002016173279     0.00000250102520
   46     0.00000119377106     0.00000186396866     0.00000661942159     0.00002665188697     0.00001044844583
   47     0.00017334282292     0.00019578595015     0.00190569307198     0.00761137659852     0.00059911156619
   48     0.00013916137232     0.00009591905798     0.00022222527805     0.00263657788552     0.00100965402980
   49     0.00000391208336     0.00000250275358     0.00000158702340     0.00001920171350     0.00006327775915
   50     0.00000109800834     0.00000058151594     0.00000076160181     0.00000973435468     0.00003403008667
   51     0.00000308396490     0.00000423489940     0.00000277600192     0.00002310269237     0.00008914712201
   52     0.00001121531323     0.00001086652934     0.00000385504277     0.00003224079504     0.00016399791299
   53     0.00000137521441     0.00000019880840     0.00000029611079     0.00000143807771     0.00001204452454
   54     0.00000094405874     0.00000022751457     0.00000047657454     0.00000136317713     0.00000798886376
   55     0.00000875577633     0.00000217515215     0.00000151445277     0.00001202784554     0.00007302427685
   56     0.00003506503536     0.00000693254922     0.00000840073521     0.00009613577679     0.00076982484591
   57     0.00011081917428     0.00004805557777     0.00008461997049     0.00006320182082     0.00054875180179
   58     0.00024434386697     0.00010900900596     0.00020940892468     0.00101191250032     0.01039808162635
   59     0.00010383368978     0.00000507542008     0.00000472656273     0.00001030503111     0.00010218133773
   60     0.00019776835228     0.00002195046328     0.00003058493583     0.00004635330425     0.00013162735307
   61     0.00015212478494     0.00001718421705     0.00003044854836     0.00003785267033     0.00007737137688
   62     0.00006209628770     0.00001291713652     0.00005676946944     0.00003330505541     0.00018299356918
   63     0.00012569866610     0.00010849350014     0.00012082346128     0.00030561114566     0.00245586879611
   64     0.00004856909612     0.00000496091413     0.00000640215507     0.00005737060618     0.00026675244614
   65     0.00000904269067     0.00000236566443     0.00000091866770     0.00000519057701     0.00002152373827
   66     0.00000085173576     0.00000183047903     0.00001080433806     0.00000838896010     0.00000074208121
   67     0.00000107980162     0.00000334168434     0.00001015370164     0.00000907531375     0.00000093113779
   68     0.00000036011791     0.00000066313878     0.00000354839079     0.00000830974601     0.00000058567045

                 6                   7                   8                   9                  10

    1     1.45846209226829     0.01491943641134     0.00355916314281     0.00036981219143     0.00044624797119
    2     0.13943543920646     0.10355774907671     0.04126859476935     0.00475293520441     0.00538669734190
    3     0.13505219265808     1.02369632281518     0.09813391063301     0.01494252852605     0.00590421959616
    4     0.15394536093370     0.10474482207623     0.02348805725884     0.00409303589671     0.00602534946180
    5     1.62000808879434     0.01422034412639     0.00224547454764     0.00072237083603     0.00035112562819
    6     0.00000000000000     0.01041960969354     0.00672928103503     0.00123841677735     0.00335550941064
    7     0.01041960969354     0.00000000000000     1.38265603441132     0.14649903529723     0.11126195911714
    8     0.00672928103503     1.38265603441132     0.00000000000000     1.43760273579833     0.13098640558416
    9     0.00123841677735     0.14649903529723     1.43760273579833     0.00000000000000     1.65699824992738
   10     0.00335550941064     0.11126195911714     0.13098640558416     1.65699824992738     0.00000000000000
   11     0.00090770122140     0.14223300709054     0.11323077200259     0.15301677754183     1.51038431732396
   12     0.00612923913715     1.53065548198952     0.12589692020616     0.11104462255540     0.11024594277437
   13     0.00008614298044     0.01970999871537     0.02043683419179     0.02372526803286     0.15909231613332
   14     0.00004910911669     0.00321008058019     0.00256811602113     0.00324141497538     0.01698590677975
   15     0.00000583136422     0.00051540641378     0.00138577660165     0.00090792158777     0.00310649158343
   16     0.00000434476828     0.00018201508005     0.00018825263207     0.00015057385989     0.00045916889773
   17     0.00000888227467     0.00024747000970     0.00114824122152     0.00039866191208     0.00117455129520
   18     0.00004664379384     0.00056603917335     0.00025967122202     0.00014184866949     0.00041261339081
   19     0.00019696682174     0.00572612055576     0.00290358117146     0.00148520760765     0.00427029034421
   20     0.00006910004095     0.00012261618678     0.00002710499312     0.00001756817393     0.00005803046943
   21     0.00004086857820     0.00002318682742     0.00000938245731     0.00000500399270     0.00001649199486
   22     0.00018885730149     0.00000767622462     0.00000234959900     0.00000151079867     0.00000379422461
   23     0.00010397721117     0.00000337016514     0.00000188176112     0.00000060899592     0.00000081400323
   24     0.00017527610425     0.00000215344962     0.00000112250285     0.00000027069967     0.00000033858811
   25     0.00024341130856     0.00000284886087     0.00000114885975     0.00000030561562     0.00000026648824
   26     0.00020501230046     0.00000301403058     0.00000147846008     0.00000046333966     0.00000040243111
   27     0.00017668205172     0.00000609770598     0.00000201331633     0.00000096711245     0.00000131952949
   28     0.00010563686944     0.00000083074189     0.00000019209589     0.00000005626743     0.00000006140675
   29     0.00029106048640     0.00000117492345     0.00000045797810     0.00000011104340     0.00000007066670
   30     0.00118998871691     0.00000516328857     0.00000220573326     0.00000047788934     0.00000054720426
   31     0.01410130812357     0.00004405731811     0.00003130886063     0.00000470306533     0.00000959540939
   32     0.03356183885211     0.00003863585370     0.00003443867984     0.00000528669656     0.00001505381519
   33     0.00876180772951     0.00001338536203     0.00000822728677     0.00000123078976     0.00000374677845
   34     0.00784141578222     0.00002605892470     0.00003733277465     0.00000639903521     0.00001571343371
   35     0.00084919254358     0.00000233482330     0.00000139599540     0.00000030266903     0.00000039150894
   36     0.00001825721358     0.00001107310173     0.00001037222998     0.00000426524671     0.00001379442918
   37     0.00000245386973     0.00015340556126     0.00015928986783     0.00014090363582     0.00082334897322
   38     0.08276784502303     0.00131480763509     0.00025125252543     0.00003986673132     0.00002770748253
   39     0.01178176011946     0.01621511121860     0.01470976228387     0.00114994542731     0.00039664662995
   40     0.01495281338251     0.01575106043768     0.00165245264207     0.00039504399497     0.00060074748589
   41     0.84956167518394     0.00049622532038     0.00025014040557     0.00004842657713     0.00009734258386
   42     0.00047972327059     0.07539718050424     0.87681733464651     0.08085100165789     0.01048110624137
   43     0.00004308329974     0.01171447696760     0.07509529980485     0.87586269291116     0.09022567565288
   44     0.00001340642695     0.00211904839235     0.00204428627191     0.00362045688486     0.03096905439998
   45     0.00000056157582     0.00001916674741     0.00001251546850     0.00002376546037     0.00005672630900
   46     0.00000173828743     0.00002215597579     0.00003935298857     0.00001545224312     0.00004968890458
   47     0.00018577148875     0.00374693468685     0.00079516355856     0.00044628228889     0.00070352670292
   48     0.00010787294049     0.00008923524072     0.00002267573180     0.00001002246398     0.00001801133311
   49     0.00000812484386     0.00000062192359     0.00000027455550     0.00000007115151     0.00000016099929
   50     0.00001703320167     0.00000019711714     0.00000007822693     0.00000002040792     0.00000003396769
   51     0.00003970381754     0.00000044717643     0.00000022334729     0.00000005991142     0.00000003655368
   52     0.00001892385393     0.00000125502092     0.00000035525775     0.00000014490360     0.00000026377855
   53     0.00001110005710     0.00000012527159     0.00000002948894     0.00000001158023     0.00000000682901
   54     0.00001247243979     0.00000009062772     0.00000004858507     0.00000001642603     0.00000001961274
   55     0.00013514553100     0.00000032820104     0.00000015973942     0.00000003572012     0.00000005945946
   56     0.00045278632662     0.00000288299087     0.00000115724695     0.00000018243656     0.00000012900068
   57     0.00213349005488     0.00000595325763     0.00000571896053     0.00000095255398     0.00000260624834
   58     0.00525815028504     0.00003178627231     0.00001295219168     0.00000208625138     0.00000109132770
   59     0.00048094941599     0.00000069800194     0.00000037600847     0.00000009674751     0.00000012749836
   60     0.00172943021891     0.00000317227403     0.00000187865018     0.00000034849296     0.00000053764776
   61     0.00099141756039     0.00000252534374     0.00000213160731     0.00000034121853     0.00000073373535
   62     0.00062434268600     0.00000271098676     0.00000369926587     0.00000055271622     0.00000175760801
   63     0.00261003590890     0.00001019566838     0.00000823170243     0.00000158737850     0.00000370737937
   64     0.00033722791021     0.00000113007866     0.00000042705236     0.00000013230105     0.00000012072745
   65     0.00009769542251     0.00000018267249     0.00000009270675     0.00000002687632     0.00000004983686
   66     0.00000041503469     0.00004414800898     0.00006935020575     0.00004295125882     0.00024127979889
   67     0.00000140432757     0.00004912443306     0.00011642835459     0.00004339196441     0.00036555765930
   68     0.00000017077983     0.00001492556251     0.00001064173995     0.00000501061931     0.00004093258323

                11                  12                  13                  14                  15

    1     0.00092309963167     0.00295002631709     0.00016446929122     0.00003251250284     0.00001123592855
    2     0.00341453617537     0.02231772575607     0.00048959104242     0.00009885315989     0.00002372166421
    3     0.01823139647091     0.11998044358801     0.00165991591218     0.00062047431652     0.00007792932093
    4     0.00701814110413     0.06273871519538     0.00095266841258     0.00150337345211     0.00015584105356
    5     0.00044213879421     0.00419590585552     0.00008372729735     0.00012459708205     0.00002224967504
    6     0.00090770122140     0.00612923913715     0.00008614298044     0.00004910911669     0.00000583136422
    7     0.14223300709054     1.53065548198952     0.01970999871537     0.00321008058019     0.00051540641378
    8     0.11323077200259     0.12589692020616     0.02043683419179     0.00256811602113     0.00138577660165
    9     0.15301677754183     0.11104462255540     0.02372526803286     0.00324141497538     0.00090792158777
   10     1.51038431732396     0.11024594277437     0.15909231613332     0.01698590677975     0.00310649158343
   11     0.00000000000000     1.53751120860594     1.27081565941043     0.08324729989497     0.01813671646644
   12     1.53751120860594     0.00000000000000     0.14355303068380     0.03185613526293     0.00384630776046
   13     1.27081565941043     0.14355303068380     0.00000000000000     1.12505045115649     0.10649331974997
   14     0.08324729989497     0.03185613526293     1.12505045115649     0.00000000000000     1.31973805552037
   15     0.01813671646644     0.00384630776046     0.10649331974997     1.31973805552037     0.00000000000000
   16     0.00235917253238     0.00130576610434     0.01418978057315     0.12575561632999     1.43989950160574
   17     0.00411216093948     0.00236128904315     0.01171889249603     0.12039671652385     0.12411401760412
   18     0.00247814687270     0.00498813171955     0.01314180599652     0.12241237201260     0.12029490538295
   19     0.02865194380793     0.05323850019947     0.11059531698151     1.40105825563829     0.11982828533957
   20     0.00033513997743     0.00098493676295     0.00129575003922     0.01477033175580     0.01094318971243
   21     0.00006533155733     0.00015516995057     0.00031054521148     0.00277940447721     0.00574234753167
   22     0.00001457129412     0.00003655883720     0.00005605048378     0.00036401920365     0.00033459537508
   23     0.00000365912925     0.00000637927831     0.00001156875555     0.00008569108028     0.00019128852150
   24     0.00000081699007     0.00000256793994     0.00000223244784     0.00001686208759     0.00003217932611
   25     0.00000093363807     0.00000347904141     0.00000170746502     0.00001882365194     0.00009929670716
   26     0.00000074672405     0.00000207254687     0.00000169312714     0.00001339911224     0.00005346785945
   27     0.00000564528768     0.00001465228452     0.00000987799833     0.00010129503846     0.00038668021144
   28     0.00000014072742     0.00000034570948     0.00000020108538     0.00000201538846     0.00000784205153
   29     0.00000011462715     0.00000042246144     0.00000011796274     0.00000104208536     0.00000510899619
   30     0.00000031723332     0.00000171261876     0.00000010756496     0.00000039629379     0.00000063120101
   31     0.00000305855787     0.00001912194079     0.00000039197519     0.00000072345670     0.00000060799691
   32     0.00000368406917     0.00002695153874     0.00000033934141     0.00000081398262     0.00000034808294
   33     0.00000114258280     0.00000809043437     0.00000020739279     0.00000018517092     0.00000012384328
   34     0.00000290861226     0.00002305785082     0.00000044849080     0.00000067713757     0.00000084529349
   35     0.00000025056859     0.00000087988065     0.00000028598651     0.00000034186674     0.00000077181863
   36     0.00004317871494     0.00005621809023     0.00016210220703     0.00114789105354     0.00346793463899
   37     0.00401683515946     0.00082571625188     0.03826397337798     0.09648970070756     1.05887066310502
   38     0.00009093929818     0.00031892087439     0.00001638564863     0.00000772712447     0.00000083385657
   39     0.00029383971918     0.00109773399290     0.00007165576489     0.00002606864039     0.00000434818232
   40     0.00274632199774     0.02531640429740     0.00043321300398     0.00127328839910     0.00015267790833
   41     0.00004127002264     0.00024180908692     0.00000570497439     0.00000429035874     0.00000059312719
   42     0.00577360289364     0.01073613810717     0.00103806226329     0.00012750441365     0.00006204834149
   43     0.01587115644508     0.00401100895190     0.00135941468691     0.00038734550453     0.00006311607369
   44     0.07402716939285     0.01186310329622     0.93450066979977     0.05958073857493     0.01505989454237
   45     0.00036390406464     0.00007047162214     0.00115930787322     0.01141697615888     0.07503173215772
   46     0.00014931771672     0.00014543433978     0.00050699794245     0.00527194744701     0.01055317391575
   47     0.00918164917796     0.03246154878988     0.01596751052104     0.07284567082803     0.00972598710034
   48     0.00011924408808     0.00062680705166     0.00017426857383     0.00200385975379     0.00108528649720
   49     0.00000071766787     0.00000214830648     0.00000261755002     0.00001260279317     0.00001123245558
   50     0.00000011869981     0.00000029494767     0.00000048476445     0.00000291081015     0.00000296652910
   51     0.00000015226743     0.00000050459970     0.00000023492836     0.00000177928703     0.00000282750874
   52     0.00000089234333     0.00000331516260     0.00000248988544     0.00002075206453     0.00010638448741
   53     0.00000002826695     0.00000003976635     0.00000003928461     0.00000030569853     0.00000120889979
   54     0.00000002003681     0.00000002742668     0.00000004457305     0.00000031285658     0.00000092867106
   55     0.00000003105211     0.00000015240020     0.00000002008628     0.00000009277158     0.00000003686513
   56     0.00000016062194     0.00000083322917     0.00000003227512     0.00000015714068     0.00000027610721
   57     0.00000058761030     0.00000369917874     0.00000005601487     0.00000009213983     0.00000009912024
   58     0.00000186572579     0.00001127873050     0.00000044932782     0.00000060488571     0.00000124895226
   59     0.00000005980113     0.00000026641499     0.00000000770365     0.00000002562441     0.00000003201503
   60     0.00000022554111     0.00000145213941     0.00000003279106     0.00000002695935     0.00000001447824
   61     0.00000022879547     0.00000157437834     0.00000004233272     0.00000002728408     0.00000001421556
   62     0.00000044183240     0.00000330059270     0.00000005468239     0.00000005520229     0.00000008686590
   63     0.00000070003455     0.00000331252477     0.00000015712944     0.00000038003889     0.00000037936425
   64     0.00000016661733     0.00000027117087     0.00000004171977     0.00000006370660     0.00000027379382
   65     0.00000002451304     0.00000011067034     0.00000001912706     0.00000006212885     0.00000011561593
   66     0.00078451142301     0.00025832460609     0.00877804000327     0.01633653182787     0.05731577015663
   67     0.00115500455711     0.00031945826186     0.01053226898384     0.01675573663316     0.05869376121493
   68     0.00024818575294     0.00006713374209     0.00203874337850     0.00896024705088     0.05982597782824

                16                  17                  18                  19                  20

    1     0.00000236377423     0.00001297667856     0.00003654060592     0.00021024815664     0.00007936772453
    2     0.00000677277066     0.00001920598495     0.00006518666774     0.00026262810851     0.00008579073109
    3     0.00004916364181     0.00006398947919     0.00032340409160     0.00213159464275     0.00031388754567
    4     0.00029337948653     0.00029577085200     0.00211262520348     0.01095594334283     0.00348943029839
    5     0.00001526638464     0.00006161230671     0.00022544301814     0.00065141777081     0.00067011995970
    6     0.00000434476828     0.00000888227467     0.00004664379384     0.00019696682174     0.00006910004095
    7     0.00018201508005     0.00024747000970     0.00056603917335     0.00572612055576     0.00012261618678
    8     0.00018825263207     0.00114824122152     0.00025967122202     0.00290358117146     0.00002710499312
    9     0.00015057385989     0.00039866191208     0.00014184866949     0.00148520760765     0.00001756817393
   10     0.00045916889773     0.00117455129520     0.00041261339081     0.00427029034421     0.00005803046943
   11     0.00235917253238     0.00411216093948     0.00247814687270     0.02865194380793     0.00033513997743
   12     0.00130576610434     0.00236128904315     0.00498813171955     0.05323850019947     0.00098493676295
   13     0.01418978057315     0.01171889249603     0.01314180599652     0.11059531698151     0.00129575003922
   14     0.12575561632999     0.12039671652385     0.12241237201260     1.40105825563829     0.01477033175580
   15     1.43989950160574     0.12411401760412     0.12029490538295     0.11982828533957     0.01094318971243
   16     0.00000000000000     1.44638536493987     0.13263733956068     0.12616302438470     0.01362106870910
   17     1.44638536493987     0.00000000000000     1.39836616455494     0.12235139600196     0.10404915676324
   18     0.13263733956068     1.39836616455494     0.00000000000000     1.36651944865804     1.12310323065246
   19     0.12616302438470     0.12235139600196     1.36651944865804     0.00000000000000     0.12197774849292
   20     0.01362106870910     0.10404915676324     1.12310323065246     0.12197774849292     0.00000000000000
   21     0.00285921148943     0.03192086489506     0.08686603568897     0.02255448501558     1.31826996003787
   22     0.00035935991046     0.00336377353349     0.01495163982942     0.00220360287878     0.10922198779908
   23     0.00010558452793     0.00075911768907     0.00248529831805     0.00051643968066     0.01953390650943
   24     0.00001949240330     0.00013638085127     0.00045055583796     0.00010083730108     0.00254206429672
   25     0.00002421722317     0.00019795802792     0.00051616127216     0.00015137674777     0.00325193775755
   26     0.00002282620608     0.00017232626613     0.00041794165419     0.00011486100123     0.00355963034552
   27     0.00012625084262     0.00118489763400     0.00342831889834     0.00087309411504     0.03841004299750
   28     0.00000218597961     0.00001697410706     0.00004290079796     0.00001261396553     0.00023542386197
   29     0.00000134392464     0.00000870845682     0.00002522905473     0.00000720802351     0.00014973463973
   30     0.00000053685085     0.00000228549990     0.00000672866742     0.00000166171600     0.00003601727946
   31     0.00000040167694     0.00000215488620     0.00000485519067     0.00000206770456     0.00003072796787
   32     0.00000016420154     0.00000077769921     0.00000191253621     0.00000265186038     0.00000743109149
   33     0.00000008062311     0.00000039096609     0.00000056225956     0.00000040179918     0.00000210777768
   34     0.00000038204987     0.00000246080163     0.00000359102256     0.00000295461397     0.00002970853598
   35     0.00000040663825     0.00000207724526     0.00000406729656     0.00000165296405     0.00002565844347
   36     0.00372760124774     0.04952839736980     0.03275521343986     0.00536326922976     0.19390465556066
   37     0.11527637314127     0.01433841535345     0.00737335021128     0.01399837087999     0.00070308964993
   38     0.00000038668251     0.00000081798326     0.00000564441802     0.00002304883983     0.00000491035154
   39     0.00000219236144     0.00000257364279     0.00000658786882     0.00003800787380     0.00000706908092
   40     0.00027165109745     0.00025256489488     0.00196146752834     0.00846938247250     0.00231669356796
   41     0.00000048284665     0.00000093806090     0.00000285992999     0.00001307804383     0.00000559690722
   42     0.00001318960231     0.00004203703519     0.00002955459995     0.00018657021902     0.00000612012995
   43     0.00001595460941     0.00001357453894     0.00001588463548     0.00011424113720     0.00000174265888
   44     0.00151938596799     0.00116560530489     0.00130945331168     0.01057812939168     0.00023651381915
   45     0.87148543151439     0.07904226353887     0.01175796802650     0.00566902322607     0.00103543640736
   46     0.07728085601236     0.85980480274279     0.07527260929405     0.01122229511552     0.01480451260907
   47     0.00564927927221     0.01040896084812     0.07190406694832     0.83996163102141     0.02326381838014
   48     0.00137438327436     0.01009807284040     0.06226032297441     0.02108848837856     0.93507647270433
   49     0.00001575820751     0.00011332876189     0.00024369559910     0.00005572564407     0.00199190576492
   50     0.00000235471822     0.00001820511472     0.00006080981152     0.00001573130057     0.00027879427229
   51     0.00000247067315     0.00001614979055     0.00003330185991     0.00001072954601     0.00021119967018
   52     0.00003342063312     0.00028348183278     0.00094207354144     0.00022766169794     0.01062301815401
   53     0.00000039915852     0.00000326344730     0.00000588425572     0.00000235344270     0.00004120151569
   54     0.00000050424405     0.00000340288486     0.00000804939415     0.00000187002381     0.00003759534650
   55     0.00000015683745     0.00000059478764     0.00000187409561     0.00000035091633     0.00001096420315
   56     0.00000014522990     0.00000050567451     0.00000066991364     0.00000056595850     0.00000523454949
   57     0.00000002735582     0.00000021760201     0.00000042005523     0.00000026817954     0.00000172871078
   58     0.00000058528905     0.00000425195607     0.00000617023937     0.00000323922686     0.00005509148343
   59     0.00000001482079     0.00000007375139     0.00000010386295     0.00000007454249     0.00000034001471
   60     0.00000000893636     0.00000004285763     0.00000008667606     0.00000006150882     0.00000025017791
   61     0.00000000855041     0.00000004893835     0.00000008027729     0.00000005551223     0.00000025205731
   62     0.00000002095199     0.00000013666537     0.00000018185207     0.00000015853209     0.00000155547675
   63     0.00000042038042     0.00000318161473     0.00000495967171     0.00000246787201     0.00002859290670
   64     0.00000010344405     0.00000043937986     0.00000089429787     0.00000045953910     0.00000556161510
   65     0.00000007646059     0.00000043978354     0.00000080588868     0.00000029157114     0.00000551009292
   66     0.01542884983693     0.00123598917697     0.00312564000036     0.00118892714471     0.00037236704533
   67     0.01457319648526     0.00126410282278     0.00263353157825     0.00128120606392     0.00030337800398
   68     0.02377280703763     0.00190803630663     0.00056698264370     0.00109350285313     0.00008377668846

                21                  22                  23                  24                  25

    1     0.00002718382047     0.00006571108772     0.00004153069558     0.00001994334431     0.00001836670781
    2     0.00002156803602     0.00003370667186     0.00001832809945     0.00001011835687     0.00001068143851
    3     0.00005291614363     0.00003231732235     0.00001538315425     0.00001316518952     0.00001585911182
    4     0.00045973632064     0.00053983261042     0.00014574821411     0.00014280685541     0.00016578369043
    5     0.00032347805568     0.00184693290038     0.00076132173388     0.00054303254723     0.00057756740670
    6     0.00004086857820     0.00018885730149     0.00010397721117     0.00017527610425     0.00024341130856
    7     0.00002318682742     0.00000767622462     0.00000337016514     0.00000215344962     0.00000284886087
    8     0.00000938245731     0.00000234959900     0.00000188176112     0.00000112250285     0.00000114885975
    9     0.00000500399270     0.00000151079867     0.00000060899592     0.00000027069967     0.00000030561562
   10     0.00001649199486     0.00000379422461     0.00000081400323     0.00000033858811     0.00000026648824
   11     0.00006533155733     0.00001457129412     0.00000365912925     0.00000081699007     0.00000093363807
   12     0.00015516995057     0.00003655883720     0.00000637927831     0.00000256793994     0.00000347904141
   13     0.00031054521148     0.00005605048378     0.00001156875555     0.00000223244784     0.00000170746502
   14     0.00277940447721     0.00036401920365     0.00008569108028     0.00001686208759     0.00001882365194
   15     0.00574234753167     0.00033459537508     0.00019128852150     0.00003217932611     0.00009929670716
   16     0.00285921148943     0.00035935991046     0.00010558452793     0.00001949240330     0.00002421722317
   17     0.03192086489506     0.00336377353349     0.00075911768907     0.00013638085127     0.00019795802792
   18     0.08686603568897     0.01495163982942     0.00248529831805     0.00045055583796     0.00051616127216
   19     0.02255448501558     0.00220360287878     0.00051643968066     0.00010083730108     0.00015137674777
   20     1.31826996003787     0.10922198779908     0.01953390650943     0.00254206429672     0.00325193775755
   21     0.00000000000000     0.96671151950491     0.11252083033052     0.01468306160383     0.01032924219643
   22     0.96671151950491     0.00000000000000     1.39264059273661     0.12763398892832     0.12451116370903
   23     0.11252083033052     1.39264059273661     0.00000000000000     1.46753169864075     0.12679669662064
   24     0.01468306160383     0.12763398892832     1.46753169864075     0.00000000000000     1.40212297893804
   25     0.01032924219643     0.12451116370903     0.12679669662064     1.40212297893804     0.00000000000000
   26     0.01447714325664     0.12839670666494     0.13336988483196     0.12546170370448     1.40021925286782
   27     0.10615141460822     1.40196499831404     0.12394985093360     0.13037789347457     0.12555978174265
   28     0.00070321913430     0.00907089661770     0.01431885392642     0.11049205645054     1.01706496623766
   29     0.00033163109420     0.00415955081681     0.00183309727037     0.02034998852799     0.08641632674743
   30     0.00008857533957     0.00101895425814     0.00183770464080     0.01579116785281     0.02355520070270
   31     0.00006650177219     0.00165568024174     0.00582783557384     0.01700864994727     0.02069834495422
   32     0.00002839574475     0.00047710077093     0.00070591554831     0.00192718437967     0.00383538710065
   33     0.00000585284768     0.00009546031960     0.00017446929320     0.00054205882951     0.00108424157112
   34     0.00005291405752     0.00083801932675     0.00163272584682     0.00250808902671     0.01547602703786
   35     0.00007554091906     0.00082398479819     0.00066791663162     0.00381248294958     0.01839034853626
   36     2.19235839443474     0.13952568096617     0.04681094270117     0.00391541681324     0.00490141706946
[...]
   15     0.00000027610721     0.00000009912024     0.00000124895226     0.00000003201503     0.00000001447824
   16     0.00000014522990     0.00000002735582     0.00000058528905     0.00000001482079     0.00000000893636
   17     0.00000050567451     0.00000021760201     0.00000425195607     0.00000007375139     0.00000004285763
   18     0.00000066991364     0.00000042005523     0.00000617023937     0.00000010386295     0.00000008667606
   19     0.00000056595850     0.00000026817954     0.00000323922686     0.00000007454249     0.00000006150882
   20     0.00000523454949     0.00000172871078     0.00005509148343     0.00000034001471     0.00000025017791
   21     0.00001973250543     0.00000558337866     0.00010137281998     0.00000137604830     0.00000062558015
   22     0.00018632624429     0.00010265079158     0.00195497198510     0.00000979296453     0.00001055616418
   23     0.00018796153216     0.00019390044351     0.00535853093176     0.00001717894928     0.00002494561927
   24     0.00074412738066     0.00057119167442     0.01371813522276     0.00008301286509     0.00005007998799
   25     0.00143555347354     0.00077501053974     0.01443294229771     0.00017809749370     0.00009204448223
   26     0.00053824771983     0.00029864610263     0.00598666284825     0.00009098186991     0.00004775019677
   27     0.00022637110196     0.00010816210164     0.00215672079999     0.00002580708845     0.00001899443939
   28     0.01155119882240     0.00110543470078     0.00627775391035     0.00065456339641     0.00010570479747
   29     0.06458839118214     0.01088488653907     0.01146828881378     0.00338357138811     0.00062758534768
   30     0.79198114406746     0.05796600258920     0.04322369896397     0.01302754498609     0.00395551410649
   31     0.04922894101982     0.86193791196105     0.75536828655849     0.01608167648018     0.01963643330973
   32     0.01372522916611     0.05723684617266     0.05905301694777     0.06756461128052     0.06373010528474
   33     0.01505752722657     0.02069812623679     0.01310495385338     0.90860655762451     0.91545296108625
   34     0.00762406368106     0.01419094260060     0.02317876050071     0.01640910656741     0.01291991043293
   35     0.01974391137198     0.00218317897343     0.00738625640187     0.01308458740931     0.00167899815177
   36     0.00000781065879     0.00000306423018     0.00005602897647     0.00000067799371     0.00000031273016
   37     0.00000002148254     0.00000000764835     0.00000010961250     0.00000001830331     0.00000000374902
   38     0.00001462813590     0.00000851941297     0.00002273918196     0.00003219946406     0.00007203550159
   39     0.00000134801720     0.00000284553778     0.00001714371976     0.00000080168960     0.00000190509304
   40     0.00000937276611     0.00000739567667     0.00007685716562     0.00000040875632     0.00000269176827
   41     0.00024457578778     0.00201671980855     0.00250520722337     0.00061751711080     0.00214134420117
   42     0.00000009976441     0.00000053086582     0.00000212765078     0.00000004795387     0.00000027628016
   43     0.00000002360760     0.00000007258767     0.00000083072933     0.00000000235367     0.00000002705650
   44     0.00000001075952     0.00000001532924     0.00000012404244     0.00000000373107     0.00000000537794
   45     0.00000000778297     0.00000000490333     0.00000013007110     0.00000000190347     0.00000000098064
   46     0.00000009043486     0.00000002977834     0.00000159325052     0.00000001001862     0.00000000817418
   47     0.00000020927986     0.00000019628525     0.00000147685747     0.00000004926739     0.00000003451684
   48     0.00000672932300     0.00000242989331     0.00003293715845     0.00000085642887     0.00000018913735
   49     0.00002137280314     0.00001840573489     0.00034562077077     0.00000151369817     0.00000190030337
   50     0.00011576167475     0.00007134402866     0.00207367499748     0.00002717703980     0.00001043164187
   51     0.00012326100715     0.00002761731190     0.00066304917998     0.00004303598374     0.00001273962362
   52     0.00001200059417     0.00000468371737     0.00007841954910     0.00000209309724     0.00000093409921
   53     0.00116313409026     0.00012330914821     0.00075361222948     0.00007786121794     0.00002268588595
   54     0.00056339665766     0.00029467562061     0.00041203122361     0.00006987010104     0.00001910783456
   55     0.02028603424572     0.00556608971020     0.00874123951756     0.00049384576883     0.00012314283284
   56     0.00000000000000     0.00866271059144     0.02291629869924     0.00735357271991     0.00158391497344
   57     0.00866271059144     0.00000000000000     0.01920205410880     0.00276644638208     0.00640066127337
   58     0.02291629869924     0.01920205410880     0.00000000000000     0.00093303993493     0.00106717845086
   59     0.00735357271991     0.00276644638208     0.00093303993493     0.00000000000000     0.03498900030839
   60     0.00158391497344     0.00640066127337     0.00106717845086     0.03498900030839     0.00000000000000
   61     0.00058778487393     0.00104994948515     0.00072807304388     0.03497450614354     0.03732347127267
   62     0.00041086204215     0.00130328887381     0.00110449586797     0.00298297651103     0.00111980009003
   63     0.00081714987375     0.00102474889146     0.00666070194620     0.00091533670437     0.00072377207093
   64     0.00467331154257     0.00039109866977     0.00076636690843     0.00754747032671     0.00059087072374
   65     0.00070585995983     0.00037359118835     0.00045366657856     0.00053074017771     0.00021406580664
   66     0.00000001285353     0.00000000418863     0.00000005188688     0.00000000118283     0.00000000084032
   67     0.00000001230838     0.00000000376670     0.00000004555865     0.00000000075182     0.00000000037102
   68     0.00000000109192     0.00000000253216     0.00000001903903     0.00000000069967     0.00000000013257

                61                  62                  63                  64                  65

    1     0.00015212478494     0.00006209628770     0.00012569866610     0.00004856909612     0.00000904269067
    2     0.00001718421705     0.00001291713652     0.00010849350014     0.00000496091413     0.00000236566443
    3     0.00003044854836     0.00005676946944     0.00012082346128     0.00000640215507     0.00000091866770
    4     0.00003785267033     0.00003330505541     0.00030561114566     0.00005737060618     0.00000519057701
    5     0.00007737137688     0.00018299356918     0.00245586879611     0.00026675244614     0.00002152373827
    6     0.00099141756039     0.00062434268600     0.00261003590890     0.00033722791021     0.00009769542251
    7     0.00000252534374     0.00000271098676     0.00001019566838     0.00000113007866     0.00000018267249
    8     0.00000213160731     0.00000369926587     0.00000823170243     0.00000042705236     0.00000009270675
    9     0.00000034121853     0.00000055271622     0.00000158737850     0.00000013230105     0.00000002687632
   10     0.00000073373535     0.00000175760801     0.00000370737937     0.00000012072745     0.00000004983686
   11     0.00000022879547     0.00000044183240     0.00000070003455     0.00000016661733     0.00000002451304
   12     0.00000157437834     0.00000330059270     0.00000331252477     0.00000027117087     0.00000011067034
   13     0.00000004233272     0.00000005468239     0.00000015712944     0.00000004171977     0.00000001912706
   14     0.00000002728408     0.00000005520229     0.00000038003889     0.00000006370660     0.00000006212885
   15     0.00000001421556     0.00000008686590     0.00000037936425     0.00000027379382     0.00000011561593
   16     0.00000000855041     0.00000002095199     0.00000042038042     0.00000010344405     0.00000007646059
   17     0.00000004893835     0.00000013666537     0.00000318161473     0.00000043937986     0.00000043978354
   18     0.00000008027729     0.00000018185207     0.00000495967171     0.00000089429787     0.00000080588868
   19     0.00000005551223     0.00000015853209     0.00000246787201     0.00000045953910     0.00000029157114
   20     0.00000025205731     0.00000155547675     0.00002859290670     0.00000556161510     0.00000551009292
   21     0.00000045977549     0.00000306026116     0.00005075987738     0.00001943289215     0.00001877288696
   22     0.00000845489515     0.00004905485274     0.00088647767059     0.00019439897259     0.00015614774667
   23     0.00001883516603     0.00007678496119     0.00142766574662     0.00009635817964     0.00010235136218
   24     0.00002965858135     0.00012571615703     0.00226039874971     0.00047898707853     0.00042239797728
   25     0.00008311850750     0.00054289419630     0.00982677102008     0.00154868239582     0.00467901672899
   26     0.00007215217209     0.00072776798615     0.02192119401048     0.00081963163549     0.00509756011040
   27     0.00002526806703     0.00022202631375     0.00621062975360     0.00031358040467     0.00034668010849
   28     0.00010798635563     0.00105751377000     0.00554175950683     0.01153087153810     0.02112355364979
   29     0.00066152890732     0.01151972617400     0.01157591118158     0.06556408361984     0.05444089667231
   30     0.00169998868916     0.00212260324240     0.00751728748866     0.01970029012749     0.01249234880891
   31     0.01275070791715     0.01441490361995     0.02356049202223     0.00749769672024     0.00243662202264
   32     0.06319542293746     0.05466051111072     0.05813185289846     0.01359222647456     0.01073934457821
   33     0.91682960569915     0.02156093555284     0.01260176787166     0.01527333078705     0.00161626327670
   34     0.02013612364831     0.85539856187000     0.78109431132387     0.04892484344587     0.05825705003145
   35     0.00396697066267     0.05739626245285     0.04377009936440     0.79140625195048     0.87550772280651
   36     0.00000028434686     0.00000219643522     0.00002225560005     0.00001226459055     0.00000664357546
   37     0.00000000551412     0.00000000695044     0.00000004225482     0.00000003631772     0.00000000725096
   38     0.00006422829955     0.00000309073020     0.00000558262291     0.00001307206243     0.00000100707470
   39     0.00000124866507     0.00000084495113     0.00000382676606     0.00000092858921     0.00000031273867
   40     0.00000247569780     0.00000301606960     0.00001360619037     0.00000453818747     0.00000027069136
   41     0.00142299268327     0.00064860594326     0.00153408040265     0.00022888552348     0.00008375129299
   42     0.00000029627490     0.00000035572295     0.00000112182828     0.00000010241247     0.00000001167733
   43     0.00000002166757     0.00000001961433     0.00000015351177     0.00000000885041     0.00000000102466
   44     0.00000000427393     0.00000000932954     0.00000004546559     0.00000001385075     0.00000000281590
   45     0.00000000067273     0.00000000119686     0.00000005296537     0.00000000818636     0.00000001618640
   46     0.00000000411590     0.00000003773040     0.00000142072794     0.00000009304765     0.00000013284337
   47     0.00000001247762     0.00000005694469     0.00000098124250     0.00000016289023     0.00000005563289
   48     0.00000028276826     0.00000220602358     0.00003050496605     0.00001139486019     0.00000207235405
   49     0.00000107194564     0.00000320302966     0.00004154055992     0.00001341575197     0.00002003204335
   50     0.00000372943473     0.00001747294819     0.00010076531682     0.00010436215437     0.00007317454399
   51     0.00002497164600     0.00027120240098     0.00495964484195     0.00011099668347     0.00243083053875
   52     0.00000163414297     0.00002003551324     0.00052018668035     0.00003838262812     0.00002558104795
   53     0.00002196689324     0.00036091273522     0.00030913320326     0.00041350172147     0.00106851226986
   54     0.00001822352308     0.00010134186763     0.00088239582320     0.00110054101223     0.00671057723018
   55     0.00022063082103     0.00040004140142     0.00040180341484     0.00071298096057     0.00114689006230
   56     0.00058778487393     0.00041086204215     0.00081714987375     0.00467331154257     0.00070585995983
   57     0.00104994948515     0.00130328887381     0.00102474889146     0.00039109866977     0.00037359118835
   58     0.00072807304388     0.00110449586797     0.00666070194620     0.00076636690843     0.00045366657856
   59     0.03497450614354     0.00298297651103     0.00091533670437     0.00754747032671     0.00053074017771
   60     0.03732347127267     0.00111980009003     0.00072377207093     0.00059087072374     0.00021406580664
   61     0.00000000000000     0.00681154887075     0.00106959575175     0.00158374015779     0.00013244004421
   62     0.00681154887075     0.00000000000000     0.01934116347717     0.00899415188940     0.00560023719210
   63     0.00106959575175     0.01934116347717     0.00000000000000     0.02139405062039     0.00836933310547
   64     0.00158374015779     0.00899415188940     0.02139405062039     0.00000000000000     0.02149936345590
   65     0.00013244004421     0.00560023719210     0.00836933310547     0.02149936345590     0.00000000000000
   66     0.00000000058403     0.00000000407626     0.00000001574978     0.00000001308653     0.00000000574382
   67     0.00000000151837     0.00000000397595     0.00000001454385     0.00000001153747     0.00000000269346
   68     0.00000000038248     0.00000000064280     0.00000000683485     0.00000000175534     0.00000000148252

                66                  67                  68

    1     0.00000085173576     0.00000107980162     0.00000036011791
    2     0.00000183047903     0.00000334168434     0.00000066313878
    3     0.00001080433806     0.00001015370164     0.00000354839079
    4     0.00000838896010     0.00000907531375     0.00000830974601
    5     0.00000074208121     0.00000093113779     0.00000058567045
    6     0.00000041503469     0.00000140432757     0.00000017077983
    7     0.00004414800898     0.00004912443306     0.00001492556251
    8     0.00006935020575     0.00011642835459     0.00001064173995
    9     0.00004295125882     0.00004339196441     0.00000501061931
   10     0.00024127979889     0.00036555765930     0.00004093258323
   11     0.00078451142301     0.00115500455711     0.00024818575294
   12     0.00025832460609     0.00031945826186     0.00006713374209
   13     0.00877804000327     0.01053226898384     0.00203874337850
   14     0.01633653182787     0.01675573663316     0.00896024705088
   15     0.05731577015663     0.05869376121493     0.05982597782824
   16     0.01542884983693     0.01457319648526     0.02377280703763
   17     0.00123598917697     0.00126410282278     0.00190803630663
   18     0.00312564000036     0.00263353157825     0.00056698264370
   19     0.00118892714471     0.00128120606392     0.00109350285313
   20     0.00037236704533     0.00030337800398     0.00008377668846
   21     0.00022124550627     0.00019112669900     0.00003197603736
   22     0.00001557774630     0.00001142063995     0.00000679118602
   23     0.00000877486500     0.00000647213302     0.00000150717189
   24     0.00000147708506     0.00000111832261     0.00000022967268
   25     0.00000443687814     0.00000353092516     0.00000028165818
   26     0.00000222256596     0.00000214448983     0.00000032135843
   27     0.00001537106727     0.00001395382936     0.00000223114214
   28     0.00000030813590     0.00000030512175     0.00000003872887
   29     0.00000023247800     0.00000017899874     0.00000001657292
   30     0.00000002959313     0.00000002018841     0.00000000838863
   31     0.00000002874361     0.00000003283872     0.00000000970240
   32     0.00000001904111     0.00000001859796     0.00000000737567
   33     0.00000000657783     0.00000000665571     0.00000000164936
   34     0.00000004123667     0.00000004340881     0.00000000792256
   35     0.00000003284611     0.00000002450808     0.00000000627335
   36     0.00012491208635     0.00012657646472     0.00001728465540
   37     0.91868248640302     0.91903825299921     0.92078432644051
   38     0.00000008896562     0.00000009713421     0.00000003989423
   39     0.00000025317479     0.00000034449182     0.00000010043265
   40     0.00000721719077     0.00000808123531     0.00000689623614
   41     0.00000006054574     0.00000007690519     0.00000003735733
   42     0.00000316151006     0.00000456398798     0.00000059243029
   43     0.00000290688761     0.00000332621693     0.00000062945585
   44     0.00482633671793     0.00403227421649     0.00098883047824
   45     0.00129407575688     0.00119385509594     0.00765024625257
   46     0.00019550845867     0.00022957418510     0.00012897144529
   47     0.00018060410595     0.00018798789043     0.00035232271730
   48     0.00003844863711     0.00004065699737     0.00003889842021
   49     0.00000040708734     0.00000062567274     0.00000034368083
   50     0.00000011599999     0.00000017494467     0.00000007173192
   51     0.00000017780548     0.00000009832556     0.00000004858615
   52     0.00000408458019     0.00000424630132     0.00000057814316
   53     0.00000006788730     0.00000004112662     0.00000000942812
   54     0.00000004640713     0.00000003493011     0.00000001056006
   55     0.00000000206736     0.00000000330391     0.00000000200355
   56     0.00000001285353     0.00000001230838     0.00000000109192
   57     0.00000000418863     0.00000000376670     0.00000000253216
   58     0.00000005188688     0.00000004555865     0.00000001903903
   59     0.00000000118283     0.00000000075182     0.00000000069967
   60     0.00000000084032     0.00000000037102     0.00000000013257
   61     0.00000000058403     0.00000000151837     0.00000000038248
   62     0.00000000407626     0.00000000397595     0.00000000064280
   63     0.00000001574978     0.00000001454385     0.00000000683485
   64     0.00000001308653     0.00000001153747     0.00000000175534
   65     0.00000000574382     0.00000000269346     0.00000000148252
   66     0.00000000000000     0.03547137247520     0.03885533404648
   67     0.03547137247520     0.00000000000000     0.03926489612227
   68     0.03885533404648     0.03926489612227     0.00000000000000



  Atomic Valences: 

 #  #
 Irrep: 1
      1:  4.3927006
      2:  4.4241807
      3:  4.6039189
      4:  4.5811088
      5:  3.9144515
      6:  4.5788633
      7:  4.7425459
      8:  4.3669440
      9:  4.5240828
     10:  3.8620966
     11:  5.0124652
     12:  3.9645506
     13:  4.0386659
     14:  4.6687811
     15:  4.6264048
     16:  4.4376389
     17:  4.4046126
     18:  4.6696286
     19:  4.4263351
     20:  4.0767449
     21:  5.0207759
     22:  4.6336215
     23:  4.4335355
     24:  4.4681897
     25:  4.7170798
     26:  4.4823341
     27:  4.4381287
     28:  4.5079890
     29:  4.2500893
     30:  4.5633060
     31:  4.5912076
     32:  4.3025860
     33:  4.2954789
     34:  4.5853142
     35:  4.5598700
     36:  2.7637822
     37:  4.1495068
     38:  1.0989790
     39:  1.1022224
     40:  1.1120932
     41:  1.1282605
     42:  1.1096286
     43:  1.0864456
     44:  1.1758444
     45:  1.1001659
     46:  1.1069164
     47:  1.1285177
     48:  1.1785228
     49:  1.0960254
     50:  1.1056109
     51:  1.1098798
     52:  1.0992887
     53:  1.1097830
     54:  1.1090699
     55:  1.0854836
     56:  1.0485022
     57:  1.0805924
     58:  1.0497509
     59:  1.1342889
     60:  1.1069406
     61:  1.1069459
     62:  1.0703687
     63:  1.0613172
     64:  1.0478982
     65:  1.0970305
     66:  1.1052033
     67:  1.1079498
     68:  1.1067845


    Psi4 stopped on: Tuesday, 14 April 2020 01:08PM
    Psi4 wall time for execution: 0:24:21.12

*** Psi4 exiting successfully. Buy a developer a beer!
