
    -----------------------------------------------------------------------
          Psi4: An Open-Source Ab Initio Electronic Structure Package
                               Psi4 1.3.2 release

                         Git: Rev {HEAD} ecbda83 


    R. M. Parrish, L. A. Burns, D. G. A. Smith, A. C. Simmonett,
    A. E. DePrince III, E. G. Hohenstein, U. Bozkaya, A. Yu. Sokolov,
    R. Di Remigio, R. M. Richard, J. F. Gonthier, A. M. James,
    H. R. McAlexander, A. Kumar, M. Saitow, X. Wang, B. P. Pritchard,
    P. Verma, H. F. Schaefer III, K. Patkowski, R. A. King, E. F. Valeev,
    F. A. Evangelista, J. M. Turney, T. D. Crawford, and C. D. Sherrill,
    J. Chem. Theory Comput. 13(7) pp 3185--3197 (2017).
    (doi: 10.1021/acs.jctc.7b00174)


                         Additional Contributions by
    P. Kraus, H. Kruse, M. H. Lechner, M. C. Schieber, R. A. Shaw,
    A. Alenaizan, R. Galvelis, Z. L. Glick, S. Lehtola, and J. P. Misiewicz

    -----------------------------------------------------------------------


    Psi4 started on: Tuesday, 03 March 2020 06:02PM

    Process ID: 46734
    Host:       node48.bme.utexas.edu
    PSIDATADIR: /home/bdw2292/miniconda3/envs/p4env/share/psi4
    Memory:     500.0 MiB
    Threads:    1
    
  ==> Input File <==

--------------------------------------------------------------------------
molecule { 
0 1
 C   -9.630691    1.827712   -1.438655
 C   -8.778868    1.880409   -0.327492
 C   -7.528306    1.229608   -0.363107
 C   -7.214600    0.568335   -1.574540
 N   -8.013482    0.511744   -2.648006
 C   -9.201271    1.128511   -2.571288
 C   -6.552970    1.241041    0.788099
 C   -6.746997    1.956146    1.981406
 C   -5.708401    1.878499    2.911661
 N   -4.596065    1.175900    2.731666
 C   -4.499567    0.496392    1.566998
 N   -5.430619    0.510908    0.611615
 N   -3.318821   -0.225093    1.471489
 C   -2.618744   -1.037200    0.503613
 C   -3.259192   -1.861831   -0.472465
 C   -2.428301   -2.573574   -1.356805
 C   -1.032077   -2.529202   -1.334978
 C   -0.413751   -1.737634   -0.364081
 C   -1.212825   -1.012856    0.537533
 N    1.003567   -1.590534   -0.193194
 C    2.056218   -2.136513   -0.892975
 C    3.468796   -1.836297   -0.427286
 C    3.809604   -1.561168    0.907455
 C    5.134626   -1.295006    1.260588
 C    6.167758   -1.313337    0.304854
 C    5.818083   -1.622046   -1.023314
 C    4.495984   -1.890190   -1.384964
 C    7.613689   -0.998695    0.692186
 N    8.080555    0.398477    0.646118
 C    7.593234    1.349314    1.671448
 C    6.366815    2.194952    1.240692
 N    6.527064    2.900980   -0.051296
 C    7.250636    4.176599   -0.017852
 C    6.962685    1.921097   -1.073014
 C    8.193649    1.068659   -0.669654
 O    1.888853   -2.839799   -1.876765
 C   -4.739878   -2.176669   -0.585909
 H  -10.601002    2.315277   -1.429178
 H   -9.120289    2.422836    0.550549
 H   -6.255020    0.077699   -1.682538
 H   -9.828002    1.063639   -3.459218
 H   -7.616837    2.565346    2.193029
 H   -5.773687    2.418217    3.856136
 H   -2.707270    0.008300    2.241216
 H   -2.880619   -3.230270   -2.100328
 H   -0.439649   -3.101224   -2.038235
 H   -0.745063   -0.386318    1.285158
 H    1.266562   -0.912899    0.507892
 H    3.035944   -1.561355    1.671119
 H    5.364100   -1.071027    2.302338
 H    6.586311   -1.654736   -1.795686
 H    4.237141   -2.133447   -2.412465
 H    7.786835   -1.361301    1.715873
 H    8.279630   -1.579044    0.036742
 H    7.442916    0.859159    2.597030
 H    8.753437    2.396108    1.905707
 H    6.105073    3.161068    2.266309
 H    5.286801    1.392382    1.132149
 H    8.297123    4.029275    0.271905
 H    6.778583    4.859739    0.697468
 H    7.221456    4.652951   -1.004307
 H    7.267457    2.611326   -2.274384
 H    5.875252    1.062245   -1.320789
 H    9.387426    2.100560   -0.553221
 H    8.469816    0.372669   -1.424662
 H   -5.189126   -1.681005   -1.454485
 H   -5.315822   -1.899452    0.302606
 H   -4.914033   -3.254093   -0.718469
}
memory 20GB
set_num_threads(6)
psi4_io.set_default_path("/scratch/bdw2292")
set freeze_core True
E, wfn = energy('mp2/6-311++G**',return_wfn=True)
oeprop(wfn,"WIBERG_LOWDIN_INDICES")
clean()
--------------------------------------------------------------------------

  Memory set to  18.626 GiB by Python driver.
  Threads set to 6 by Python driver.
    SCF Algorithm Type (re)set to DF.

*** tstart() called on node48.bme.utexas.edu
*** at Tue Mar  3 18:02:04 2020

   => Loading Basis Set <=

    Name: 6-311++G**
    Role: ORBITAL
    Keyword: BASIS
    atoms 1-4, 6-9, 11, 14-19, 21-28, 30-31, 33-35, 37 entry C          line   119 file /home/bdw2292/miniconda3/envs/p4env/share/psi4/basis/6-311ppgss.gbs 
    atoms 5, 10, 12-13, 20, 29, 32                     entry N          line   140 file /home/bdw2292/miniconda3/envs/p4env/share/psi4/basis/6-311ppgss.gbs 
    atoms 36                                           entry O          line   161 file /home/bdw2292/miniconda3/envs/p4env/share/psi4/basis/6-311ppgss.gbs 
    atoms 38-68                                        entry H          line    42 file /home/bdw2292/miniconda3/envs/p4env/share/psi4/basis/6-311ppgss.gbs 


         ---------------------------------------------------------
                                   SCF
               by Justin Turney, Rob Parrish, Andy Simmonett
                          and Daniel G. A. Smith
                              RHF Reference
                        6 Threads,  19073 MiB Core
         ---------------------------------------------------------

  ==> Geometry <==

    Molecular point group: c1
    Full point group: C1

    Geometry (in Angstrom), charge = 0, multiplicity = 1:

       Center              X                  Y                   Z               Mass       
    ------------   -----------------  -----------------  -----------------  -----------------
         C           -9.461459514098     1.850378755554    -1.417741833126    12.000000000000
         C           -8.609636514098     1.903075755554    -0.306578833126    12.000000000000
         C           -7.359074514098     1.252274755554    -0.342193833126    12.000000000000
         C           -7.045368514098     0.591001755554    -1.553626833126    12.000000000000
         N           -7.844250514098     0.534410755554    -2.627092833126    14.003074004430
         C           -9.032039514098     1.151177755554    -2.550374833126    12.000000000000
         C           -6.383738514098     1.263707755554     0.809012166874    12.000000000000
         C           -6.577765514098     1.978812755554     2.002319166874    12.000000000000
         C           -5.539169514098     1.901165755554     2.932574166874    12.000000000000
         N           -4.426833514098     1.198566755554     2.752579166874    14.003074004430
         C           -4.330335514098     0.519058755554     1.587911166874    12.000000000000
         N           -5.261387514098     0.533574755554     0.632528166874    14.003074004430
         N           -3.149589514098    -0.202426244446     1.492402166874    14.003074004430
         C           -2.449512514098    -1.014533244446     0.524526166874    12.000000000000
         C           -3.089960514098    -1.839164244446    -0.451551833126    12.000000000000
         C           -2.259069514098    -2.550907244446    -1.335891833126    12.000000000000
         C           -0.862845514098    -2.506535244446    -1.314064833126    12.000000000000
         C           -0.244519514098    -1.714967244446    -0.343167833126    12.000000000000
         C           -1.043593514098    -0.990189244446     0.558446166874    12.000000000000
         N            1.172798485902    -1.567867244446    -0.172280833126    14.003074004430
         C            2.225449485902    -2.113846244446    -0.872061833126    12.000000000000
         C            3.638027485902    -1.813630244446    -0.406372833126    12.000000000000
         C            3.978835485902    -1.538501244446     0.928368166874    12.000000000000
         C            5.303857485902    -1.272339244446     1.281501166874    12.000000000000
         C            6.336989485902    -1.290670244446     0.325767166874    12.000000000000
         C            5.987314485902    -1.599379244446    -1.002400833126    12.000000000000
         C            4.665215485902    -1.867523244446    -1.364050833126    12.000000000000
         C            7.782920485902    -0.976028244446     0.713099166874    12.000000000000
         N            8.249786485902     0.421143755554     0.667031166874    14.003074004430
         C            7.762465485902     1.371980755554     1.692361166874    12.000000000000
         C            6.536046485902     2.217618755554     1.261605166874    12.000000000000
         N            6.696295485902     2.923646755554    -0.030382833126    14.003074004430
         C            7.419867485902     4.199265755554     0.003061166874    12.000000000000
         C            7.131916485902     1.943763755554    -1.052100833126    12.000000000000
         C            8.362880485902     1.091325755554    -0.648740833126    12.000000000000
         O            2.058084485902    -2.817132244446    -1.855851833126    15.994914619570
         C           -4.570646514098    -2.154002244446    -0.564995833126    12.000000000000
         H          -10.431770514098     2.337943755554    -1.408264833126     1.007825032230
         H           -8.951057514098     2.445502755554     0.571462166874     1.007825032230
         H           -6.085788514098     0.100365755554    -1.661624833126     1.007825032230
         H           -9.658770514098     1.086305755554    -3.438304833126     1.007825032230
         H           -7.447605514098     2.588012755554     2.213942166874     1.007825032230
         H           -5.604455514098     2.440883755554     3.877049166874     1.007825032230
         H           -2.538038514098     0.030966755554     2.262129166874     1.007825032230
         H           -2.711387514098    -3.207603244446    -2.079414833126     1.007825032230
         H           -0.270417514098    -3.078557244446    -2.017321833126     1.007825032230
         H           -0.575831514098    -0.363651244446     1.306071166874     1.007825032230
         H            1.435793485902    -0.890232244446     0.528805166874     1.007825032230
         H            3.205175485902    -1.538688244446     1.692032166874     1.007825032230
         H            5.533331485902    -1.048360244446     2.323251166874     1.007825032230
         H            6.755542485902    -1.632069244446    -1.774772833126     1.007825032230
         H            4.406372485902    -2.110780244446    -2.391551833126     1.007825032230
         H            7.956066485902    -1.338634244446     1.736786166874     1.007825032230
         H            8.448861485902    -1.556377244446     0.057655166874     1.007825032230
         H            7.612147485902     0.881825755554     2.617943166874     1.007825032230
         H            8.922668485902     2.418774755554     1.926620166874     1.007825032230
         H            6.274304485902     3.183734755554     2.287222166874     1.007825032230
         H            5.456032485902     1.415048755554     1.153062166874     1.007825032230
         H            8.466354485902     4.051941755554     0.292818166874     1.007825032230
         H            6.947814485902     4.882405755554     0.718381166874     1.007825032230
         H            7.390687485902     4.675617755554    -0.983393833126     1.007825032230
         H            7.436688485902     2.633992755554    -2.253470833126     1.007825032230
         H            6.044483485902     1.084911755554    -1.299875833126     1.007825032230
         H            9.556657485902     2.123226755554    -0.532307833126     1.007825032230
         H            8.639047485902     0.395335755554    -1.403748833126     1.007825032230
         H           -5.019894514098    -1.658338244446    -1.433571833126     1.007825032230
         H           -5.146590514098    -1.876785244446     0.323519166874     1.007825032230
         H           -4.744801514098    -3.231426244446    -0.697555833126     1.007825032230

  Running in c1 symmetry.

  Rotational constants: A =      0.00661  B =      0.00095  C =      0.00090 [cm^-1]
  Rotational constants: A =    198.28465  B =     28.37346  C =     26.86015 [MHz]
  Nuclear repulsion = 3496.884389719801220

  Charge       = 0
  Multiplicity = 1
  Electrons    = 262
  Nalpha       = 131
  Nbeta        = 131

  ==> Algorithm <==

  SCF Algorithm Type is DF.
  DIIS enabled.
  MOM disabled.
  Fractional occupation disabled.
  Guess Type is SAD.
  Energy threshold   = 1.00e-08
  Density threshold  = 1.00e-08
  Integral threshold = 0.00e+00

  ==> Primary Basis <==

  Basis Set: 6-311++G**
    Blend: 6-311++G**
    Number of shells: 525
    Number of basis function: 1031
    Number of Cartesian functions: 1068
    Spherical Harmonics?: true
    Max angular momentum: 2

   => Loading Basis Set <=

    Name: (6-311++G** AUX)
    Role: JKFIT
    Keyword: DF_BASIS_SCF
    atoms 1-4, 6-9, 11, 14-19, 21-28, 30-31, 33-35, 37 entry C          line   162 file /home/bdw2292/miniconda3/envs/p4env/share/psi4/basis/aug-cc-pvtz-jkfit.gbs 
    atoms 5, 10, 12-13, 20, 29, 32                     entry N          line   224 file /home/bdw2292/miniconda3/envs/p4env/share/psi4/basis/aug-cc-pvtz-jkfit.gbs 
    atoms 36                                           entry O          line   286 file /home/bdw2292/miniconda3/envs/p4env/share/psi4/basis/aug-cc-pvtz-jkfit.gbs 
    atoms 38-68                                        entry H          line    70 file /home/bdw2292/miniconda3/envs/p4env/share/psi4/basis/aug-cc-pvtz-jkfit.gbs 

  ==> Pre-Iterations <==

   -------------------------------------------------------
    Irrep   Nso     Nmo     Nalpha   Nbeta   Ndocc  Nsocc
   -------------------------------------------------------
     A       1031    1031       0       0       0       0
   -------------------------------------------------------
    Total    1031    1031     131     131     131       0
   -------------------------------------------------------

  ==> Integral Setup <==

  ==> DiskDFJK: Density-Fitted J/K Matrices <==

    J tasked:                  Yes
    K tasked:                  Yes
    wK tasked:                  No
    OpenMP threads:              6
    Integrals threads:           6
    Memory [MiB]:            14305
    Algorithm:                Core
    Integral Cache:           NONE
    Schwarz Cutoff:          1E-12
    Fitting Condition:       1E-10

   => Auxiliary Basis Set <=

  Basis Set: (6-311++G** AUX)
    Blend: AUG-CC-PVTZ-JKFIT
    Number of shells: 1544
    Number of basis function: 5274
    Number of Cartesian functions: 6552
    Spherical Harmonics?: true
    Max angular momentum: 4

  Minimum eigenvalue in the overlap matrix is 8.5802798937E-08.
  Using Canonical Orthogonalization with cutoff of 1.0000000000E-07.
  Overall, 1 of 1031 possible MOs eliminated.

  SCF Guess: Superposition of Atomic Densities via on-the-fly atomic UHF.

  ==> Iterations <==

                           Total Energy        Delta E     RMS |[F,P]|

   @DF-RHF iter SAD: -1571.10808414020744   -1.57111e+03   0.00000e+00 
   @DF-RHF iter   1: -1571.27905189527837   -1.70968e-01   1.22386e-03 DIIS
   @DF-RHF iter   2: -1572.04819700626194   -7.69145e-01   6.61936e-04 DIIS
   @DF-RHF iter   3: -1572.25584154500643   -2.07645e-01   1.70113e-04 DIIS
   @DF-RHF iter   4: -1572.27407913770776   -1.82376e-02   6.74016e-05 DIIS
   @DF-RHF iter   5: -1572.27686200329913   -2.78287e-03   1.32976e-05 DIIS
   @DF-RHF iter   6: -1572.27701954103418   -1.57538e-04   5.94961e-06 DIIS
   @DF-RHF iter   7: -1572.27705562550318   -3.60845e-05   1.98663e-06 DIIS
   @DF-RHF iter   8: -1572.27706130617071   -5.68067e-06   7.71375e-07 DIIS
   @DF-RHF iter   9: -1572.27706221885319   -9.12682e-07   3.11447e-07 DIIS
   @DF-RHF iter  10: -1572.27706241055103   -1.91698e-07   1.45195e-07 DIIS
   @DF-RHF iter  11: -1572.27706245152967   -4.09786e-08   7.15474e-08 DIIS
   @DF-RHF iter  12: -1572.27706246311732   -1.15876e-08   3.04471e-08 DIIS
   @DF-RHF iter  13: -1572.27706246555977   -2.44245e-09   1.26167e-08 DIIS
   @DF-RHF iter  14: -1572.27706246582420   -2.64436e-10   6.15630e-09 DIIS
  Energy and wave function converged.


  ==> Post-Iterations <==

    Orbital Energies [Eh]
    ---------------------

    Doubly Occupied:                                                      

       1A    -20.528230     2A    -15.610666     3A    -15.600669  
       4A    -15.579057     5A    -15.574361     6A    -15.567855  
       7A    -15.565138     8A    -15.562580     9A    -11.373617  
      10A    -11.372838    11A    -11.329087    12A    -11.324759  
      13A    -11.322854    14A    -11.311173    15A    -11.310828  
      16A    -11.307719    17A    -11.305503    18A    -11.299958  
      19A    -11.290710    20A    -11.288020    21A    -11.287820  
      22A    -11.280365    23A    -11.270272    24A    -11.268625  
      25A    -11.267780    26A    -11.267421    27A    -11.259103  
      28A    -11.258446    29A    -11.255778    30A    -11.255427  
      31A    -11.247267    32A    -11.246020    33A    -11.245624  
      34A    -11.244589    35A    -11.238850    36A    -11.227938  
      37A    -11.217093    38A     -1.395008    39A     -1.339548  
      40A     -1.267135    41A     -1.256408    42A     -1.253155  
      43A     -1.239689    44A     -1.206965    45A     -1.202961  
      46A     -1.172409    47A     -1.141099    48A     -1.108359  
      49A     -1.071078    50A     -1.067201    51A     -1.041261  
      52A     -1.039643    53A     -1.034635    54A     -1.008337  
      55A     -1.003094    56A     -0.983668    57A     -0.944278  
      58A     -0.929979    59A     -0.918979    60A     -0.894894  
      61A     -0.872467    62A     -0.863321    63A     -0.852296  
      64A     -0.847352    65A     -0.840355    66A     -0.836529  
      67A     -0.835734    68A     -0.809893    69A     -0.781454  
      70A     -0.753193    71A     -0.741441    72A     -0.731170  
      73A     -0.717062    74A     -0.709059    75A     -0.691767  
      76A     -0.687655    77A     -0.678224    78A     -0.667271  
      79A     -0.661285    80A     -0.657800    81A     -0.652633  
      82A     -0.648406    83A     -0.640634    84A     -0.634911  
      85A     -0.626217    86A     -0.624000    87A     -0.612243  
      88A     -0.610036    89A     -0.606148    90A     -0.603773  
      91A     -0.600323    92A     -0.597634    93A     -0.594266  
      94A     -0.586152    95A     -0.584210    96A     -0.583198  
      97A     -0.581189    98A     -0.568048    99A     -0.563587  
     100A     -0.550730   101A     -0.545570   102A     -0.541234  
     103A     -0.535101   104A     -0.533980   105A     -0.529123  
     106A     -0.524102   107A     -0.512924   108A     -0.509242  
     109A     -0.507131   110A     -0.506266   111A     -0.502792  
     112A     -0.501093   113A     -0.487098   114A     -0.482488  
     115A     -0.446735   116A     -0.445277   117A     -0.436867  
     118A     -0.431374   119A     -0.429852   120A     -0.425785  
     121A     -0.406799   122A     -0.396495   123A     -0.391776  
     124A     -0.387058   125A     -0.369695   126A     -0.356312  
     127A     -0.351705   128A     -0.339201   129A     -0.318575  
     130A     -0.315426   131A     -0.292114  

    Virtual:                                                              

     132A      0.029667   133A      0.031939   134A      0.038968  
     135A      0.041483   136A      0.045461   137A      0.046508  
     138A      0.049280   139A      0.052056   140A      0.054876  
     141A      0.057939   142A      0.060774   143A      0.063804  
     144A      0.064906   145A      0.065990   146A      0.068317  
     147A      0.071038   148A      0.071228   149A      0.078175  
     150A      0.079327   151A      0.082594   152A      0.083940  
     153A      0.086714   154A      0.088964   155A      0.090697  
     156A      0.093653   157A      0.097144   158A      0.098703  
     159A      0.101197   160A      0.101835   161A      0.103821  
     162A      0.106928   163A      0.108109   164A      0.112037  
     165A      0.114794   166A      0.117351   167A      0.119233  
     168A      0.120553   169A      0.122221   170A      0.126953  
     171A      0.128555   172A      0.130169   173A      0.135906  
     174A      0.136572   175A      0.140051   176A      0.143454  
     177A      0.145473   178A      0.146722   179A      0.149776  
     180A      0.151350   181A      0.152353   182A      0.155505  
     183A      0.157472   184A      0.157896   185A      0.162553  
     186A      0.163553   187A      0.165684   188A      0.166773  
     189A      0.169488   190A      0.169981   191A      0.172618  
     192A      0.173692   193A      0.174340   194A      0.175421  
     195A      0.178708   196A      0.180600   197A      0.183342  
     198A      0.183706   199A      0.184446   200A      0.185500  
     201A      0.187404   202A      0.189748   203A      0.191590  
     204A      0.192712   205A      0.193553   206A      0.196015  
     207A      0.197001   208A      0.198178   209A      0.199438  
     210A      0.202875   211A      0.203433   212A      0.204644  
     213A      0.208278   214A      0.208309   215A      0.211602  
     216A      0.213163   217A      0.214411   218A      0.216189  
     219A      0.217951   220A      0.219619   221A      0.221160  
     222A      0.223381   223A      0.223667   224A      0.225797  
     225A      0.227362   226A      0.230721   227A      0.231892  
     228A      0.233550   229A      0.235814   230A      0.236134  
     231A      0.238671   232A      0.241166   233A      0.242032  
     234A      0.246740   235A      0.250251   236A      0.250859  
     237A      0.252551   238A      0.253906   239A      0.256051  
     240A      0.259971   241A      0.263858   242A      0.265884  
     243A      0.267797   244A      0.271809   245A      0.273397  
     246A      0.275159   247A      0.276395   248A      0.278434  
     249A      0.280877   250A      0.283494   251A      0.287534  
     252A      0.289669   253A      0.289972   254A      0.291778  
     255A      0.293301   256A      0.295903   257A      0.300278  
     258A      0.302342   259A      0.304898   260A      0.307553  
     261A      0.311570   262A      0.314030   263A      0.315098  
     264A      0.318716   265A      0.319263   266A      0.322201  
     267A      0.322677   268A      0.324486   269A      0.326705  
     270A      0.329856   271A      0.331664   272A      0.333125  
     273A      0.336481   274A      0.338364   275A      0.339550  
     276A      0.341431   277A      0.344317   278A      0.346702  
     279A      0.348020   280A      0.348686   281A      0.350462  
     282A      0.352182   283A      0.354138   284A      0.355811  
     285A      0.358143   286A      0.361053   287A      0.362813  
     288A      0.364196   289A      0.366096   290A      0.367815  
     291A      0.369769   292A      0.371946   293A      0.373486  
     294A      0.375494   295A      0.378913   296A      0.380945  
     297A      0.382228   298A      0.383822   299A      0.384615  
     300A      0.385504   301A      0.387375   302A      0.389240  
     303A      0.390405   304A      0.391824   305A      0.394153  
     306A      0.396218   307A      0.398785   308A      0.400055  
     309A      0.400783   310A      0.403191   311A      0.403788  
     312A      0.405497   313A      0.406603   314A      0.407591  
     315A      0.409013   316A      0.411938   317A      0.412730  
     318A      0.415793   319A      0.420908   320A      0.421926  
     321A      0.423312   322A      0.425387   323A      0.427884  
     324A      0.428627   325A      0.432893   326A      0.434144  
     327A      0.434881   328A      0.438170   329A      0.439916  
     330A      0.441990   331A      0.442877   332A      0.445776  
     333A      0.446639   334A      0.450406   335A      0.453928  
     336A      0.455091   337A      0.458290   338A      0.459306  
     339A      0.463383   340A      0.467583   341A      0.469998  
     342A      0.471683   343A      0.475794   344A      0.478505  
     345A      0.479417   346A      0.482578   347A      0.483608  
     348A      0.489022   349A      0.490024   350A      0.493376  
     351A      0.493662   352A      0.495989   353A      0.498541  
     354A      0.502347   355A      0.507513   356A      0.508319  
     357A      0.511188   358A      0.511833   359A      0.515747  
     360A      0.520539   361A      0.522024   362A      0.526720  
     363A      0.531790   364A      0.532625   365A      0.534583  
     366A      0.539153   367A      0.541542   368A      0.547654  
     369A      0.553632   370A      0.558264   371A      0.561359  
     372A      0.564685   373A      0.570384   374A      0.576065  
     375A      0.586164   376A      0.594004   377A      0.598495  
     378A      0.606675   379A      0.609026   380A      0.611418  
     381A      0.617304   382A      0.621028   383A      0.633132  
     384A      0.637469   385A      0.642282   386A      0.654893  
     387A      0.667611   388A      0.675928   389A      0.681923  
     390A      0.687589   391A      0.691700   392A      0.694994  
     393A      0.699860   394A      0.707957   395A      0.713665  
     396A      0.716320   397A      0.722407   398A      0.727844  
     399A      0.730169   400A      0.733077   401A      0.737028  
     402A      0.740450   403A      0.743563   404A      0.750760  
     405A      0.753689   406A      0.754374   407A      0.758254  
     408A      0.758967   409A      0.762338   410A      0.766449  
     411A      0.769764   412A      0.772043   413A      0.772986  
     414A      0.775634   415A      0.782981   416A      0.785782  
     417A      0.791759   418A      0.801647   419A      0.802495  
     420A      0.804859   421A      0.805851   422A      0.809796  
     423A      0.812939   424A      0.816800   425A      0.818802  
     426A      0.821295   427A      0.826571   428A      0.828422  
     429A      0.836467   430A      0.839945   431A      0.846106  
     432A      0.850755   433A      0.852748   434A      0.856173  
     435A      0.858013   436A      0.860602   437A      0.864373  
     438A      0.865078   439A      0.870092   440A      0.874879  
     441A      0.881056   442A      0.884755   443A      0.886592  
     444A      0.886704   445A      0.887239   446A      0.892645  
     447A      0.896095   448A      0.898912   449A      0.909004  
     450A      0.911603   451A      0.914297   452A      0.917266  
     453A      0.921927   454A      0.923653   455A      0.924659  
     456A      0.928442   457A      0.931504   458A      0.933737  
     459A      0.937543   460A      0.939697   461A      0.941027  
     462A      0.947082   463A      0.950648   464A      0.952812  
     465A      0.957790   466A      0.959088   467A      0.964753  
     468A      0.966272   469A      0.969860   470A      0.970399  
     471A      0.971457   472A      0.973479   473A      0.975202  
     474A      0.980525   475A      0.989406   476A      0.991606  
     477A      0.993207   478A      0.997413   479A      0.999319  
     480A      1.004282   481A      1.005552   482A      1.010415  
     483A      1.016074   484A      1.020741   485A      1.023501  
     486A      1.026500   487A      1.028325   488A      1.038780  
     489A      1.042937   490A      1.051778   491A      1.053532  
     492A      1.058617   493A      1.061696   494A      1.064085  
     495A      1.065231   496A      1.071285   497A      1.078682  
     498A      1.082012   499A      1.085469   500A      1.086944  
     501A      1.087945   502A      1.092726   503A      1.103428  
     504A      1.108419   505A      1.114300   506A      1.118537  
     507A      1.124638   508A      1.125823   509A      1.129665  
     510A      1.137217   511A      1.138213   512A      1.140624  
     513A      1.145550   514A      1.145642   515A      1.152191  
     516A      1.156411   517A      1.159161   518A      1.160682  
     519A      1.165647   520A      1.166774   521A      1.170850  
     522A      1.175068   523A      1.182071   524A      1.186831  
     525A      1.190256   526A      1.196987   527A      1.199995  
     528A      1.201711   529A      1.206446   530A      1.209832  
     531A      1.212143   532A      1.216508   533A      1.225919  
     534A      1.226872   535A      1.232135   536A      1.235119  
     537A      1.238734   538A      1.248287   539A      1.254472  
     540A      1.256733   541A      1.259319   542A      1.260651  
     543A      1.262785   544A      1.272340   545A      1.281066  
     546A      1.281836   547A      1.285120   548A      1.286072  
     549A      1.290098   550A      1.291261   551A      1.296416  
     552A      1.302862   553A      1.307586   554A      1.312276  
     555A      1.321182   556A      1.327464   557A      1.339174  
     558A      1.342888   559A      1.345586   560A      1.357394  
     561A      1.360135   562A      1.364349   563A      1.367229  
     564A      1.370698   565A      1.376878   566A      1.382955  
     567A      1.392844   568A      1.395403   569A      1.398476  
     570A      1.411665   571A      1.418645   572A      1.422940  
     573A      1.433628   574A      1.446292   575A      1.446760  
     576A      1.451503   577A      1.456372   578A      1.463458  
     579A      1.471952   580A      1.476360   581A      1.485229  
     582A      1.490533   583A      1.505029   584A      1.507012  
     585A      1.520455   586A      1.522998   587A      1.535973  
     588A      1.541549   589A      1.547458   590A      1.552666  
     591A      1.572521   592A      1.576567   593A      1.583134  
     594A      1.593258   595A      1.596107   596A      1.605372  
     597A      1.624472   598A      1.630288   599A      1.635789  
     600A      1.653517   601A      1.662322   602A      1.664576  
     603A      1.668583   604A      1.673807   605A      1.678589  
     606A      1.698296   607A      1.705492   608A      1.719841  
     609A      1.731406   610A      1.742902   611A      1.748538  
     612A      1.751926   613A      1.755872   614A      1.760811  
     615A      1.763013   616A      1.764767   617A      1.768408  
     618A      1.774444   619A      1.783631   620A      1.788145  
     621A      1.789116   622A      1.792638   623A      1.795097  
     624A      1.801462   625A      1.803392   626A      1.808919  
     627A      1.816803   628A      1.821277   629A      1.824262  
     630A      1.825608   631A      1.829213   632A      1.833281  
     633A      1.835544   634A      1.840784   635A      1.845664  
     636A      1.847868   637A      1.851203   638A      1.855831  
     639A      1.860169   640A      1.862873   641A      1.870331  
     642A      1.874290   643A      1.881850   644A      1.888736  
     645A      1.892775   646A      1.898362   647A      1.900102  
     648A      1.908439   649A      1.914655   650A      1.924423  
     651A      1.929233   652A      1.931891   653A      1.932950  
     654A      1.940492   655A      1.941895   656A      1.943563  
     657A      1.948199   658A      1.957012   659A      1.960265  
     660A      1.970191   661A      1.974569   662A      1.975485  
     663A      1.977995   664A      1.982642   665A      1.983337  
     666A      1.985880   667A      1.994915   668A      2.005655  
     669A      2.009356   670A      2.012092   671A      2.018202  
     672A      2.020802   673A      2.024603   674A      2.029700  
     675A      2.033391   676A      2.034474   677A      2.041469  
     678A      2.049217   679A      2.052146   680A      2.056072  
     681A      2.057940   682A      2.061789   683A      2.075534  
     684A      2.080220   685A      2.082747   686A      2.086442  
     687A      2.091053   688A      2.096497   689A      2.102104  
     690A      2.104203   691A      2.117201   692A      2.123630  
     693A      2.143349   694A      2.147347   695A      2.151527  
     696A      2.157009   697A      2.159888   698A      2.163490  
     699A      2.167032   700A      2.180360   701A      2.180893  
     702A      2.182588   703A      2.188541   704A      2.196684  
     705A      2.200691   706A      2.202826   707A      2.209880  
     708A      2.216739   709A      2.219521   710A      2.229721  
     711A      2.231800   712A      2.240776   713A      2.250914  
     714A      2.253361   715A      2.256924   716A      2.258197  
     717A      2.263751   718A      2.268678   719A      2.269410  
     720A      2.276903   721A      2.281860   722A      2.284445  
     723A      2.291013   724A      2.292809   725A      2.301865  
     726A      2.308192   727A      2.311447   728A      2.315770  
     729A      2.326720   730A      2.339668   731A      2.343806  
     732A      2.350965   733A      2.354110   734A      2.356788  
     735A      2.361874   736A      2.364574   737A      2.370420  
     738A      2.375648   739A      2.385023   740A      2.395245  
     741A      2.402255   742A      2.403002   743A      2.413492  
     744A      2.414574   745A      2.427209   746A      2.435474  
     747A      2.442954   748A      2.444801   749A      2.445630  
     750A      2.469328   751A      2.474046   752A      2.485563  
     753A      2.490985   754A      2.499106   755A      2.510131  
     756A      2.516272   757A      2.520502   758A      2.524650  
     759A      2.530523   760A      2.555661   761A      2.559546  
     762A      2.567953   763A      2.569679   764A      2.580303  
     765A      2.597071   766A      2.607892   767A      2.620577  
     768A      2.629034   769A      2.631697   770A      2.636222  
     771A      2.646654   772A      2.653257   773A      2.669445  
     774A      2.674576   775A      2.695783   776A      2.706419  
     777A      2.707356   778A      2.721534   779A      2.726670  
     780A      2.740925   781A      2.746411   782A      2.759212  
     783A      2.765831   784A      2.770036   785A      2.794446  
     786A      2.796920   787A      2.801200   788A      2.814183  
     789A      2.817074   790A      2.819820   791A      2.826362  
     792A      2.829855   793A      2.835136   794A      2.844181  
     795A      2.851752   796A      2.865993   797A      2.870895  
     798A      2.881418   799A      2.896145   800A      2.903873  
     801A      2.908136   802A      2.912193   803A      2.924057  
     804A      2.934610   805A      2.937643   806A      2.954470  
     807A      2.960335   808A      2.965950   809A      2.969520  
     810A      2.977558   811A      2.981514   812A      2.988476  
     813A      2.994947   814A      2.997765   815A      3.000420  
     816A      3.002785   817A      3.005200   818A      3.011968  
     819A      3.016178   820A      3.030530   821A      3.034707  
     822A      3.040317   823A      3.042671   824A      3.047822  
     825A      3.052336   826A      3.063801   827A      3.067959  
     828A      3.070614   829A      3.071827   830A      3.072721  
     831A      3.073172   832A      3.084242   833A      3.087285  
     834A      3.091008   835A      3.098012   836A      3.099931  
     837A      3.106948   838A      3.111716   839A      3.117697  
     840A      3.121888   841A      3.122108   842A      3.126396  
     843A      3.130194   844A      3.135562   845A      3.143411  
     846A      3.153882   847A      3.161704   848A      3.167518  
     849A      3.173556   850A      3.188558   851A      3.192088  
     852A      3.195809   853A      3.199397   854A      3.206404  
     855A      3.218779   856A      3.225418   857A      3.226862  
     858A      3.237464   859A      3.244462   860A      3.246134  
     861A      3.247068   862A      3.256062   863A      3.270399  
     864A      3.276678   865A      3.277894   866A      3.288877  
     867A      3.289987   868A      3.299458   869A      3.301359  
     870A      3.306233   871A      3.310661   872A      3.320854  
     873A      3.322022   874A      3.329716   875A      3.333556  
     876A      3.341347   877A      3.348830   878A      3.351447  
     879A      3.356550   880A      3.360856   881A      3.362958  
     882A      3.370011   883A      3.377676   884A      3.390152  
     885A      3.397556   886A      3.400410   887A      3.402867  
     888A      3.411367   889A      3.414122   890A      3.427245  
     891A      3.435971   892A      3.458782   893A      3.505580  
     894A      3.512531   895A      3.517236   896A      3.549934  
     897A      3.563048   898A      3.572449   899A      3.585831  
     900A      3.606139   901A      3.621288   902A      3.634760  
     903A      3.645290   904A      3.649637   905A      3.652897  
     906A      3.668199   907A      3.676699   908A      3.713954  
     909A      3.759486   910A      3.768957   911A      3.772030  
     912A      3.776878   913A      3.780260   914A      3.792272  
     915A      3.810449   916A      3.812182   917A      3.839210  
     918A      3.847447   919A      3.860656   920A      3.869188  
     921A      3.898763   922A      3.903895   923A      3.910316  
     924A      3.916643   925A      3.926791   926A      3.935260  
     927A      3.946490   928A      3.973090   929A      3.979611  
     930A      3.996769   931A      4.009092   932A      4.035857  
     933A      4.053701   934A      4.056622   935A      4.074028  
     936A      4.091001   937A      4.096973   938A      4.117601  
     939A      4.131027   940A      4.136131   941A      4.155023  
     942A      4.183186   943A      4.189253   944A      4.193537  
     945A      4.203054   946A      4.209937   947A      4.243970  
     948A      4.246310   949A      4.313771   950A      4.338643  
     951A      4.357262   952A      4.374097   953A      4.384179  
     954A      4.410083   955A      4.419854   956A      4.425327  
     957A      4.427701   958A      4.433843   959A      4.442816  
     960A      4.452710   961A      4.475643   962A      4.525211  
     963A      4.542981   964A      4.562659   965A      4.568030  
     966A      4.571615   967A      4.593050   968A      4.599406  
     969A      4.666917   970A      4.694326   971A      4.766424  
     972A      4.772715   973A      4.792100   974A      4.908175  
     975A      4.922908   976A      4.998484   977A      5.032299  
     978A      5.217287   979A      5.241137   980A      5.253233  
     981A      5.270791   982A      5.278927   983A      5.328487  
     984A      5.338514   985A      5.374510   986A      5.413753  
     987A      5.604787   988A      5.678226   989A      5.696593  
     990A      5.788694   991A      5.855333   992A      5.865747  
     993A      6.392762   994A     24.740868   995A     24.758367  
     996A     24.807362   997A     24.808947   998A     24.837868  
     999A     24.942137  1000A     24.945158  1001A     25.002379  
    1002A     25.016884  1003A     25.018745  1004A     25.030152  
    1005A     25.066117  1006A     25.078428  1007A     25.082933  
    1008A     25.102480  1009A     25.106189  1010A     25.118366  
    1011A     25.132630  1012A     25.137305  1013A     25.140491  
    1014A     25.178173  1015A     25.193499  1016A     25.208875  
    1017A     25.229801  1018A     25.234403  1019A     25.245243  
    1020A     25.257071  1021A     25.310130  1022A     25.321870  
    1023A     36.937721  1024A     36.975993  1025A     37.016407  
    1026A     37.063303  1027A     37.082681  1028A     37.127782  
    1029A     37.157051  1030A     51.754941  

    Final Occupation by Irrep:
              A 
    DOCC [   131 ]

  @DF-RHF Final Energy: -1572.27706246582420

   => Energetics <=

    Nuclear Repulsion Energy =           3496.8843897198012201
    One-Electron Energy =               -9091.6295517642938648
    Two-Electron Energy =                4022.4680995786684434
    Total Energy =                      -1572.2770624658242014

Computation Completed


Properties will be evaluated at   0.000000,   0.000000,   0.000000 [a0]

Properties computed using the SCF density matrix

  Nuclear Dipole Moment: [e a0]
     X:    48.1168      Y:    14.2673      Z:     2.3396

  Electronic Dipole Moment: [e a0]
     X:   -48.7713      Y:   -13.1523      Z:    -0.6862

  Dipole Moment: [e a0]
     X:    -0.6545      Y:     1.1150      Z:     1.6534     Total:     2.0988

  Dipole Moment: [D]
     X:    -1.6635      Y:     2.8339      Z:     4.2025     Total:     5.3347


*** tstop() called on node48.bme.utexas.edu at Tue Mar  3 18:17:21 2020
Module time:
	user time   =    4422.59 seconds =      73.71 minutes
	system time =     169.25 seconds =       2.82 minutes
	total time  =        917 seconds =      15.28 minutes
Total time:
	user time   =    4422.59 seconds =      73.71 minutes
	system time =     169.25 seconds =       2.82 minutes
	total time  =        917 seconds =      15.28 minutes

*** tstart() called on node48.bme.utexas.edu
*** at Tue Mar  3 18:17:21 2020


  //>>>>>>>>>>>>>>>>>>>>>>>>>>>>>>>>>>>//
  //               DFMP2               //
  //<<<<<<<<<<<<<<<<<<<<<<<<<<<<<<<<<<<//

   => Loading Basis Set <=

    Name: (6-311++G** AUX)
    Role: RIFIT
    Keyword: DF_BASIS_MP2
    atoms 1-4, 6-9, 11, 14-19, 21-28, 30-31, 33-35, 37 entry C          line   148 file /home/bdw2292/miniconda3/envs/p4env/share/psi4/basis/aug-cc-pvtz-ri.gbs 
    atoms 5, 10, 12-13, 20, 29, 32                     entry N          line   206 file /home/bdw2292/miniconda3/envs/p4env/share/psi4/basis/aug-cc-pvtz-ri.gbs 
    atoms 36                                           entry O          line   264 file /home/bdw2292/miniconda3/envs/p4env/share/psi4/basis/aug-cc-pvtz-ri.gbs 
    atoms 38-68                                        entry H          line    30 file /home/bdw2292/miniconda3/envs/p4env/share/psi4/basis/aug-cc-pvtz-ri.gbs 

	 --------------------------------------------------------
	                          DF-MP2                         
	      2nd-Order Density-Fitted Moller-Plesset Theory     
	              RMP2 Wavefunction,   6 Threads             
	                                                         
	        Rob Parrish, Justin Turney, Andy Simmonett,      
	           Ed Hohenstein, and C. David Sherrill          
	 --------------------------------------------------------

   => Auxiliary Basis Set <=

  Basis Set: (6-311++G** AUX)
    Blend: AUG-CC-PVTZ-RI
    Number of shells: 1470
    Number of basis function: 5348
    Number of Cartesian functions: 6737
    Spherical Harmonics?: true
    Max angular momentum: 4

	 --------------------------------------------------------
	                 NBF =  1031, NAUX =  5348
	 --------------------------------------------------------
	   CLASS    FOCC     OCC    AOCC    AVIR     VIR    FVIR
	   PAIRS      37     131      94     899     899       0
	 --------------------------------------------------------

	-----------------------------------------------------------
	 ==================> DF-MP2 Energies <==================== 
	-----------------------------------------------------------
	 Reference Energy          =   -1572.2770624658242014 [Eh]
	 Singles Energy            =      -0.0000000000000000 [Eh]
	 Same-Spin Energy          =      -1.4704572404513714 [Eh]
	 Opposite-Spin Energy      =      -4.0508273261612526 [Eh]
	 Correlation Energy        =      -5.5212845666126240 [Eh]
	 Total Energy              =   -1577.7983470324368227 [Eh]
	-----------------------------------------------------------
	 ================> DF-SCS-MP2 Energies <================== 
	-----------------------------------------------------------
	 SCS Same-Spin Scale       =       0.3333333333333333 [-]
	 SCS Opposite-Spin Scale   =       1.2000000000000000 [-]
	 SCS Same-Spin Energy      =      -0.4901524134837905 [Eh]
	 SCS Opposite-Spin Energy  =      -4.8609927913935032 [Eh]
	 SCS Correlation Energy    =      -5.3511452048772936 [Eh]
	 SCS Total Energy          =   -1577.6282076707013857 [Eh]
	-----------------------------------------------------------


*** tstop() called on node48.bme.utexas.edu at Tue Mar  3 18:25:39 2020
Module time:
	user time   =    2676.32 seconds =      44.61 minutes
	system time =      32.82 seconds =       0.55 minutes
	total time  =        498 seconds =       8.30 minutes
Total time:
	user time   =    7098.91 seconds =     118.32 minutes
	system time =     202.07 seconds =       3.37 minutes
	total time  =       1415 seconds =      23.58 minutes


Properties will be evaluated at   0.000000,   0.000000,   0.000000 [a0]
OEProp: No title given, name of density matrix used for the following properties is 'SCF density'


  Wiberg Bond Indices using Orthogonal Lowdin Orbitals:

  Irrep: 1 Size: 68 x 68

                 1                   2                   3                   4                   5

    1     0.00000000000000     1.46892390169252     0.12479571764835     0.13962423266238     0.12483990151414
    2     1.46892390169252     0.00000000000000     1.39739859086753     0.12796767127320     0.12259968704898
    3     0.12479571764835     1.39739859086753     0.00000000000000     1.36271904167919     0.12003935494038
    4     0.13962423266238     0.12796767127320     1.36271904167919     0.00000000000000     1.66480525722878
    5     0.12483990151414     0.12259968704898     0.12003935494038     1.66480525722878     0.00000000000000
    6     1.46236639830575     0.13793654517280     0.13532271114317     0.15368215039254     1.63826444506047
    7     0.01479484768435     0.10350476280504     1.02296450782244     0.10358779733128     0.01393510126497
    8     0.00377751680117     0.04325938856863     0.09958577194542     0.02407880088999     0.00221467280077
    9     0.00038133838713     0.00502879969801     0.01514818156255     0.00414716237232     0.00068491634971
   10     0.00042829178699     0.00547801372478     0.00586140780831     0.00617229170419     0.00032231964439
   11     0.00088041325211     0.00332814923723     0.01802945392963     0.00664753268776     0.00041640615649
   12     0.00273446190355     0.02146007803446     0.11690571877359     0.05896637123606     0.00387277481114
   13     0.00017031132932     0.00046384908408     0.00159947154169     0.00072742176096     0.00008028612686
   14     0.00003025527055     0.00008342159149     0.00041762689373     0.00063563860894     0.00010536487424
   15     0.00005406323974     0.00009785437166     0.00062862537747     0.00228903230626     0.00032159275544
   16     0.00001247296275     0.00001385225812     0.00009916138992     0.00041303648192     0.00010266981466
   17     0.00000941102209     0.00001441264434     0.00003465691558     0.00008467016277     0.00001235417118
   18     0.00000403107161     0.00000521548050     0.00002028478953     0.00012545604450     0.00003739310234
   19     0.00001177845703     0.00002424405905     0.00006397040055     0.00005844256099     0.00001435794914
   20     0.00000042403518     0.00000074416991     0.00000453091053     0.00001979909398     0.00000591884271
   21     0.00000035078569     0.00000036261393     0.00000186950028     0.00000987689244     0.00000272560825
   22     0.00000004500773     0.00000010336746     0.00000028860471     0.00000064043200     0.00000027855459
   23     0.00000005016410     0.00000005160011     0.00000021486595     0.00000081981086     0.00000024096756
   24     0.00000002596040     0.00000001104542     0.00000005138342     0.00000009745346     0.00000007898111
   25     0.00000001668937     0.00000001271618     0.00000007405970     0.00000048168332     0.00000013818787
   26     0.00000001422265     0.00000001083022     0.00000003952820     0.00000010173577     0.00000010584810
   27     0.00000003757518     0.00000003817628     0.00000013593560     0.00000080415554     0.00000033669368
   28     0.00000000293081     0.00000000427366     0.00000000973437     0.00000003874786     0.00000001280496
   29     0.00000000153675     0.00000000232102     0.00000000678021     0.00000003027492     0.00000000800949
   30     0.00000000066262     0.00000000179971     0.00000000508229     0.00000000720969     0.00000000375356
   31     0.00000000140012     0.00000000161003     0.00000000444665     0.00000000442687     0.00000000447240
   32     0.00000000176143     0.00000000161739     0.00000000548359     0.00000000352461     0.00000000312320
   33     0.00000000074327     0.00000000079091     0.00000000302063     0.00000000552610     0.00000000316056
   34     0.00000000136922     0.00000000149765     0.00000000547106     0.00000000725173     0.00000000511018
   35     0.00000000291151     0.00000000155920     0.00000000870337     0.00000001011688     0.00000001383514
   36     0.00000015657340     0.00000018967339     0.00000107498801     0.00000471088339     0.00000180531634
   37     0.00052955536026     0.00039893189738     0.00394948277665     0.01819051851965     0.00148879938417
   38     0.88665008128492     0.07947406013630     0.01182312136893     0.00634361186079     0.01075112144790
   39     0.07816648226926     0.87049790895729     0.07243335661357     0.01160514712738     0.00394391235538
   40     0.00564076000146     0.01064031664682     0.07033654521090     0.85078245014412     0.08546786464047
   41     0.07747794748715     0.01191942468070     0.00609391821217     0.01576898989063     0.08758808214119
   42     0.00120449947998     0.01526310295598     0.01468082456578     0.00141748288346     0.00030723247571
   43     0.00004498306145     0.00029350015283     0.00146051578434     0.00031787501980     0.00008037238357
   44     0.00002523003251     0.00008234582374     0.00035441461256     0.00007817062815     0.00000795255644
   45     0.00000120765114     0.00000339955314     0.00001670191482     0.00004091000081     0.00000580770582
   46     0.00000039704131     0.00000067910159     0.00000584305361     0.00000986606021     0.00000086971340
   47     0.00000108120499     0.00000315054815     0.00001589454453     0.00001289774498     0.00000151669017
   48     0.00000006173468     0.00000013279642     0.00000080973860     0.00000212247802     0.00000080282957
   49     0.00000001050781     0.00000002789496     0.00000005169581     0.00000015451247     0.00000005364504
   50     0.00000000141933     0.00000000174978     0.00000000701779     0.00000000624394     0.00000000205564
   51     0.00000000038999     0.00000000124304     0.00000000574999     0.00000001034528     0.00000000348744
   52     0.00000000134025     0.00000000233246     0.00000001421791     0.00000004435624     0.00000000791853
   53     0.00000000017465     0.00000000061695     0.00000000213106     0.00000000374124     0.00000000143175
   54     0.00000000037205     0.00000000032795     0.00000000228897     0.00000000728489     0.00000000212547
   55     0.00000000039839     0.00000000047559     0.00000000217033     0.00000000085005     0.00000000049458
   56     0.00000000010449     0.00000000033022     0.00000000103885     0.00000000375086     0.00000000067369
   57     0.00000000038979     0.00000000042734     0.00000000064410     0.00000000108808     0.00000000104416
   58     0.00000000105882     0.00000000204490     0.00000000495244     0.00000000309153     0.00000000553902
   59     0.00000000016497     0.00000000026526     0.00000000096688     0.00000000190160     0.00000000057151
   60     0.00000000007716     0.00000000012801     0.00000000029089     0.00000000044888     0.00000000035909
   61     0.00000000012025     0.00000000016622     0.00000000058184     0.00000000074293     0.00000000042671
   62     0.00000000015209     0.00000000030539     0.00000000066398     0.00000000171271     0.00000000091883
   63     0.00000000114633     0.00000000100502     0.00000000493856     0.00000000775919     0.00000001172318
   64     0.00000000042243     0.00000000051117     0.00000000313153     0.00000000875402     0.00000000199414
   65     0.00000000010037     0.00000000025001     0.00000000083558     0.00000000088502     0.00000000129156
   66     0.00021109637713     0.00024898737378     0.00190472777990     0.01275638889302     0.00164587314976
   67     0.00009783259432     0.00012335437180     0.00143666824414     0.00287277798605     0.00020584735865
   68     0.00003065853797     0.00002273141730     0.00013225146437     0.00061360212966     0.00010382451441

                 6                   7                   8                   9                  10

    1     1.46236639830575     0.01479484768435     0.00377751680117     0.00038133838713     0.00042829178699
    2     0.13793654517280     0.10350476280504     0.04325938856863     0.00502879969801     0.00547801372478
    3     0.13532271114317     1.02296450782244     0.09958577194542     0.01514818156255     0.00586140780831
    4     0.15368215039254     0.10358779733128     0.02407880088999     0.00414716237232     0.00617229170419
    5     1.63826444506047     0.01393510126497     0.00221467280077     0.00068491634971     0.00032231964439
    6     0.00000000000000     0.00988112495532     0.00694806985476     0.00129666848749     0.00346224514039
    7     0.00988112495532     0.00000000000000     1.38749363915491     0.14684711639873     0.11347019209852
    8     0.00694806985476     1.38749363915491     0.00000000000000     1.43403744505074     0.13218744255721
    9     0.00129666848749     0.14684711639873     1.43403744505074     0.00000000000000     1.66642642654890
   10     0.00346224514039     0.11347019209852     0.13218744255721     1.66642642654890     0.00000000000000
   11     0.00084827613469     0.14321377520478     0.11377831148093     0.15069534524248     1.49499998917158
   12     0.00592907251020     1.52246882017177     0.12424874620380     0.10958600645147     0.10989804207648
   13     0.00006253669221     0.01918987546167     0.02065744105256     0.02518479255822     0.16762882612344
   14     0.00002801962007     0.00247993374631     0.00239580721612     0.00327313875566     0.01776970860524
   15     0.00005997877273     0.00194470461753     0.00192105480233     0.00104802556709     0.00360424243494
   16     0.00001214559412     0.00022914029315     0.00018259959944     0.00012186576823     0.00043228782022
   17     0.00000214053120     0.00021851410799     0.00112433062267     0.00034490974139     0.00113856957546
   18     0.00000425365022     0.00009730516105     0.00016512772433     0.00012466943062     0.00039195559900
   19     0.00000555240658     0.00054914726850     0.00167070873799     0.00092144259042     0.00344501994758
   20     0.00000074214877     0.00001509888477     0.00001439726677     0.00001538328596     0.00005357547584
   21     0.00000039151873     0.00000492148299     0.00000636335352     0.00000691876366     0.00001776690471
   22     0.00000011131957     0.00000079596491     0.00000106140103     0.00000138736904     0.00000387780892
   23     0.00000005291019     0.00000046526761     0.00000047794750     0.00000044001490     0.00000080681709
   24     0.00000005131539     0.00000014022164     0.00000011308636     0.00000017329701     0.00000033875699
   25     0.00000001481640     0.00000010989675     0.00000008204641     0.00000013147173     0.00000019056979
   26     0.00000003723714     0.00000009998749     0.00000010922673     0.00000010672361     0.00000025205020
   27     0.00000008558619     0.00000034465056     0.00000036443512     0.00000054686324     0.00000144383804
   28     0.00000000281040     0.00000001608330     0.00000001501697     0.00000001647655     0.00000002286318
   29     0.00000000116939     0.00000001037633     0.00000000667494     0.00000001844379     0.00000002641823
   30     0.00000000076711     0.00000001587121     0.00000001734031     0.00000002292546     0.00000004359499
   31     0.00000000224203     0.00000001612676     0.00000001575672     0.00000002029909     0.00000004413537
   32     0.00000000187603     0.00000001256956     0.00000001000896     0.00000000751429     0.00000002162944
   33     0.00000000172731     0.00000000500704     0.00000000526269     0.00000000200454     0.00000000639811
   34     0.00000000198907     0.00000000713617     0.00000000809451     0.00000001197802     0.00000003810387
   35     0.00000000850990     0.00000001077450     0.00000001239427     0.00000000812784     0.00000000988857
   36     0.00000022737673     0.00000385351933     0.00000883934964     0.00000279956502     0.00001255069924
   37     0.00037339871426     0.00819205508263     0.00129296044911     0.00096846317658     0.00150527752721
   38     0.08242555616555     0.00130786744777     0.00026281855595     0.00003983565588     0.00002610589843
   39     0.01164361443607     0.01609833053615     0.01580780071881     0.00125294572578     0.00041272174080
   40     0.01449427549101     0.01598870625334     0.00167480463782     0.00040309724139     0.00060168608179
   41     0.87986639626123     0.00055467119380     0.00027520807301     0.00005557325603     0.00010691433580
   42     0.00051214956417     0.07511187809352     0.87519105888248     0.08090586004594     0.01051071313521
   43     0.00004489769262     0.01182132256088     0.07656498181301     0.87489599150704     0.08933352305727
   44     0.00001078748032     0.00203382895400     0.00211105048496     0.00402291274632     0.03433571742983
   45     0.00000128472301     0.00004162508590     0.00001750374116     0.00002533515510     0.00006430612034
   46     0.00000018051813     0.00001631712962     0.00003490810527     0.00001385146933     0.00004730646820
   47     0.00000070465168     0.00007509169864     0.00009836815928     0.00007813953869     0.00032415137976
   48     0.00000020750212     0.00000340560420     0.00000265174101     0.00000257262885     0.00000641420388
   49     0.00000001384651     0.00000018835421     0.00000024803354     0.00000015549393     0.00000024212244
   50     0.00000000168956     0.00000001832664     0.00000001018607     0.00000000944952     0.00000001876556
   51     0.00000000115866     0.00000001013877     0.00000000912442     0.00000001683518     0.00000004630639
   52     0.00000000129559     0.00000005286864     0.00000007858391     0.00000003269939     0.00000017768861
   53     0.00000000030304     0.00000000425084     0.00000000244985     0.00000000277485     0.00000000675812
   54     0.00000000025798     0.00000000611205     0.00000000424107     0.00000000420873     0.00000000548747
   55     0.00000000038615     0.00000000447274     0.00000000576057     0.00000000337421     0.00000000446835
   56     0.00000000017598     0.00000000103251     0.00000000202409     0.00000000080925     0.00000000220912
   57     0.00000000048237     0.00000000152406     0.00000000289730     0.00000000387484     0.00000002079633
   58     0.00000000474611     0.00000000854396     0.00000000897263     0.00000001822211     0.00000006090749
   59     0.00000000020532     0.00000000149132     0.00000000104479     0.00000000037051     0.00000000168738
   60     0.00000000019910     0.00000000072966     0.00000000096497     0.00000000096655     0.00000000450190
   61     0.00000000012981     0.00000000078671     0.00000000075946     0.00000000103664     0.00000000404038
   62     0.00000000032189     0.00000000061576     0.00000000118703     0.00000000173304     0.00000000786917
   63     0.00000000521673     0.00000000435893     0.00000000766463     0.00000000436717     0.00000001301087
   64     0.00000000027216     0.00000000176556     0.00000000061654     0.00000000092966     0.00000000246302
   65     0.00000000040123     0.00000000133302     0.00000000165496     0.00000000108549     0.00000000213729
   66     0.00026100412700     0.00138088222028     0.00024235331181     0.00013328610711     0.00027128287850
   67     0.00006289645637     0.00455412421586     0.00070087199632     0.00079175122035     0.00090208608753
   68     0.00002576740340     0.00037120166505     0.00010457580212     0.00009476707718     0.00008537085074

                11                  12                  13                  14                  15

    1     0.00088041325211     0.00273446190355     0.00017031132932     0.00003025527055     0.00005406323974
    2     0.00332814923723     0.02146007803446     0.00046384908408     0.00008342159149     0.00009785437166
    3     0.01802945392963     0.11690571877359     0.00159947154169     0.00041762689373     0.00062862537747
    4     0.00664753268776     0.05896637123606     0.00072742176096     0.00063563860894     0.00228903230626
    5     0.00041640615649     0.00387277481114     0.00008028612686     0.00010536487424     0.00032159275544
    6     0.00084827613469     0.00592907251020     0.00006253669221     0.00002801962007     0.00005997877273
    7     0.14321377520478     1.52246882017177     0.01918987546167     0.00247993374631     0.00194470461753
    8     0.11377831148093     0.12424874620380     0.02065744105256     0.00239580721612     0.00192105480233
    9     0.15069534524248     0.10958600645147     0.02518479255822     0.00327313875566     0.00104802556709
   10     1.49499998917158     0.10989804207648     0.16762882612344     0.01776970860524     0.00360424243494
   11     0.00000000000000     1.54951568970634     1.26431079343353     0.08056139674079     0.02120267424941
   12     1.54951568970634     0.00000000000000     0.13976248559750     0.02390022942997     0.01888781524828
   13     1.26431079343353     0.13976248559750     0.00000000000000     1.12884609820431     0.10170974622867
   14     0.08056139674079     0.02390022942997     1.12884609820431     0.00000000000000     1.33329248014208
   15     0.02120267424941     0.01888781524828     0.10170974622867     1.33329248014208     0.00000000000000
   16     0.00197159174350     0.00167764174073     0.01359145118836     0.12778672376537     1.42394266334083
   17     0.00394704222864     0.00186496481933     0.01172862759192     0.11868911987694     0.12241042546546
   18     0.00228598028442     0.00070708094653     0.01428573127901     0.12110440765011     0.11968796691114
   19     0.01997361656411     0.00385673786274     0.12425760808143     1.39404364960655     0.12020804666424
   20     0.00028488401894     0.00009736117242     0.00159774477389     0.01434421936031     0.01101900703644
   21     0.00009151623251     0.00003852951032     0.00032678425073     0.00278911727873     0.00582046744246
   22     0.00001809913488     0.00000382500684     0.00006163244501     0.00036393746033     0.00028354979430
   23     0.00000450903966     0.00000236420805     0.00001279742678     0.00012953896493     0.00036351716071
   24     0.00000061349895     0.00000027438946     0.00000190029175     0.00001313241486     0.00003850903500
   25     0.00000105264839     0.00000099416200     0.00000133656776     0.00003060996469     0.00019321165411
   26     0.00000093266955     0.00000040110011     0.00000275189806     0.00001939024687     0.00003432345648
   27     0.00000452217490     0.00000204284712     0.00001448154146     0.00010556133708     0.00033336697463
   28     0.00000014175228     0.00000007688718     0.00000017627815     0.00000297055228     0.00001427825274
   29     0.00000008424600     0.00000005604394     0.00000008427118     0.00000193812385     0.00001078324066
   30     0.00000005672508     0.00000002715195     0.00000007521548     0.00000048966989     0.00000202762620
   31     0.00000006412533     0.00000002303203     0.00000008317342     0.00000061912347     0.00000054654158
   32     0.00000002475628     0.00000000967328     0.00000002611670     0.00000019155381     0.00000039471470
   33     0.00000000880768     0.00000000280283     0.00000001701819     0.00000011966674     0.00000014512211
   34     0.00000002899866     0.00000001919687     0.00000005952882     0.00000047870859     0.00000086826994
   35     0.00000004143302     0.00000001890726     0.00000005153155     0.00000049767031     0.00000152548364
   36     0.00003635918431     0.00002526360300     0.00016792006098     0.00098409968535     0.00351392980763
   37     0.01780249213093     0.04963126811674     0.02422949973699     0.09375848828377     1.05187164371211
   38     0.00009001057931     0.00030991271490     0.00001579301933     0.00000526424543     0.00000946130047
   39     0.00028844884209     0.00107021300041     0.00006764230029     0.00001809603110     0.00001265025396
   40     0.00261359309018     0.02418890523871     0.00025655438033     0.00052083514791     0.00210300845438
   41     0.00004226816801     0.00024211422632     0.00000463356101     0.00000293408604     0.00000597392412
   42     0.00574614917152     0.01062881463563     0.00105736582565     0.00011912736649     0.00008809541314
   43     0.01578213902397     0.00397004008020     0.00140263829040     0.00039298928701     0.00007712767594
   44     0.07271597197919     0.01145578928560     0.93562127152440     0.06339834153072     0.01062041103616
   45     0.00023690326711     0.00018799820387     0.00107208166029     0.01118664537170     0.07328282898938
   46     0.00014362297946     0.00007673442756     0.00051290434494     0.00517635221226     0.01041544456557
   47     0.00242257676969     0.00037156868006     0.02344981871914     0.07489611099966     0.01072737560076
   48     0.00004619241591     0.00001768398507     0.00023625996208     0.00202011829046     0.00114456410530
   49     0.00000143153484     0.00000058792380     0.00000534195958     0.00004217902366     0.00010121928116
   50     0.00000007634902     0.00000004151367     0.00000026989970     0.00000142838269     0.00000135643546
   51     0.00000016507491     0.00000003783602     0.00000056994500     0.00000287771791     0.00000230544331
   52     0.00000054798217     0.00000027568395     0.00000272305538     0.00001535572804     0.00001977957943
   53     0.00000002426416     0.00000001741699     0.00000004217614     0.00000043974971     0.00000144472112
   54     0.00000003480271     0.00000001493234     0.00000004225719     0.00000050066213     0.00000243742220
   55     0.00000000672197     0.00000000202598     0.00000001081780     0.00000009538301     0.00000018236825
   56     0.00000000636698     0.00000000580420     0.00000001349661     0.00000011032430     0.00000049636955
   57     0.00000001283068     0.00000000767475     0.00000001140936     0.00000005395276     0.00000017157245
   58     0.00000006195477     0.00000002161042     0.00000006460658     0.00000066657030     0.00000117611325
   59     0.00000000112978     0.00000000064431     0.00000000364883     0.00000004176562     0.00000002196390
   60     0.00000000230445     0.00000000091786     0.00000000287379     0.00000000935643     0.00000000634429
   61     0.00000000428449     0.00000000205487     0.00000000222044     0.00000000532983     0.00000001164369
   62     0.00000000973722     0.00000000443053     0.00000000624570     0.00000005465776     0.00000016938665
   63     0.00000002635537     0.00000001230176     0.00000014091232     0.00000035527999     0.00000074307875
   64     0.00000000973331     0.00000000289616     0.00000000434753     0.00000013721485     0.00000057885825
   65     0.00000000731182     0.00000000185250     0.00000001359909     0.00000007733611     0.00000011504503
   66     0.00210754694193     0.00911619989603     0.00133816582854     0.01330306115994     0.05831840536273
   67     0.01042726825555     0.02665599285190     0.00814006400448     0.01485895355954     0.05622703061681
   68     0.00069797466423     0.00254698380907     0.00095186118584     0.01173231935862     0.05867752760601

                16                  17                  18                  19                  20

    1     0.00001247296275     0.00000941102209     0.00000403107161     0.00001177845703     0.00000042403518
    2     0.00001385225812     0.00001441264434     0.00000521548050     0.00002424405905     0.00000074416991
    3     0.00009916138992     0.00003465691558     0.00002028478953     0.00006397040055     0.00000453091053
    4     0.00041303648192     0.00008467016277     0.00012545604450     0.00005844256099     0.00001979909398
    5     0.00010266981466     0.00001235417118     0.00003739310234     0.00001435794914     0.00000591884271
    6     0.00001214559412     0.00000214053120     0.00000425365022     0.00000555240658     0.00000074214877
    7     0.00022914029315     0.00021851410799     0.00009730516105     0.00054914726850     0.00001509888477
    8     0.00018259959944     0.00112433062267     0.00016512772433     0.00167070873799     0.00001439726677
    9     0.00012186576823     0.00034490974139     0.00012466943062     0.00092144259042     0.00001538328596
   10     0.00043228782022     0.00113856957546     0.00039195559900     0.00344501994758     0.00005357547584
   11     0.00197159174350     0.00394704222864     0.00228598028442     0.01997361656411     0.00028488401894
   12     0.00167764174073     0.00186496481933     0.00070708094653     0.00385673786274     0.00009736117242
   13     0.01359145118836     0.01172862759192     0.01428573127901     0.12425760808143     0.00159774477389
   14     0.12778672376537     0.11868911987694     0.12110440765011     1.39404364960655     0.01434421936031
   15     1.42394266334083     0.12241042546546     0.11968796691114     0.12020804666424     0.01101900703644
   16     0.00000000000000     1.46049901457986     0.13516275904182     0.12878269371715     0.01380876844607
   17     1.46049901457986     0.00000000000000     1.39055026381665     0.12128502305932     0.10316024634293
   18     0.13516275904182     1.39055026381665     0.00000000000000     1.37685507744459     1.12315251569239
   19     0.12878269371715     0.12128502305932     1.37685507744459     0.00000000000000     0.12401315639007
   20     0.01380876844607     0.10316024634293     1.12315251569239     0.12401315639007     0.00000000000000
   21     0.00285971815236     0.03143708783503     0.08612323395065     0.02272707258043     1.31442574722837
   22     0.00035703969046     0.00326089284023     0.01441096347419     0.00199315562936     0.10137447461466
   23     0.00014889816901     0.00119542283201     0.00353170701552     0.00107370314900     0.04094008112219
   24     0.00002253918600     0.00016202312082     0.00038734341214     0.00013108557786     0.00344751523878
   25     0.00002817009559     0.00027930739228     0.00037519373422     0.00027028556277     0.00344551543929
   26     0.00002233977201     0.00013200076510     0.00048366943468     0.00011182591739     0.00241163438343
   27     0.00010207138984     0.00091620840031     0.00224988143940     0.00071942630661     0.01744751305701
   28     0.00000282673883     0.00002447856747     0.00003719065910     0.00002104010552     0.00027496979001
   29     0.00000170128395     0.00001392433328     0.00001914635133     0.00001406359499     0.00016296847510
   30     0.00000042041853     0.00000300388123     0.00000432758696     0.00000297525022     0.00003344483833
   31     0.00000045795272     0.00000265623303     0.00000417223342     0.00000234050250     0.00003138815427
   32     0.00000012490371     0.00000071937942     0.00000247562657     0.00000070255556     0.00000749955915
   33     0.00000009688783     0.00000042524958     0.00000056366089     0.00000037630134     0.00000191694819
   34     0.00000041927062     0.00000250002497     0.00000495989556     0.00000325089957     0.00002967871480
   35     0.00000047522444     0.00000350348206     0.00000572372301     0.00000262621076     0.00003334113954
   36     0.00387765867276     0.05313904357325     0.03211381155129     0.00540565154893     0.19185140316733
   37     0.12139155242171     0.01557961406100     0.00726073766448     0.01314079435181     0.00067724306461
   38     0.00000148896746     0.00000033854414     0.00000029418565     0.00000072827170     0.00000004964876
   39     0.00000224504067     0.00000092260450     0.00000057366752     0.00000313749713     0.00000013863671
   40     0.00043587324627     0.00004094078309     0.00010735242597     0.00004564287902     0.00001664675520
   41     0.00000208582095     0.00000018375283     0.00000053825249     0.00000044929327     0.00000010546190
   42     0.00001204298678     0.00004045147763     0.00000921188198     0.00006804222396     0.00000090774668
   43     0.00001211656435     0.00001157312908     0.00001329654495     0.00006189203959     0.00000160947529
   44     0.00145049764621     0.00131833214814     0.00203356738461     0.02079866352533     0.00023625118352
   45     0.86783545370127     0.07964514721015     0.01174224503264     0.00548039436131     0.00104229676454
   46     0.07775899155191     0.85687516259711     0.07493044096217     0.01122888986273     0.01459182515533
   47     0.00618501404536     0.01104089884816     0.07328612204554     0.85910647795588     0.02368231315411
   48     0.00142284822091     0.01016975023902     0.06217355674753     0.02124537309679     0.94036308138198
   49     0.00005938778122     0.00036484067340     0.00136967970216     0.00047361080126     0.01536909353569
   50     0.00000212766980     0.00001444896237     0.00003213102632     0.00001087938121     0.00020953332576
   51     0.00000233060464     0.00001666076073     0.00006606173976     0.00001729158734     0.00027718820858
   52     0.00002797480273     0.00020240927440     0.00026272389321     0.00007216045679     0.00160277619887
   53     0.00000038615138     0.00000352142793     0.00000632179000     0.00000274029158     0.00003286670640
   54     0.00000044984437     0.00000460238073     0.00000701512261     0.00000394967048     0.00005484584853
   55     0.00000006022540     0.00000035484752     0.00000071936671     0.00000030544314     0.00000468935041
   56     0.00000010101130     0.00000068441760     0.00000072725166     0.00000075790337     0.00000744479267
   57     0.00000003596181     0.00000026637343     0.00000024589379     0.00000036639670     0.00000219211810
   58     0.00000073409039     0.00000534666004     0.00000754481156     0.00000440200584     0.00003383823728
   59     0.00000002669012     0.00000009179336     0.00000008630067     0.00000011653202     0.00000037033035
   60     0.00000001294649     0.00000006459548     0.00000009875536     0.00000002831012     0.00000031710040
   61     0.00000002103096     0.00000004627921     0.00000006808102     0.00000002425960     0.00000028708542
   62     0.00000004785880     0.00000028541588     0.00000038560188     0.00000027620688     0.00000239163596
   63     0.00000034721258     0.00000259981474     0.00000528071879     0.00000290893018     0.00002683119464
   64     0.00000013374609     0.00000099085942     0.00000091283923     0.00000110963835     0.00000790242583
   65     0.00000008323192     0.00000046043024     0.00000136200129     0.00000045995548     0.00000779378042
   66     0.01863793301966     0.00136817365175     0.00328828433454     0.00118755965909     0.00038600100635
   67     0.01018242149170     0.00134650165757     0.00065270461067     0.00111964354487     0.00008343012711
   68     0.02451052734558     0.00209779803738     0.00189824379892     0.00117644704810     0.00023295874339

                21                  22                  23                  24                  25

    1     0.00000035078569     0.00000004500773     0.00000005016410     0.00000002596040     0.00000001668937
    2     0.00000036261393     0.00000010336746     0.00000005160011     0.00000001104542     0.00000001271618
    3     0.00000186950028     0.00000028860471     0.00000021486595     0.00000005138342     0.00000007405970
    4     0.00000987689244     0.00000064043200     0.00000081981086     0.00000009745346     0.00000048168332
    5     0.00000272560825     0.00000027855459     0.00000024096756     0.00000007898111     0.00000013818787
    6     0.00000039151873     0.00000011131957     0.00000005291019     0.00000005131539     0.00000001481640
    7     0.00000492148299     0.00000079596491     0.00000046526761     0.00000014022164     0.00000010989675
    8     0.00000636335352     0.00000106140103     0.00000047794750     0.00000011308636     0.00000008204641
    9     0.00000691876366     0.00000138736904     0.00000044001490     0.00000017329701     0.00000013147173
   10     0.00001776690471     0.00000387780892     0.00000080681709     0.00000033875699     0.00000019056979
   11     0.00009151623251     0.00001809913488     0.00000450903966     0.00000061349895     0.00000105264839
   12     0.00003852951032     0.00000382500684     0.00000236420805     0.00000027438946     0.00000099416200
   13     0.00032678425073     0.00006163244501     0.00001279742678     0.00000190029175     0.00000133656776
   14     0.00278911727873     0.00036393746033     0.00012953896493     0.00001313241486     0.00003060996469
   15     0.00582046744246     0.00028354979430     0.00036351716071     0.00003850903500     0.00019321165411
   16     0.00285971815236     0.00035703969046     0.00014889816901     0.00002253918600     0.00002817009559
   17     0.03143708783503     0.00326089284023     0.00119542283201     0.00016202312082     0.00027930739228
   18     0.08612323395065     0.01441096347419     0.00353170701552     0.00038734341214     0.00037519373422
   19     0.02272707258043     0.00199315562936     0.00107370314900     0.00013108557786     0.00027028556277
   20     1.31442574722837     0.10137447461466     0.04094008112219     0.00344751523878     0.00344551543929
   21     0.00000000000000     0.97406424618031     0.10473668379396     0.01451530600228     0.01112655798203
   22     0.97406424618031     0.00000000000000     1.40299436310759     0.12747741399901     0.12403913673649
   23     0.10473668379396     1.40299436310759     0.00000000000000     1.46101722198351     0.12587862860591
   24     0.01451530600228     0.12747741399901     1.46101722198351     0.00000000000000     1.40246911387885
   25     0.01112655798203     0.12403913673649     0.12587862860591     1.40246911387885     0.00000000000000
   26     0.01483074443318     0.12678446416077     0.12930432878454     0.12534154495687     1.39665082138059
   27     0.11074128917584     1.38365064561505     0.12370132149458     0.13062632411408     0.12763115688559
   28     0.00072088397547     0.00907349667870     0.01445213573326     0.10914031893907     1.01649182663477
   29     0.00039096181892     0.00441079024970     0.00200794684417     0.02174912587870     0.08778964375966
   30     0.00008535965262     0.00098410802339     0.00183793357722     0.01425344977589     0.01981529732758
   31     0.00007497259398     0.00148607067443     0.00889574188550     0.02318884375721     0.01815734621170
   32     0.00006395206217     0.00067720787843     0.00100357989591     0.00263487415106     0.00397855462539
   33     0.00000838596598     0.00010957654065     0.00023799993107     0.00066835198593     0.00108417173862
   34     0.00009174603138     0.00200739454721     0.00207618383932     0.00561240692655     0.02029400300096
   35     0.00009642976356     0.00104860546587     0.00095134638416     0.00473782321926     0.02106346350577
   36     2.17192594532159     0.13764864758089     0.02620234282595     0.00337699999910     0.00653541570795
[...]
   15     0.00000049636955     0.00000017157245     0.00000117611325     0.00000002196390     0.00000000634429
   16     0.00000010101130     0.00000003596181     0.00000073409039     0.00000002669012     0.00000001294649
   17     0.00000068441760     0.00000026637343     0.00000534666004     0.00000009179336     0.00000006459548
   18     0.00000072725166     0.00000024589379     0.00000754481156     0.00000008630067     0.00000009875536
   19     0.00000075790337     0.00000036639670     0.00000440200584     0.00000011653202     0.00000002831012
   20     0.00000744479267     0.00000219211810     0.00003383823728     0.00000037033035     0.00000031710040
   21     0.00002914512481     0.00000734592626     0.00007127346591     0.00000191561468     0.00000081851024
   22     0.00026507946841     0.00011454931836     0.00157387611811     0.00001222133222     0.00001204376429
   23     0.00039483683697     0.00024857987956     0.00774312855807     0.00002377163492     0.00003230055591
   24     0.00087034713021     0.00071433159443     0.02052463715850     0.00008364721097     0.00007513956563
   25     0.00149448472213     0.00062023156697     0.01138741116653     0.00017801184653     0.00010139318398
   26     0.00052937567520     0.00020703168102     0.00322881346333     0.00008467988914     0.00004183271562
   27     0.00015563773036     0.00009705784247     0.00185224399964     0.00002331786686     0.00002493995432
   28     0.01232127064166     0.00104177120371     0.00598347582957     0.00069136047661     0.00012288767287
   29     0.06556773795679     0.01326700126037     0.01208889505829     0.00332248064189     0.00073800243414
   30     0.77170784476484     0.05808872584866     0.04521216565079     0.01284482123229     0.00400158993306
   31     0.05071736071650     0.83018023453790     0.80627583066349     0.01665976669518     0.02112751497890
   32     0.01401972412692     0.05193623492060     0.05922451067812     0.06739741498700     0.06257626657428
   33     0.01591620132179     0.02380156065701     0.01178315141093     0.91073901366174     0.91978212746491
   34     0.00841853132463     0.01557832523607     0.01924065613148     0.01663397058606     0.01282274294809
   35     0.02334890243619     0.00190667383544     0.00718195412174     0.01273264307401     0.00182109385979
   36     0.00001658633086     0.00000502355063     0.00004444390022     0.00000107929740     0.00000058379048
   37     0.00000002833060     0.00000001923787     0.00000011070609     0.00000000257462     0.00000000182023
   38     0.00000000001845     0.00000000001357     0.00000000015625     0.00000000000693     0.00000000000439
   39     0.00000000002324     0.00000000001276     0.00000000028594     0.00000000002935     0.00000000000956
   40     0.00000000174976     0.00000000057891     0.00000000181057     0.00000000025311     0.00000000004872
   41     0.00000000002304     0.00000000001479     0.00000000009768     0.00000000001445     0.00000000000596
   42     0.00000000013083     0.00000000012845     0.00000000046345     0.00000000006707     0.00000000003350
   43     0.00000000004163     0.00000000009140     0.00000000061103     0.00000000004167     0.00000000002392
   44     0.00000000218367     0.00000001255965     0.00000001038425     0.00000000065663     0.00000000057471
   45     0.00000000492750     0.00000000094976     0.00000006842378     0.00000000108215     0.00000000029537
   46     0.00000007633238     0.00000003755463     0.00000180145266     0.00000000681576     0.00000000526097
   47     0.00000014238010     0.00000034492959     0.00000167789163     0.00000000563167     0.00000003262118
   48     0.00001612337605     0.00000647834614     0.00001861008569     0.00000031627274     0.00000036716230
   49     0.00005355996560     0.00002624021608     0.00062176833854     0.00000233638063     0.00000274438675
   50     0.00009525890985     0.00015973744364     0.00379436480539     0.00003656800805     0.00001866065354
   51     0.00013925554262     0.00001630778064     0.00019263131157     0.00003530022082     0.00000750609275
   52     0.00001421283803     0.00000350364202     0.00005114282535     0.00000229072488     0.00000126519708
   53     0.00122498802694     0.00009307946821     0.00089652584617     0.00006504064085     0.00002038551397
   54     0.00049459060402     0.00040704224888     0.00034608558435     0.00006593120088     0.00002372600908
   55     0.02507051862886     0.00591500945123     0.00808224372952     0.00059770131196     0.00016936452781
   56     0.00000000000000     0.01027960081347     0.01996730440366     0.00819397400377     0.00169448502722
   57     0.01027960081347     0.00000000000000     0.01875210133828     0.00333253955063     0.00764133041063
   58     0.01996730440366     0.01875210133828     0.00000000000000     0.00096427178985     0.00104646977529
   59     0.00819397400377     0.00333253955063     0.00096427178985     0.00000000000000     0.03490688650998
   60     0.00169448502722     0.00764133041063     0.00104646977529     0.03490688650998     0.00000000000000
   61     0.00070251641874     0.00119218970398     0.00068512562751     0.03493462589089     0.03782014676144
   62     0.00040240322404     0.00155374629901     0.00096077536644     0.00327784610419     0.00117758625473
   63     0.00087562115162     0.00098479440169     0.00497932054398     0.00098792110007     0.00067056425784
   64     0.00635064124203     0.00041440196768     0.00092613725205     0.00812790317042     0.00069007315339
   65     0.00095181443459     0.00040280873138     0.00047127230462     0.00058479307327     0.00022281148222
   66     0.00000002372696     0.00000000781843     0.00000004726043     0.00000000176894     0.00000000036695
   67     0.00000000306175     0.00000000220572     0.00000000840870     0.00000000017129     0.00000000008083
   68     0.00000001135611     0.00000000432966     0.00000001429774     0.00000000062345     0.00000000025649

                61                  62                  63                  64                  65

    1     0.00000000012025     0.00000000015209     0.00000000114633     0.00000000042243     0.00000000010037
    2     0.00000000016622     0.00000000030539     0.00000000100502     0.00000000051117     0.00000000025001
    3     0.00000000058184     0.00000000066398     0.00000000493856     0.00000000313153     0.00000000083558
    4     0.00000000074293     0.00000000171271     0.00000000775919     0.00000000875402     0.00000000088502
    5     0.00000000042671     0.00000000091883     0.00000001172318     0.00000000199414     0.00000000129156
    6     0.00000000012981     0.00000000032189     0.00000000521673     0.00000000027216     0.00000000040123
    7     0.00000000078671     0.00000000061576     0.00000000435893     0.00000000176556     0.00000000133302
    8     0.00000000075946     0.00000000118703     0.00000000766463     0.00000000061654     0.00000000165496
    9     0.00000000103664     0.00000000173304     0.00000000436717     0.00000000092966     0.00000000108549
   10     0.00000000404038     0.00000000786917     0.00000001301087     0.00000000246302     0.00000000213729
   11     0.00000000428449     0.00000000973722     0.00000002635537     0.00000000973331     0.00000000731182
   12     0.00000000205487     0.00000000443053     0.00000001230176     0.00000000289616     0.00000000185250
   13     0.00000000222044     0.00000000624570     0.00000014091232     0.00000000434753     0.00000001359909
   14     0.00000000532983     0.00000005465776     0.00000035527999     0.00000013721485     0.00000007733611
   15     0.00000001164369     0.00000016938665     0.00000074307875     0.00000057885825     0.00000011504503
   16     0.00000002103096     0.00000004785880     0.00000034721258     0.00000013374609     0.00000008323192
   17     0.00000004627921     0.00000028541588     0.00000259981474     0.00000099085942     0.00000046043024
   18     0.00000006808102     0.00000038560188     0.00000528071879     0.00000091283923     0.00000136200129
   19     0.00000002425960     0.00000027620688     0.00000290893018     0.00000110963835     0.00000045995548
   20     0.00000028708542     0.00000239163596     0.00002683119464     0.00000790242583     0.00000779378042
   21     0.00000106101516     0.00001051734847     0.00010303884091     0.00003666439037     0.00001872348197
   22     0.00001279689376     0.00013518878342     0.00221745131604     0.00028606860791     0.00018466014002
   23     0.00002467480595     0.00011258608123     0.00215508628442     0.00020909758908     0.00018925079095
   24     0.00004520912248     0.00026746457838     0.00440366817670     0.00056594821855     0.00054589853686
   25     0.00010529466629     0.00068330838294     0.01332726940217     0.00146577460417     0.00559474684959
   26     0.00007209329157     0.00072389936326     0.02050784082433     0.00089242549587     0.00558875081198
   27     0.00003475558432     0.00025308368125     0.00852377494294     0.00039741216561     0.00045265676501
   28     0.00012257041678     0.00105606526907     0.00630590871720     0.01228808642295     0.01907277335232
   29     0.00073357877261     0.01304121811467     0.01196906155188     0.06542147318713     0.06055104734775
   30     0.00181468504016     0.00193208763450     0.00719078900280     0.02338274580216     0.01195595281656
   31     0.01281883613157     0.01544247839147     0.01905916565775     0.00844275290762     0.00274678543861
   32     0.06244206232516     0.05221149159905     0.05961403395773     0.01396144360547     0.01002864921201
   33     0.91965234393748     0.02347723472563     0.01208818143093     0.01589534240806     0.00178437299565
   34     0.02113358417641     0.83290562504315     0.78989215988893     0.05039250632953     0.06287009468797
   35     0.00403507815868     0.05796108698919     0.04444306124816     0.77030165186638     0.90040573838829
   36     0.00000055140743     0.00000479518378     0.00007595112242     0.00001555996630     0.00000607478000
   37     0.00000000171716     0.00000001192757     0.00000007239801     0.00000004529738     0.00000000983982
   38     0.00000000000685     0.00000000002093     0.00000000003175     0.00000000001871     0.00000000001061
   39     0.00000000000862     0.00000000003081     0.00000000012514     0.00000000006740     0.00000000001178
   40     0.00000000008779     0.00000000051624     0.00000000153866     0.00000000244260     0.00000000024672
   41     0.00000000000732     0.00000000001853     0.00000000008499     0.00000000004499     0.00000000001328
   42     0.00000000002831     0.00000000008284     0.00000000065863     0.00000000005489     0.00000000004889
   43     0.00000000003560     0.00000000013768     0.00000000037393     0.00000000005524     0.00000000005506
   44     0.00000000059806     0.00000000206399     0.00000001723289     0.00000000450814     0.00000000425059
   45     0.00000000017988     0.00000000281441     0.00000003906437     0.00000000353470     0.00000001599990
   46     0.00000000412716     0.00000001855120     0.00000083549992     0.00000004289459     0.00000019523768
   47     0.00000000796100     0.00000002283095     0.00000037968145     0.00000007814979     0.00000007474355
   48     0.00000016288532     0.00000109651862     0.00000924488607     0.00000311932283     0.00000131866877
   49     0.00000122793029     0.00000454317631     0.00006239110008     0.00001655440816     0.00002182929497
   50     0.00000942485118     0.00001871623698     0.00032323945390     0.00014167659831     0.00007675122246
   51     0.00001629142419     0.00012669160643     0.00346501535279     0.00010984711291     0.00237983470325
   52     0.00000297756583     0.00002641829442     0.00067033483462     0.00004926148308     0.00002785508805
   53     0.00002277256942     0.00038625658856     0.00037492916279     0.00054338336854     0.00109125459095
   54     0.00002150617715     0.00010165209410     0.00086469106165     0.00122870985712     0.00547958430645
   55     0.00022151328898     0.00039894532521     0.00048113036775     0.00095492954808     0.00113083313771
   56     0.00070251641874     0.00040240322404     0.00087562115162     0.00635064124203     0.00095181443459
   57     0.00119218970398     0.00155374629901     0.00098479440169     0.00041440196768     0.00040280873138
   58     0.00068512562751     0.00096077536644     0.00497932054398     0.00092613725205     0.00047127230462
   59     0.03493462589089     0.00327784610419     0.00098792110007     0.00812790317042     0.00058479307327
   60     0.03782014676144     0.00117758625473     0.00067056425784     0.00069007315339     0.00022281148222
   61     0.00000000000000     0.00756677217920     0.00106418371733     0.00172398245503     0.00016921080899
   62     0.00756677217920     0.00000000000000     0.01796035888402     0.01015132288975     0.00588373795595
   63     0.00106418371733     0.01796035888402     0.00000000000000     0.02176556256946     0.00827613584390
   64     0.00172398245503     0.01015132288975     0.02176556256946     0.00000000000000     0.02485806615696
   65     0.00016921080899     0.00588373795595     0.00827613584390     0.02485806615696     0.00000000000000
   66     0.00000000098239     0.00000000931405     0.00000003549251     0.00000003381668     0.00000000439572
   67     0.00000000032388     0.00000000134629     0.00000001422006     0.00000000334738     0.00000000217732
   68     0.00000000018184     0.00000000388205     0.00000001604360     0.00000001248108     0.00000000417185

                66                  67                  68

    1     0.00021109637713     0.00009783259432     0.00003065853797
    2     0.00024898737378     0.00012335437180     0.00002273141730
    3     0.00190472777990     0.00143666824414     0.00013225146437
    4     0.01275638889302     0.00287277798605     0.00061360212966
    5     0.00164587314976     0.00020584735865     0.00010382451441
    6     0.00026100412700     0.00006289645637     0.00002576740340
    7     0.00138088222028     0.00455412421586     0.00037120166505
    8     0.00024235331181     0.00070087199632     0.00010457580212
    9     0.00013328610711     0.00079175122035     0.00009476707718
   10     0.00027128287850     0.00090208608753     0.00008537085074
   11     0.00210754694193     0.01042726825555     0.00069797466423
   12     0.00911619989603     0.02665599285190     0.00254698380907
   13     0.00133816582854     0.00814006400448     0.00095186118584
   14     0.01330306115994     0.01485895355954     0.01173231935862
   15     0.05831840536273     0.05622703061681     0.05867752760601
   16     0.01863793301966     0.01018242149170     0.02451052734558
   17     0.00136817365175     0.00134650165757     0.00209779803738
   18     0.00328828433454     0.00065270461067     0.00189824379892
   19     0.00118755965909     0.00111964354487     0.00117644704810
   20     0.00038600100635     0.00008343012711     0.00023295874339
   21     0.00024093479132     0.00004994811760     0.00013634754588
   22     0.00001201731614     0.00000498315282     0.00001154839675
   23     0.00001583573254     0.00000302029995     0.00001055049977
   24     0.00000180499814     0.00000051140052     0.00000106309294
   25     0.00000938375645     0.00000099006304     0.00000478064912
   26     0.00000143834804     0.00000041619046     0.00000104469385
   27     0.00001482136786     0.00000305731112     0.00000860797257
   28     0.00000072491546     0.00000007025322     0.00000033628918
   29     0.00000053581002     0.00000006019297     0.00000027673105
   30     0.00000010345890     0.00000001885435     0.00000004514540
   31     0.00000001915978     0.00000000740264     0.00000002035231
   32     0.00000001221125     0.00000000577771     0.00000000611778
   33     0.00000000901146     0.00000000112030     0.00000000286837
   34     0.00000004331822     0.00000001254912     0.00000002692269
   35     0.00000005361362     0.00000000815746     0.00000004379811
   36     0.00014052825741     0.00004096604654     0.00008176538616
   37     0.90620870682745     0.89805653866181     0.91449271820558
   38     0.00002282937819     0.00000707064827     0.00000219951861
   39     0.00002882701184     0.00001920489926     0.00000446563401
   40     0.01042423228941     0.00185256088457     0.00068192126960
   41     0.00002261182036     0.00000458794321     0.00000263276218
   42     0.00003334194645     0.00005441572940     0.00001430999898
   43     0.00001546738016     0.00004069047608     0.00000696095693
   44     0.00011816031921     0.00045022117646     0.00012762121016
   45     0.00311884867409     0.00138319641426     0.00659591299069
   46     0.00012352076648     0.00028171367580     0.00011860968237
   47     0.00022146784615     0.00022265637407     0.00028821580092
   48     0.00004761362419     0.00002987269499     0.00004535997020
   49     0.00000345730707     0.00000092432632     0.00000401794110
   50     0.00000005412204     0.00000007359650     0.00000006814062
   51     0.00000012222137     0.00000004695779     0.00000008932689
   52     0.00000083082064     0.00000062197746     0.00000075653614
   53     0.00000006537860     0.00000001426405     0.00000005258469
   54     0.00000011065274     0.00000002065153     0.00000007800298
   55     0.00000000954984     0.00000000218542     0.00000000814861
   56     0.00000002372696     0.00000000306175     0.00000001135611
   57     0.00000000781843     0.00000000220572     0.00000000432966
   58     0.00000004726043     0.00000000840870     0.00000001429774
   59     0.00000000176894     0.00000000017129     0.00000000062345
   60     0.00000000036695     0.00000000008083     0.00000000025649
   61     0.00000000098239     0.00000000032388     0.00000000018184
   62     0.00000000931405     0.00000000134629     0.00000000388205
   63     0.00000003549251     0.00000001422006     0.00000001604360
   64     0.00000003381668     0.00000000334738     0.00000001248108
   65     0.00000000439572     0.00000000217732     0.00000000417185
   66     0.00000000000000     0.03545438655038     0.03783977393930
   67     0.03545438655038     0.00000000000000     0.03998974547591
   68     0.03783977393930     0.03998974547591     0.00000000000000



  Atomic Valences: 

 #  #
 Irrep: 1
      1:  4.3939224
      2:  4.4265620
      3:  4.6062878
      4:  4.5775825
      5:  3.8842805
      6:  4.5458372
      7:  4.7444478
      8:  4.3741411
      9:  4.5290109
     10:  3.8717425
     11:  5.0082150
     12:  3.9568853
     13:  4.0348111
     14:  4.6656840
     15:  4.6286552
     16:  4.4462029
     17:  4.4078454
     18:  4.6636804
     19:  4.3877754
     20:  4.0664828
     21:  4.9971763
     22:  4.6148074
     23:  4.4437665
     24:  4.4741864
     25:  4.7163734
     26:  4.4726188
     27:  4.4359946
     28:  4.4926423
     29:  4.2527322
     30:  4.5624162
     31:  4.5763578
     32:  4.2330974
     33:  4.2984066
     34:  4.5738687
     35:  4.5632180
     36:  2.7744239
     37:  4.1936811
     38:  1.0989769
     39:  1.1035024
     40:  1.1165020
     41:  1.0912010
     42:  1.1109795
     43:  1.0864097
     44:  1.1733972
     45:  1.0983263
     46:  1.1077166
     47:  1.1083910
     48:  1.1819694
     49:  1.1056319
     50:  1.1062147
     51:  1.1050665
     52:  1.0980742
     53:  1.1065238
     54:  1.1062179
     55:  1.1356659
     56:  1.0423106
     57:  1.0489994
     58:  1.0762303
     59:  1.1375472
     60:  1.1093962
     61:  1.1092043
     62:  1.0502207
     63:  1.0657326
     64:  1.0420226
     65:  1.1340368
     66:  1.1222301
     67:  1.1193949
     68:  1.1065794


    Psi4 stopped on: Tuesday, 03 March 2020 06:25PM
    Psi4 wall time for execution: 0:23:35.33

*** Psi4 exiting successfully. Buy a developer a beer!
