 Entering Gaussian System, Link 0=g09
 Input=MOLECULE0-opt-14-13-11-12-284.com
 Output=MOLECULE0-opt-14-13-11-12-284.log
 Initial command:
 /opt/g09gh/gaussian/g09/l1.exe /scratch/bdw2292/Gau-MOLECULE0/Gau-28982.inp -scrdir=/scratch/bdw2292/Gau-MOLECULE0/
 Entering Link 1 = /opt/g09gh/gaussian/g09/l1.exe PID=     28983.
  
 Copyright (c) 1988,1990,1992,1993,1995,1998,2003,2009, Gaussian, Inc.
                  All Rights Reserved.
  
 This is part of the Gaussian(R) 09 program.  It is based on
 the Gaussian(R) 03 system (copyright 2003, Gaussian, Inc.),
 the Gaussian(R) 98 system (copyright 1998, Gaussian, Inc.),
 the Gaussian(R) 94 system (copyright 1995, Gaussian, Inc.),
 the Gaussian 92(TM) system (copyright 1992, Gaussian, Inc.),
 the Gaussian 90(TM) system (copyright 1990, Gaussian, Inc.),
 the Gaussian 88(TM) system (copyright 1988, Gaussian, Inc.),
 the Gaussian 86(TM) system (copyright 1986, Carnegie Mellon
 University), and the Gaussian 82(TM) system (copyright 1983,
 Carnegie Mellon University). Gaussian is a federally registered
 trademark of Gaussian, Inc.
  
 This software contains proprietary and confidential information,
 including trade secrets, belonging to Gaussian, Inc.
  
 This software is provided under written license and may be
 used, copied, transmitted, or stored only in accord with that
 written license.
  
 The following legend is applicable only to US Government
 contracts under FAR:
  
                    RESTRICTED RIGHTS LEGEND
  
 Use, reproduction and disclosure by the US Government is
 subject to restrictions as set forth in subparagraphs (a)
 and (c) of the Commercial Computer Software - Restricted
 Rights clause in FAR 52.227-19.
  
 Gaussian, Inc.
 340 Quinnipiac St., Bldg. 40, Wallingford CT 06492
  
  
 ---------------------------------------------------------------
 Warning -- This program may not be used in any manner that
 competes with the business of Gaussian, Inc. or will provide
 assistance to any competitor of Gaussian, Inc.  The licensee
 of this program is prohibited from giving any competitor of
 Gaussian, Inc. access to this program.  By using this program,
 the user acknowledges that Gaussian, Inc. is engaged in the
 business of creating and licensing software in the field of
 computational chemistry and represents and warrants to the
 licensee that it is not a competitor of Gaussian, Inc. and that
 it will not use this program in any manner prohibited above.
 ---------------------------------------------------------------
  

 Cite this work as:
 Gaussian 09, Revision A.02,
 M. J. Frisch, G. W. Trucks, H. B. Schlegel, G. E. Scuseria, 
 M. A. Robb, J. R. Cheeseman, G. Scalmani, V. Barone, B. Mennucci, 
 G. A. Petersson, H. Nakatsuji, M. Caricato, X. Li, H. P. Hratchian, 
 A. F. Izmaylov, J. Bloino, G. Zheng, J. L. Sonnenberg, M. Hada, 
 M. Ehara, K. Toyota, R. Fukuda, J. Hasegawa, M. Ishida, T. Nakajima, 
 Y. Honda, O. Kitao, H. Nakai, T. Vreven, J. A. Montgomery, Jr., 
 J. E. Peralta, F. Ogliaro, M. Bearpark, J. J. Heyd, E. Brothers, 
 K. N. Kudin, V. N. Staroverov, R. Kobayashi, J. Normand, 
 K. Raghavachari, A. Rendell, J. C. Burant, S. S. Iyengar, J. Tomasi, 
 M. Cossi, N. Rega, J. M. Millam, M. Klene, J. E. Knox, J. B. Cross, 
 V. Bakken, C. Adamo, J. Jaramillo, R. Gomperts, R. E. Stratmann, 
 O. Yazyev, A. J. Austin, R. Cammi, C. Pomelli, J. W. Ochterski, 
 R. L. Martin, K. Morokuma, V. G. Zakrzewski, G. A. Voth, 
 P. Salvador, J. J. Dannenberg, S. Dapprich, A. D. Daniels, 
 O. Farkas, J. B. Foresman, J. V. Ortiz, J. Cioslowski, 
 and D. J. Fox, Gaussian, Inc., Wallingford CT, 2009.
 
 ******************************************
 Gaussian 09:  EM64L-G09RevA.02 11-Jun-2009
                27-Feb-2020 
 ******************************************
 %RWF=/scratch/bdw2292/Gau-MOLECULE0/,100GB
 %Nosave
 %Chk=MOLECULE0-opt-14-13-11-12-284.chk
 %Mem=20GB
 %Nproc=6
 Will use up to    6 processors via shared memory.
 --------------------------------------------------
 #P opt=(,maxcycle=400) wB97XD/6-31G* MaxDisk=100GB
 --------------------------------------------------
 1/6=400,14=-1,18=20,19=15,26=3,38=1/1,3;
 2/9=110,12=2,17=6,18=5,40=1/2;
 3/5=1,6=6,7=1,11=2,16=1,25=1,30=1,71=1,74=-58/1,2,3;
 4//1;
 5/5=2,38=5/2;
 6/7=2,8=2,9=2,10=2,28=1/1;
 7//1,2,3,16;
 1/6=400,14=-1,18=20,19=15/3(2);
 2/9=110/2;
 99//99;
 2/9=110/2;
 3/5=1,6=6,7=1,11=2,16=1,25=1,30=1,71=1,74=-58/1,2,3;
 4/5=5,16=3/1;
 5/5=2,38=5/2;
 7//1,2,3,16;
 1/6=400,14=-1,18=20,19=15/3(-5);
 2/9=110/2;
 6/7=2,8=2,9=2,10=2,19=2,28=1/1;
 99/9=1/99;
 Leave Link    1 at Thu Feb 27 15:04:44 2020, MaxMem= 2684354560 cpu:       0.2
 (Enter /opt/g09gh/gaussian/g09/l101.exe)
 -----------------------------------------------------------------
 MOLECULE0 Rotatable Bond Optimization on g2-node38.bme.utexas.edu
 -----------------------------------------------------------------
 Symbolic Z-matrix:
 Charge =  0 Multiplicity = 1
 C                     4.0039    5.0006   -4.42664 
 C                     4.04157   4.70165  -3.0584 
 C                     4.38745   3.40427  -2.62916 
 C                     4.68114   2.47016  -3.65347 
 N                     4.64886   2.74051  -4.96525 
 C                     4.31586   3.98502  -5.33655 
 C                     4.44773   2.99735  -1.17871 
 C                     4.15734   3.83646  -0.08809 
 C                     4.26624   3.25466   1.18027 
 N                     4.61104   1.98895   1.39523 
 C                     4.86729   1.26698   0.28819 
 N                     4.7987    1.71435  -0.96441 
 N                     5.22017  -0.03051   0.52136 
 C                     4.47485  -1.24191   0.37669 
 C                     5.16582  -2.48967   0.33971 
 C                     4.38494  -3.64737   0.19705 
 C                     2.99047  -3.63553   0.08578 
 C                     2.32816  -2.40322   0.12654 
 C                     3.07765  -1.22165   0.26764 
 N                     0.91259  -2.22083   0.00641 
 C                    -0.08687  -3.11086  -0.31414 
 C                    -1.46027  -2.54769  -0.62079 
 C                    -1.65577  -1.32442  -1.28241 
 C                    -2.94645  -0.84661  -1.51808 
 C                    -4.08287  -1.56919  -1.10856 
 C                    -3.87227  -2.80035  -0.45846 
 C                    -2.58511  -3.29289  -0.23092 
 C                    -5.49047  -1.00585  -1.31025 
 N                    -6.023    -0.05445  -0.3181 
 C                    -5.51362   1.33522  -0.31516 
 C                    -4.33913   1.5835    0.66608 
 N                    -4.62064   1.17152   2.06101 
 C                    -5.37777   2.11804   2.8885 
 C                    -5.09535  -0.23412   2.06228 
 C                    -6.25134  -0.52317   1.06846 
 O                     0.09008  -4.31819  -0.33485 
 C                     6.67648  -2.6141    0.43987 
 H                     3.74138   5.99336  -4.78004 
 H                     3.79897   5.49408  -2.35455 
 H                     4.9534    1.45171  -3.39039 
 H                     4.30015   4.17169  -6.40909 
 H                     3.86286   4.87431  -0.18332 
 H                     4.05943   3.84075   2.07509 
 H                     6.20137  -0.08495   0.75269 
 H                     4.87526  -4.61935   0.16038 
 H                     2.42933  -4.55408  -0.0357 
 H                     2.58176  -0.26019   0.29442 
 H                     0.60769  -1.26291   0.10712 
 H                    -0.7935   -0.75269  -1.61686 
 H                    -3.0647    0.11192  -2.02367 
 H                    -4.72354  -3.38774  -0.115 
 H                    -2.43065  -4.2446    0.27121 
 H                    -5.53038  -0.51057  -2.29138 
 H                    -6.20025  -1.84484  -1.35653 
 H                    -5.3004    1.6611   -1.29968 
 H                    -6.68963   2.24562   0.20606 
 H                    -4.06653   3.0646    0.6545 
 H                    -3.40282   1.06038   0.3315 
 H                    -6.39766   2.24511   2.50855 
 H                    -4.87934   3.09397   2.89864 
 H                    -5.42923   1.75777   3.92234 
 H                    -5.37852  -0.54011   3.12821 
 H                    -3.93664  -1.07774   1.64993 
 H                    -7.48881   0.28646   1.62795 
 H                    -6.54178  -1.59199   1.0737 
 H                     7.04423  -2.26389   1.41475 
 H                     7.18083  -2.02228  -0.33707 
 H                     7.02995  -3.64797   0.32328 
 
 NAtoms=     68 NQM=     68 NQMF=      0 NMic=      0 NMicF=      0 NTot=     68.
                    Isotopes and Nuclear Properties:
 (Nuclear quadrupole moments (NQMom) in fm**2, nuclear magnetic moments (NMagM)
  in nuclear magnetons)

  Atom         1           2           3           4           5           6           7           8           9          10
 IAtWgt=          12          12          12          12          14          12          12          12          12          14
 AtmWgt=  12.0000000  12.0000000  12.0000000  12.0000000  14.0030740  12.0000000  12.0000000  12.0000000  12.0000000  14.0030740
 NucSpn=           0           0           0           0           2           0           0           0           0           2
 AtZEff=   0.0000000   0.0000000   0.0000000   0.0000000   0.0000000   0.0000000   0.0000000   0.0000000   0.0000000   0.0000000
 NQMom=    0.0000000   0.0000000   0.0000000   0.0000000   2.0440000   0.0000000   0.0000000   0.0000000   0.0000000   2.0440000
 NMagM=    0.0000000   0.0000000   0.0000000   0.0000000   0.4037610   0.0000000   0.0000000   0.0000000   0.0000000   0.4037610

  Atom        11          12          13          14          15          16          17          18          19          20
 IAtWgt=          12          14          14          12          12          12          12          12          12          14
 AtmWgt=  12.0000000  14.0030740  14.0030740  12.0000000  12.0000000  12.0000000  12.0000000  12.0000000  12.0000000  14.0030740
 NucSpn=           0           2           2           0           0           0           0           0           0           2
 AtZEff=   0.0000000   0.0000000   0.0000000   0.0000000   0.0000000   0.0000000   0.0000000   0.0000000   0.0000000   0.0000000
 NQMom=    0.0000000   2.0440000   2.0440000   0.0000000   0.0000000   0.0000000   0.0000000   0.0000000   0.0000000   2.0440000
 NMagM=    0.0000000   0.4037610   0.4037610   0.0000000   0.0000000   0.0000000   0.0000000   0.0000000   0.0000000   0.4037610

  Atom        21          22          23          24          25          26          27          28          29          30
 IAtWgt=          12          12          12          12          12          12          12          12          14          12
 AtmWgt=  12.0000000  12.0000000  12.0000000  12.0000000  12.0000000  12.0000000  12.0000000  12.0000000  14.0030740  12.0000000
 NucSpn=           0           0           0           0           0           0           0           0           2           0
 AtZEff=   0.0000000   0.0000000   0.0000000   0.0000000   0.0000000   0.0000000   0.0000000   0.0000000   0.0000000   0.0000000
 NQMom=    0.0000000   0.0000000   0.0000000   0.0000000   0.0000000   0.0000000   0.0000000   0.0000000   2.0440000   0.0000000
 NMagM=    0.0000000   0.0000000   0.0000000   0.0000000   0.0000000   0.0000000   0.0000000   0.0000000   0.4037610   0.0000000

  Atom        31          32          33          34          35          36          37          38          39          40
 IAtWgt=          12          14          12          12          12          16          12           1           1           1
 AtmWgt=  12.0000000  14.0030740  12.0000000  12.0000000  12.0000000  15.9949146  12.0000000   1.0078250   1.0078250   1.0078250
 NucSpn=           0           2           0           0           0           0           0           1           1           1
 AtZEff=   0.0000000   0.0000000   0.0000000   0.0000000   0.0000000   0.0000000   0.0000000   0.0000000   0.0000000   0.0000000
 NQMom=    0.0000000   2.0440000   0.0000000   0.0000000   0.0000000   0.0000000   0.0000000   0.0000000   0.0000000   0.0000000
 NMagM=    0.0000000   0.4037610   0.0000000   0.0000000   0.0000000   0.0000000   0.0000000   2.7928460   2.7928460   2.7928460

  Atom        41          42          43          44          45          46          47          48          49          50
 IAtWgt=           1           1           1           1           1           1           1           1           1           1
 AtmWgt=   1.0078250   1.0078250   1.0078250   1.0078250   1.0078250   1.0078250   1.0078250   1.0078250   1.0078250   1.0078250
 NucSpn=           1           1           1           1           1           1           1           1           1           1
 AtZEff=   0.0000000   0.0000000   0.0000000   0.0000000   0.0000000   0.0000000   0.0000000   0.0000000   0.0000000   0.0000000
 NQMom=    0.0000000   0.0000000   0.0000000   0.0000000   0.0000000   0.0000000   0.0000000   0.0000000   0.0000000   0.0000000
 NMagM=    2.7928460   2.7928460   2.7928460   2.7928460   2.7928460   2.7928460   2.7928460   2.7928460   2.7928460   2.7928460

  Atom        51          52          53          54          55          56          57          58          59          60
 IAtWgt=           1           1           1           1           1           1           1           1           1           1
 AtmWgt=   1.0078250   1.0078250   1.0078250   1.0078250   1.0078250   1.0078250   1.0078250   1.0078250   1.0078250   1.0078250
 NucSpn=           1           1           1           1           1           1           1           1           1           1
 AtZEff=   0.0000000   0.0000000   0.0000000   0.0000000   0.0000000   0.0000000   0.0000000   0.0000000   0.0000000   0.0000000
 NQMom=    0.0000000   0.0000000   0.0000000   0.0000000   0.0000000   0.0000000   0.0000000   0.0000000   0.0000000   0.0000000
 NMagM=    2.7928460   2.7928460   2.7928460   2.7928460   2.7928460   2.7928460   2.7928460   2.7928460   2.7928460   2.7928460

  Atom        61          62          63          64          65          66          67          68
 IAtWgt=           1           1           1           1           1           1           1           1
 AtmWgt=   1.0078250   1.0078250   1.0078250   1.0078250   1.0078250   1.0078250   1.0078250   1.0078250
 NucSpn=           1           1           1           1           1           1           1           1
 AtZEff=   0.0000000   0.0000000   0.0000000   0.0000000   0.0000000   0.0000000   0.0000000   0.0000000
 NQMom=    0.0000000   0.0000000   0.0000000   0.0000000   0.0000000   0.0000000   0.0000000   0.0000000
 NMagM=    2.7928460   2.7928460   2.7928460   2.7928460   2.7928460   2.7928460   2.7928460   2.7928460
 Leave Link  101 at Thu Feb 27 15:04:44 2020, MaxMem= 2684354560 cpu:       0.5
 (Enter /opt/g09gh/gaussian/g09/l103.exe)

 GradGradGradGradGradGradGradGradGradGradGradGradGradGradGradGradGradGrad
 Berny optimization.
 Initialization pass.
                           ----------------------------
                           !    Initial Parameters    !
                           ! (Angstroms and Degrees)  !
 --------------------------                            --------------------------
 ! Name  Definition              Value          Derivative Info.                !
 --------------------------------------------------------------------------------
 ! R1    R(1,2)                  1.401          estimate D2E/DX2                !
 ! R2    R(1,6)                  1.3988         estimate D2E/DX2                !
 ! R3    R(1,38)                 1.086          estimate D2E/DX2                !
 ! R4    R(2,3)                  1.4096         estimate D2E/DX2                !
 ! R5    R(2,39)                 1.0873         estimate D2E/DX2                !
 ! R6    R(3,4)                  1.4171         estimate D2E/DX2                !
 ! R7    R(3,7)                  1.5076         estimate D2E/DX2                !
 ! R8    R(4,5)                  1.3397         estimate D2E/DX2                !
 ! R9    R(4,40)                 1.0865         estimate D2E/DX2                !
 ! R10   R(5,6)                  1.3407         estimate D2E/DX2                !
 ! R11   R(6,41)                 1.0888         estimate D2E/DX2                !
 ! R12   R(7,8)                  1.4064         estimate D2E/DX2                !
 ! R13   R(7,12)                 1.3473         estimate D2E/DX2                !
 ! R14   R(8,9)                  1.3997         estimate D2E/DX2                !
 ! R15   R(8,42)                 1.083          estimate D2E/DX2                !
 ! R16   R(9,10)                 1.3293         estimate D2E/DX2                !
 ! R17   R(9,43)                 1.0895         estimate D2E/DX2                !
 ! R18   R(10,11)                1.3463         estimate D2E/DX2                !
 ! R19   R(11,12)                1.3319         estimate D2E/DX2                !
 ! R20   R(11,13)                1.3647         estimate D2E/DX2                !
 ! R21   R(13,14)                1.4297         estimate D2E/DX2                !
 ! R22   R(13,44)                1.0096         estimate D2E/DX2                !
 ! R23   R(14,15)                1.4268         estimate D2E/DX2                !
 ! R24   R(14,19)                1.4016         estimate D2E/DX2                !
 ! R25   R(15,16)                1.4037         estimate D2E/DX2                !
 ! R26   R(15,37)                1.5191         estimate D2E/DX2                !
 ! R27   R(16,17)                1.3989         estimate D2E/DX2                !
 ! R28   R(16,45)                1.0893         estimate D2E/DX2                !
 ! R29   R(17,18)                1.3996         estimate D2E/DX2                !
 ! R30   R(17,46)                1.0832         estimate D2E/DX2                !
 ! R31   R(18,19)                1.4063         estimate D2E/DX2                !
 ! R32   R(18,20)                1.4323         estimate D2E/DX2                !
 ! R33   R(19,47)                1.0821         estimate D2E/DX2                !
 ! R34   R(20,21)                1.3762         estimate D2E/DX2                !
 ! R35   R(20,48)                1.0103         estimate D2E/DX2                !
 ! R36   R(21,22)                1.5157         estimate D2E/DX2                !
 ! R37   R(21,36)                1.2204         estimate D2E/DX2                !
 ! R38   R(22,23)                1.4044         estimate D2E/DX2                !
 ! R39   R(22,27)                1.4045         estimate D2E/DX2                !
 ! R40   R(23,24)                1.3963         estimate D2E/DX2                !
 ! R41   R(23,49)                1.0873         estimate D2E/DX2                !
 ! R42   R(24,25)                1.4076         estimate D2E/DX2                !
 ! R43   R(24,50)                1.0901         estimate D2E/DX2                !
 ! R44   R(25,26)                1.4081         estimate D2E/DX2                !
 ! R45   R(25,28)                1.5295         estimate D2E/DX2                !
 ! R46   R(26,27)                1.3968         estimate D2E/DX2                !
 ! R47   R(26,51)                1.0898         estimate D2E/DX2                !
 ! R48   R(27,52)                1.0871         estimate D2E/DX2                !
 ! R49   R(28,29)                1.4742         estimate D2E/DX2                !
 ! R50   R(28,53)                1.0998         estimate D2E/DX2                !
 ! R51   R(28,54)                1.0999         estimate D2E/DX2                !
 ! R52   R(29,30)                1.4801         estimate D2E/DX2                !
 ! R53   R(29,35)                1.4813         estimate D2E/DX2                !
 ! R54   R(30,31)                1.5505         estimate D2E/DX2                !
 ! R55   R(30,55)                1.0587         estimate D2E/DX2                !
 ! R56   R(30,56)                1.5759         estimate D2E/DX2                !
 ! R57   R(31,32)                1.4815         estimate D2E/DX2                !
 ! R58   R(31,57)                1.506          estimate D2E/DX2                !
 ! R59   R(31,58)                1.1235         estimate D2E/DX2                !
 ! R60   R(32,33)                1.4676         estimate D2E/DX2                !
 ! R61   R(32,34)                1.4836         estimate D2E/DX2                !
 ! R62   R(33,59)                1.0958         estimate D2E/DX2                !
 ! R63   R(33,60)                1.0959         estimate D2E/DX2                !
 ! R64   R(33,61)                1.096          estimate D2E/DX2                !
 ! R65   R(34,35)                1.5516         estimate D2E/DX2                !
 ! R66   R(34,62)                1.1446         estimate D2E/DX2                !
 ! R67   R(34,63)                1.4914         estimate D2E/DX2                !
 ! R68   R(35,64)                1.5811         estimate D2E/DX2                !
 ! R69   R(35,65)                1.1076         estimate D2E/DX2                !
 ! R70   R(37,66)                1.0992         estimate D2E/DX2                !
 ! R71   R(37,67)                1.0992         estimate D2E/DX2                !
 ! R72   R(37,68)                1.0988         estimate D2E/DX2                !
 ! A1    A(2,1,6)              118.3169         estimate D2E/DX2                !
 ! A2    A(2,1,38)             121.2894         estimate D2E/DX2                !
 ! A3    A(6,1,38)             120.3937         estimate D2E/DX2                !
 ! A4    A(1,2,3)              120.0239         estimate D2E/DX2                !
 ! A5    A(1,2,39)             118.0783         estimate D2E/DX2                !
 ! A6    A(3,2,39)             121.8977         estimate D2E/DX2                !
 ! A7    A(2,3,4)              115.9408         estimate D2E/DX2                !
 ! A8    A(2,3,7)              123.4472         estimate D2E/DX2                !
 ! A9    A(4,3,7)              120.6118         estimate D2E/DX2                !
 ! A10   A(3,4,5)              124.7328         estimate D2E/DX2                !
 ! A11   A(3,4,40)             119.6561         estimate D2E/DX2                !
 ! A12   A(5,4,40)             115.6109         estimate D2E/DX2                !
 ! A13   A(4,5,6)              117.6748         estimate D2E/DX2                !
 ! A14   A(1,6,5)              123.3107         estimate D2E/DX2                !
 ! A15   A(1,6,41)             120.8697         estimate D2E/DX2                !
 ! A16   A(5,6,41)             115.8196         estimate D2E/DX2                !
 ! A17   A(3,7,8)              125.2236         estimate D2E/DX2                !
 ! A18   A(3,7,12)             114.8641         estimate D2E/DX2                !
 ! A19   A(8,7,12)             119.9082         estimate D2E/DX2                !
 ! A20   A(7,8,9)              116.0185         estimate D2E/DX2                !
 ! A21   A(7,8,42)             124.0364         estimate D2E/DX2                !
 ! A22   A(9,8,42)             119.945          estimate D2E/DX2                !
 ! A23   A(8,9,10)             124.2279         estimate D2E/DX2                !
 ! A24   A(8,9,43)             120.3909         estimate D2E/DX2                !
 ! A25   A(10,9,43)            115.3806         estimate D2E/DX2                !
 ! A26   A(9,10,11)            115.2779         estimate D2E/DX2                !
 ! A27   A(10,11,12)           125.6921         estimate D2E/DX2                !
 ! A28   A(10,11,13)           114.7456         estimate D2E/DX2                !
 ! A29   A(12,11,13)           119.5621         estimate D2E/DX2                !
 ! A30   A(7,12,11)            118.874          estimate D2E/DX2                !
 ! A31   A(11,13,14)           130.807          estimate D2E/DX2                !
 ! A32   A(11,13,44)           109.9829         estimate D2E/DX2                !
 ! A33   A(14,13,44)           118.9583         estimate D2E/DX2                !
 ! A34   A(13,14,15)           119.4174         estimate D2E/DX2                !
 ! A35   A(13,14,19)           121.019          estimate D2E/DX2                !
 ! A36   A(15,14,19)           119.5634         estimate D2E/DX2                !
 ! A37   A(14,15,16)           117.032          estimate D2E/DX2                !
 ! A38   A(14,15,37)           123.4715         estimate D2E/DX2                !
 ! A39   A(16,15,37)           119.4959         estimate D2E/DX2                !
 ! A40   A(15,16,17)           123.7537         estimate D2E/DX2                !
 ! A41   A(15,16,45)           119.2716         estimate D2E/DX2                !
 ! A42   A(17,16,45)           116.9726         estimate D2E/DX2                !
 ! A43   A(16,17,18)           118.4783         estimate D2E/DX2                !
 ! A44   A(16,17,46)           121.2061         estimate D2E/DX2                !
 ! A45   A(18,17,46)           120.3145         estimate D2E/DX2                !
 ! A46   A(17,18,19)           119.3718         estimate D2E/DX2                !
 ! A47   A(17,18,20)           125.2645         estimate D2E/DX2                !
 ! A48   A(19,18,20)           115.35           estimate D2E/DX2                !
 ! A49   A(14,19,18)           121.799          estimate D2E/DX2                !
 ! A50   A(14,19,47)           117.8869         estimate D2E/DX2                !
 ! A51   A(18,19,47)           120.3141         estimate D2E/DX2                !
 ! A52   A(18,20,21)           130.9159         estimate D2E/DX2                !
 ! A53   A(18,20,48)           114.2449         estimate D2E/DX2                !
 ! A54   A(21,20,48)           114.6613         estimate D2E/DX2                !
 ! A55   A(20,21,22)           117.7029         estimate D2E/DX2                !
 ! A56   A(20,21,36)           122.5797         estimate D2E/DX2                !
 ! A57   A(22,21,36)           119.7041         estimate D2E/DX2                !
 ! A58   A(21,22,23)           123.0296         estimate D2E/DX2                !
 ! A59   A(21,22,27)           118.1889         estimate D2E/DX2                !
 ! A60   A(23,22,27)           118.7799         estimate D2E/DX2                !
 ! A61   A(22,23,24)           120.4137         estimate D2E/DX2                !
 ! A62   A(22,23,49)           119.5067         estimate D2E/DX2                !
 ! A63   A(24,23,49)           120.0785         estimate D2E/DX2                !
 ! A64   A(23,24,25)           121.4337         estimate D2E/DX2                !
 ! A65   A(23,24,50)           118.6484         estimate D2E/DX2                !
 ! A66   A(25,24,50)           119.9159         estimate D2E/DX2                !
 ! A67   A(24,25,26)           117.5428         estimate D2E/DX2                !
 ! A68   A(24,25,28)           121.0358         estimate D2E/DX2                !
 ! A69   A(26,25,28)           121.37           estimate D2E/DX2                !
 ! A70   A(25,26,27)           121.4217         estimate D2E/DX2                !
 ! A71   A(25,26,51)           119.9958         estimate D2E/DX2                !
 ! A72   A(27,26,51)           118.5813         estimate D2E/DX2                !
 ! A73   A(22,27,26)           120.3772         estimate D2E/DX2                !
 ! A74   A(22,27,52)           118.6163         estimate D2E/DX2                !
 ! A75   A(26,27,52)           120.9892         estimate D2E/DX2                !
 ! A76   A(25,28,29)           118.7774         estimate D2E/DX2                !
 ! A77   A(25,28,53)           108.4759         estimate D2E/DX2                !
 ! A78   A(25,28,54)           108.5708         estimate D2E/DX2                !
 ! A79   A(29,28,53)           107.2571         estimate D2E/DX2                !
 ! A80   A(29,28,54)           106.7082         estimate D2E/DX2                !
 ! A81   A(53,28,54)           106.4133         estimate D2E/DX2                !
 ! A82   A(28,29,30)           118.8801         estimate D2E/DX2                !
 ! A83   A(28,29,35)           118.7793         estimate D2E/DX2                !
 ! A84   A(30,29,35)           110.3823         estimate D2E/DX2                !
 ! A85   A(29,30,31)           114.3501         estimate D2E/DX2                !
 ! A86   A(29,30,55)           110.8835         estimate D2E/DX2                !
 ! A87   A(29,30,56)           106.6332         estimate D2E/DX2                !
 ! A88   A(31,30,55)           112.7462         estimate D2E/DX2                !
 ! A89   A(31,30,56)           105.2752         estimate D2E/DX2                !
 ! A90   A(55,30,56)           106.2618         estimate D2E/DX2                !
 ! A91   A(30,31,32)           114.043          estimate D2E/DX2                !
 ! A92   A(30,31,57)           106.8423         estimate D2E/DX2                !
 ! A93   A(30,31,58)           111.6092         estimate D2E/DX2                !
 ! A94   A(32,31,57)           108.3677         estimate D2E/DX2                !
 ! A95   A(32,31,58)           108.0154         estimate D2E/DX2                !
 ! A96   A(57,31,58)           107.7443         estimate D2E/DX2                !
 ! A97   A(31,32,33)           116.7161         estimate D2E/DX2                !
 ! A98   A(31,32,34)           108.9701         estimate D2E/DX2                !
 ! A99   A(33,32,34)           116.4541         estimate D2E/DX2                !
 ! A100  A(32,33,59)           111.0673         estimate D2E/DX2                !
 ! A101  A(32,33,60)           110.1767         estimate D2E/DX2                !
 ! A102  A(32,33,61)           110.1248         estimate D2E/DX2                !
 ! A103  A(59,33,60)           108.8607         estimate D2E/DX2                !
 ! A104  A(59,33,61)           108.7533         estimate D2E/DX2                !
 ! A105  A(60,33,61)           107.779          estimate D2E/DX2                !
 ! A106  A(32,34,35)           114.477          estimate D2E/DX2                !
 ! A107  A(32,34,62)           109.4662         estimate D2E/DX2                !
 ! A108  A(32,34,63)           106.6837         estimate D2E/DX2                !
 ! A109  A(35,34,62)           111.246          estimate D2E/DX2                !
 ! A110  A(35,34,63)           107.2388         estimate D2E/DX2                !
 ! A111  A(62,34,63)           107.3662         estimate D2E/DX2                !
 ! A112  A(29,35,34)           115.1968         estimate D2E/DX2                !
 ! A113  A(29,35,64)           106.8485         estimate D2E/DX2                !
 ! A114  A(29,35,65)           110.4992         estimate D2E/DX2                !
 ! A115  A(34,35,64)           105.1328         estimate D2E/DX2                !
 ! A116  A(34,35,65)           111.8451         estimate D2E/DX2                !
 ! A117  A(64,35,65)           106.6924         estimate D2E/DX2                !
 ! A118  A(15,37,66)           111.413          estimate D2E/DX2                !
 ! A119  A(15,37,67)           111.4435         estimate D2E/DX2                !
 ! A120  A(15,37,68)           112.9525         estimate D2E/DX2                !
 ! A121  A(66,37,67)           107.5668         estimate D2E/DX2                !
 ! A122  A(66,37,68)           106.6335         estimate D2E/DX2                !
 ! A123  A(67,37,68)           106.4982         estimate D2E/DX2                !
 ! D1    D(6,1,2,3)              0.0018         estimate D2E/DX2                !
 ! D2    D(6,1,2,39)           179.9644         estimate D2E/DX2                !
 ! D3    D(38,1,2,3)          -179.9209         estimate D2E/DX2                !
 ! D4    D(38,1,2,39)            0.0417         estimate D2E/DX2                !
 ! D5    D(2,1,6,5)              0.0045         estimate D2E/DX2                !
 ! D6    D(2,1,6,41)          -179.9652         estimate D2E/DX2                !
 ! D7    D(38,1,6,5)           179.928          estimate D2E/DX2                !
 ! D8    D(38,1,6,41)           -0.0417         estimate D2E/DX2                !
 ! D9    D(1,2,3,4)              0.0218         estimate D2E/DX2                !
 ! D10   D(1,2,3,7)           -179.7965         estimate D2E/DX2                !
 ! D11   D(39,2,3,4)          -179.9394         estimate D2E/DX2                !
 ! D12   D(39,2,3,7)             0.2424         estimate D2E/DX2                !
 ! D13   D(2,3,4,5)             -0.0569         estimate D2E/DX2                !
 ! D14   D(2,3,4,40)          -179.8988         estimate D2E/DX2                !
 ! D15   D(7,3,4,5)            179.7669         estimate D2E/DX2                !
 ! D16   D(7,3,4,40)            -0.075          estimate D2E/DX2                !
 ! D17   D(2,3,7,8)              0.7949         estimate D2E/DX2                !
 ! D18   D(2,3,7,12)          -179.9449         estimate D2E/DX2                !
 ! D19   D(4,3,7,8)           -179.0152         estimate D2E/DX2                !
 ! D20   D(4,3,7,12)             0.245          estimate D2E/DX2                !
 ! D21   D(3,4,5,6)              0.0637         estimate D2E/DX2                !
 ! D22   D(40,4,5,6)           179.9114         estimate D2E/DX2                !
 ! D23   D(4,5,6,1)             -0.0358         estimate D2E/DX2                !
 ! D24   D(4,5,6,41)           179.9353         estimate D2E/DX2                !
 ! D25   D(3,7,8,9)            179.5605         estimate D2E/DX2                !
 ! D26   D(3,7,8,42)            -0.3623         estimate D2E/DX2                !
 ! D27   D(12,7,8,9)             0.3348         estimate D2E/DX2                !
 ! D28   D(12,7,8,42)         -179.5879         estimate D2E/DX2                !
 ! D29   D(3,7,12,11)         -179.5123         estimate D2E/DX2                !
 ! D30   D(8,7,12,11)           -0.2096         estimate D2E/DX2                !
 ! D31   D(7,8,9,10)            -0.4152         estimate D2E/DX2                !
 ! D32   D(7,8,9,43)           179.8774         estimate D2E/DX2                !
 ! D33   D(42,8,9,10)          179.511          estimate D2E/DX2                !
 ! D34   D(42,8,9,43)           -0.1964         estimate D2E/DX2                !
 ! D35   D(8,9,10,11)            0.3367         estimate D2E/DX2                !
 ! D36   D(43,9,10,11)        -179.9426         estimate D2E/DX2                !
 ! D37   D(9,10,11,12)          -0.1895         estimate D2E/DX2                !
 ! D38   D(9,10,11,13)         179.9975         estimate D2E/DX2                !
 ! D39   D(10,11,12,7)           0.1352         estimate D2E/DX2                !
 ! D40   D(13,11,12,7)         179.9399         estimate D2E/DX2                !
 ! D41   D(10,11,13,14)        103.8737         estimate D2E/DX2                !
 ! D42   D(10,11,13,44)        -82.083          estimate D2E/DX2                !
 ! D43   D(12,11,13,14)        -75.9517         estimate D2E/DX2                !
 ! D44   D(12,11,13,44)         98.0917         estimate D2E/DX2                !
 ! D45   D(11,13,14,15)        163.2294         estimate D2E/DX2                !
 ! D46   D(11,13,14,19)        -16.619          estimate D2E/DX2                !
 ! D47   D(44,13,14,15)        -10.371          estimate D2E/DX2                !
 ! D48   D(44,13,14,19)        169.7807         estimate D2E/DX2                !
 ! D49   D(13,14,15,16)        179.9607         estimate D2E/DX2                !
 ! D50   D(13,14,15,37)         -0.3094         estimate D2E/DX2                !
 ! D51   D(19,14,15,16)         -0.1887         estimate D2E/DX2                !
 ! D52   D(19,14,15,37)        179.5412         estimate D2E/DX2                !
 ! D53   D(13,14,19,18)       -179.9149         estimate D2E/DX2                !
 ! D54   D(13,14,19,47)          0.1227         estimate D2E/DX2                !
 ! D55   D(15,14,19,18)          0.2369         estimate D2E/DX2                !
 ! D56   D(15,14,19,47)       -179.7255         estimate D2E/DX2                !
 ! D57   D(14,15,16,17)          0.2874         estimate D2E/DX2                !
 ! D58   D(14,15,16,45)        179.7479         estimate D2E/DX2                !
 ! D59   D(37,15,16,17)       -179.4538         estimate D2E/DX2                !
 ! D60   D(37,15,16,45)          0.0067         estimate D2E/DX2                !
 ! D61   D(14,15,37,66)         63.9581         estimate D2E/DX2                !
 ! D62   D(14,15,37,67)        -56.1965         estimate D2E/DX2                !
 ! D63   D(14,15,37,68)       -176.0429         estimate D2E/DX2                !
 ! D64   D(16,15,37,66)       -116.3184         estimate D2E/DX2                !
 ! D65   D(16,15,37,67)        123.5271         estimate D2E/DX2                !
 ! D66   D(16,15,37,68)          3.6807         estimate D2E/DX2                !
 ! D67   D(15,16,17,18)         -0.4148         estimate D2E/DX2                !
 ! D68   D(15,16,17,46)        179.2018         estimate D2E/DX2                !
 ! D69   D(45,16,17,18)       -179.8867         estimate D2E/DX2                !
 ! D70   D(45,16,17,46)         -0.2702         estimate D2E/DX2                !
 ! D71   D(16,17,18,19)          0.4347         estimate D2E/DX2                !
 ! D72   D(16,17,18,20)        179.0174         estimate D2E/DX2                !
 ! D73   D(46,17,18,19)       -179.1854         estimate D2E/DX2                !
 ! D74   D(46,17,18,20)         -0.6026         estimate D2E/DX2                !
 ! D75   D(17,18,19,14)         -0.3619         estimate D2E/DX2                !
 ! D76   D(17,18,19,47)        179.5996         estimate D2E/DX2                !
 ! D77   D(20,18,19,14)       -179.0815         estimate D2E/DX2                !
 ! D78   D(20,18,19,47)          0.88           estimate D2E/DX2                !
 ! D79   D(17,18,20,21)         -8.2041         estimate D2E/DX2                !
 ! D80   D(17,18,20,48)        176.9801         estimate D2E/DX2                !
 ! D81   D(19,18,20,21)        170.4292         estimate D2E/DX2                !
 ! D82   D(19,18,20,48)         -4.3865         estimate D2E/DX2                !
 ! D83   D(18,20,21,22)       -168.3678         estimate D2E/DX2                !
 ! D84   D(18,20,21,36)         12.9688         estimate D2E/DX2                !
 ! D85   D(48,20,21,22)          6.4308         estimate D2E/DX2                !
 ! D86   D(48,20,21,36)       -172.2327         estimate D2E/DX2                !
 ! D87   D(20,21,22,23)         35.2876         estimate D2E/DX2                !
 ! D88   D(20,21,22,27)       -145.1687         estimate D2E/DX2                !
 ! D89   D(36,21,22,23)       -146.0091         estimate D2E/DX2                !
 ! D90   D(36,21,22,27)         33.5346         estimate D2E/DX2                !
 ! D91   D(21,22,23,24)       -178.9666         estimate D2E/DX2                !
 ! D92   D(21,22,23,49)          1.4244         estimate D2E/DX2                !
 ! D93   D(27,22,23,24)          1.4922         estimate D2E/DX2                !
 ! D94   D(27,22,23,49)       -178.1167         estimate D2E/DX2                !
 ! D95   D(21,22,27,26)        178.2741         estimate D2E/DX2                !
 ! D96   D(21,22,27,52)         -0.2318         estimate D2E/DX2                !
 ! D97   D(23,22,27,26)         -2.1624         estimate D2E/DX2                !
 ! D98   D(23,22,27,52)        179.3317         estimate D2E/DX2                !
 ! D99   D(22,23,24,25)         -0.1992         estimate D2E/DX2                !
 ! D100  D(22,23,24,50)        179.2898         estimate D2E/DX2                !
 ! D101  D(49,23,24,25)        179.4075         estimate D2E/DX2                !
 ! D102  D(49,23,24,50)         -1.1034         estimate D2E/DX2                !
 ! D103  D(23,24,25,26)         -0.4338         estimate D2E/DX2                !
 ! D104  D(23,24,25,28)        176.9929         estimate D2E/DX2                !
 ! D105  D(50,24,25,26)       -179.9165         estimate D2E/DX2                !
 ! D106  D(50,24,25,28)         -2.4897         estimate D2E/DX2                !
 ! D107  D(24,25,26,27)         -0.247          estimate D2E/DX2                !
 ! D108  D(24,25,26,51)        179.3479         estimate D2E/DX2                !
 ! D109  D(28,25,26,27)       -177.6646         estimate D2E/DX2                !
 ! D110  D(28,25,26,51)          1.9303         estimate D2E/DX2                !
 ! D111  D(24,25,28,29)        -82.9599         estimate D2E/DX2                !
 ! D112  D(24,25,28,53)         39.7491         estimate D2E/DX2                !
 ! D113  D(24,25,28,54)        154.9973         estimate D2E/DX2                !
 ! D114  D(26,25,28,29)         94.3678         estimate D2E/DX2                !
 ! D115  D(26,25,28,53)       -142.9232         estimate D2E/DX2                !
 ! D116  D(26,25,28,54)        -27.675          estimate D2E/DX2                !
 ! D117  D(25,26,27,22)          1.5644         estimate D2E/DX2                !
 ! D118  D(25,26,27,52)       -179.9656         estimate D2E/DX2                !
 ! D119  D(51,26,27,22)       -178.0361         estimate D2E/DX2                !
 ! D120  D(51,26,27,52)          0.4339         estimate D2E/DX2                !
 ! D121  D(25,28,29,30)         74.6101         estimate D2E/DX2                !
 ! D122  D(25,28,29,35)        -64.5708         estimate D2E/DX2                !
 ! D123  D(53,28,29,30)        -48.7036         estimate D2E/DX2                !
 ! D124  D(53,28,29,35)        172.1155         estimate D2E/DX2                !
 ! D125  D(54,28,29,30)       -162.4176         estimate D2E/DX2                !
 ! D126  D(54,28,29,35)         58.4015         estimate D2E/DX2                !
 ! D127  D(28,29,30,31)        -94.0621         estimate D2E/DX2                !
 ! D128  D(28,29,30,55)         34.7607         estimate D2E/DX2                !
 ! D129  D(28,29,30,56)        150.0244         estimate D2E/DX2                !
 ! D130  D(35,29,30,31)         48.2616         estimate D2E/DX2                !
 ! D131  D(35,29,30,55)        177.0845         estimate D2E/DX2                !
 ! D132  D(35,29,30,56)        -67.6518         estimate D2E/DX2                !
 ! D133  D(28,29,35,34)         95.5872         estimate D2E/DX2                !
 ! D134  D(28,29,35,64)       -148.0576         estimate D2E/DX2                !
 ! D135  D(28,29,35,65)        -32.3596         estimate D2E/DX2                !
 ! D136  D(30,29,35,34)        -46.7793         estimate D2E/DX2                !
 ! D137  D(30,29,35,64)         69.5758         estimate D2E/DX2                !
 ! D138  D(30,29,35,65)       -174.7262         estimate D2E/DX2                !
 ! D139  D(29,30,31,32)        -53.6952         estimate D2E/DX2                !
 ! D140  D(29,30,31,57)       -173.4024         estimate D2E/DX2                !
 ! D141  D(29,30,31,58)         69.0547         estimate D2E/DX2                !
 ! D142  D(55,30,31,32)        178.4243         estimate D2E/DX2                !
 ! D143  D(55,30,31,57)         58.7172         estimate D2E/DX2                !
 ! D144  D(55,30,31,58)        -58.8258         estimate D2E/DX2                !
 ! D145  D(56,30,31,32)         63.0036         estimate D2E/DX2                !
 ! D146  D(56,30,31,57)        -56.7036         estimate D2E/DX2                !
 ! D147  D(56,30,31,58)       -174.2466         estimate D2E/DX2                !
 ! D148  D(30,31,32,33)        -81.9773         estimate D2E/DX2                !
 ! D149  D(30,31,32,34)         52.4794         estimate D2E/DX2                !
 ! D150  D(57,31,32,33)         36.8665         estimate D2E/DX2                !
 ! D151  D(57,31,32,34)        171.3232         estimate D2E/DX2                !
 ! D152  D(58,31,32,33)        153.3325         estimate D2E/DX2                !
 ! D153  D(58,31,32,34)        -72.2108         estimate D2E/DX2                !
 ! D154  D(31,32,33,59)         65.6653         estimate D2E/DX2                !
 ! D155  D(31,32,33,60)        -55.0403         estimate D2E/DX2                !
 ! D156  D(31,32,33,61)       -173.7986         estimate D2E/DX2                !
 ! D157  D(34,32,33,59)        -65.4002         estimate D2E/DX2                !
 ! D158  D(34,32,33,60)        173.8943         estimate D2E/DX2                !
 ! D159  D(34,32,33,61)         55.136          estimate D2E/DX2                !
 ! D160  D(31,32,34,35)        -50.7648         estimate D2E/DX2                !
 ! D161  D(31,32,34,62)       -176.4409         estimate D2E/DX2                !
 ! D162  D(31,32,34,63)         67.6836         estimate D2E/DX2                !
 ! D163  D(33,32,34,35)         83.8252         estimate D2E/DX2                !
 ! D164  D(33,32,34,62)        -41.851          estimate D2E/DX2                !
 ! D165  D(33,32,34,63)       -157.7265         estimate D2E/DX2                !
 ! D166  D(32,34,35,29)         50.277          estimate D2E/DX2                !
 ! D167  D(32,34,35,64)        -67.0498         estimate D2E/DX2                !
 ! D168  D(32,34,35,65)        177.5471         estimate D2E/DX2                !
 ! D169  D(62,34,35,29)        175.0172         estimate D2E/DX2                !
 ! D170  D(62,34,35,64)         57.6904         estimate D2E/DX2                !
 ! D171  D(62,34,35,65)        -57.7126         estimate D2E/DX2                !
 ! D172  D(63,34,35,29)        -67.8568         estimate D2E/DX2                !
 ! D173  D(63,34,35,64)        174.8164         estimate D2E/DX2                !
 ! D174  D(63,34,35,65)         59.4133         estimate D2E/DX2                !
 --------------------------------------------------------------------------------
 Trust Radius=3.00D-01 FncErr=1.00D-07 GrdErr=1.00D-06
 Number of steps in this run= 400 maximum allowed number of steps= 408.
 GradGradGradGradGradGradGradGradGradGradGradGradGradGradGradGradGradGrad

 Leave Link  103 at Thu Feb 27 15:04:45 2020, MaxMem= 2684354560 cpu:       0.1
 (Enter /opt/g09gh/gaussian/g09/l202.exe)
 Stoichiometry    C29H31N7O
 Framework group  C1[X(C29H31N7O)]
 Deg. of freedom   198
 Full point group                 C1      NOp   1
 Largest Abelian subgroup         C1      NOp   1
 Largest concise Abelian subgroup C1      NOp   1
                         Standard orientation:                         
 ---------------------------------------------------------------------
 Center     Atomic      Atomic             Coordinates (Angstroms)
 Number     Number       Type             X           Y           Z
 ---------------------------------------------------------------------
      1          6           0       -4.969560   -4.853130   -1.713269
      2          6           0       -4.690973   -4.169906   -0.522272
      3          6           0       -4.682698   -2.760417   -0.503055
      4          6           0       -4.967859   -2.121992   -1.735585
      5          7           0       -5.235371   -2.761044   -2.882300
      6          6           0       -5.234618   -4.101634   -2.862905
      7          6           0       -4.388830   -1.947929    0.732462
      8          6           0       -4.075381   -2.478503    1.996634
      9          6           0       -3.826975   -1.545262    3.009775
     10          7           0       -3.863911   -0.227580    2.838076
     11          6           0       -4.171151    0.181499    1.592801
     12          7           0       -4.428345   -0.612929    0.555218
     13          7           0       -4.206087    1.535835    1.428753
     14          6           0       -3.272512    2.426836    0.813545
     15          6           0       -3.692868    3.741078    0.450517
     16          6           0       -2.735529    4.574184   -0.149335
     17          6           0       -1.417553    4.182999   -0.408126
     18          6           0       -1.020941    2.891273   -0.043330
     19          6           0       -1.953191    2.027837    0.559278
     20          7           0        0.281362    2.334704   -0.257237
     21          6           0        1.361945    2.814326   -0.961603
     22          6           0        2.512377    1.862316   -1.221657
     23          6           0        2.331129    0.491275   -1.466072
     24          6           0        3.432390   -0.340606   -1.677958
     25          6           0        4.746901    0.162356   -1.658065
     26          6           0        4.913061    1.541108   -1.425329
     27          6           0        3.816633    2.383361   -1.226272
     28          6           0        5.949719   -0.767829   -1.823443
     29          7           0        6.455108   -1.491168   -0.642560
     30          6           0        5.686202   -2.646899   -0.129043
     31          6           0        4.689371   -2.298020    1.006086
     32          7           0        5.302626   -1.582261    2.149073
     33          6           0        5.994360   -2.404986    3.148338
     34          6           0        6.042193   -0.401905    1.638230
     35          6           0        7.027093   -0.712168    0.480100
     36          8           0        1.430818    3.967699   -1.354498
     37          6           0       -5.101999    4.262033    0.675366
     38          1           0       -4.982608   -5.938376   -1.751139
     39          1           0       -4.486088   -4.757853    0.369095
     40          1           0       -4.975827   -1.036835   -1.789751
     41          1           0       -5.456695   -4.589721   -3.810474
     42          1           0       -4.018704   -3.538342    2.212134
     43          1           0       -3.579447   -1.878166    4.017181
     44          1           0       -5.095700    1.898166    1.739450
     45          1           0       -3.018344    5.583711   -0.444939
     46          1           0       -0.715710    4.856179   -0.885209
     47          1           0       -1.664739    1.023765    0.841541
     48          1           0        0.400614    1.403043    0.114936
     49          1           0        1.324605    0.081074   -1.495782
     50          1           0        3.259168   -1.402485   -1.853459
     51          1           0        5.913836    1.971131   -1.391020
     52          1           0        3.953020    3.446952   -1.047694
     53          1           0        5.705834   -1.520460   -2.587371
     54          1           0        6.792498   -0.183367   -2.220884
     55          1           0        5.232329   -3.180877   -0.922643
     56          1           0        6.731026   -3.629782    0.523478
     57          1           0        4.127079   -3.601505    1.508929
     58          1           0        3.831881   -1.678439    0.627790
     59          1           0        6.878909   -2.887255    2.717445
     60          1           0        5.320553   -3.179173    3.532519
     61          1           0        6.308752   -1.784550    3.995378
     62          1           0        6.574487    0.119913    2.506794
     63          1           0        5.020832    0.546616    1.107698
     64          1           0        8.158423   -1.606170    1.128713
     65          1           0        7.522419    0.204193    0.103679
     66          1           0       -5.344674    4.313635    1.746217
     67          1           0       -5.850719    3.615367    0.196305
     68          1           0       -5.255633    5.271351    0.269042
 ---------------------------------------------------------------------
 Rotational constants (GHZ):      0.1096639      0.0467782      0.0390991
 Leave Link  202 at Thu Feb 27 15:04:45 2020, MaxMem= 2684354560 cpu:       0.1
 (Enter /opt/g09gh/gaussian/g09/l301.exe)
 Standard basis: 6-31G(d) (6D, 7F)
 Ernie: Thresh=  0.10000D-02 Tol=  0.10000D-05 Strict=F.
 There are   617 symmetry adapted basis functions of A   symmetry.
 Integral buffers will be    131072 words long.
 Raffenetti 2 integral format.
 Two-electron integral symmetry is turned on.
   617 basis functions,  1160 primitive gaussians,   617 cartesian basis functions
   131 alpha electrons      131 beta electrons
       nuclear repulsion energy      3610.4078730194 Hartrees.
 IExCor= 4639 DFT=T Ex+Corr=wB97XD ExCW=0 ScaHFX=  1.000000
 ScaDFX=  1.000000  1.000000  1.000000  1.000000 ScalE2=  1.000000  1.000000
 IRadAn=      0 IRanWt=     -1 IRanGd=            0 ICorTp=0
  HFx wShort=  0.000000 wLong=  0.200000 cFull=  0.222036 cShort=  0.000000 cLong=  0.777964
  DFx wShort=  0.000000 wLong=  0.200000 cFull=  0.000000 cShort=  0.000000 cLong=  1.000000
 NAtoms=   68 NActive=   68 NUniq=   68 SFac= 7.50D-01 NAtFMM=   80 NAOKFM=F Big=T
 R6Disp: Dispersion energy =        -0.0546519108 Hartrees.
 Nuclear repulsion after empirical dispersion term =     3610.3532211087 Hartrees.
 Leave Link  301 at Thu Feb 27 15:04:45 2020, MaxMem= 2684354560 cpu:       0.3
 (Enter /opt/g09gh/gaussian/g09/l302.exe)
 NPDir=0 NMtPBC=     1 NCelOv=     1 NCel=       1 NClECP=     1 NCelD=      1
         NCelK=      1 NCelE2=     1 NClLst=     1 CellRange=     0.0.
 One-electron integrals computed using PRISM.
 NBasis=   617 RedAO= T  NBF=   617
 NBsUse=   617 1.00D-06 NBFU=   617
 Precomputing XC quadrature grid using
 IXCGrd= 2 IRadAn=           0 IRanWt=          -1 IRanGd=           0 AccXCQ= 1.00D-10.
 NRdTot=    4383 NPtTot=      560400 NUsed=      591978 NTot=      592010
 NSgBfM=   598   598   598   598   598 NAtAll=    68    68.
 Leave Link  302 at Thu Feb 27 15:04:46 2020, MaxMem= 2684354560 cpu:       7.6
 (Enter /opt/g09gh/gaussian/g09/l303.exe)
 DipDrv:  MaxL=1.
 Leave Link  303 at Thu Feb 27 15:04:46 2020, MaxMem= 2684354560 cpu:       0.7
 (Enter /opt/g09gh/gaussian/g09/l401.exe)
 Harris functional with IExCor= 4639 diagonalized for initial guess.
 ExpMin= 1.61D-01 ExpMax= 5.48D+03 ExpMxC= 8.25D+02 IAcc=1 IRadAn=         1 AccDes= 0.00D+00
 HarFok:  IExCor= 4639 AccDes= 0.00D+00 IRadAn=         1 IDoV= 1
 ScaDFX=  1.000000  1.000000  1.000000  1.000000
 FoFCou: FMM=F IPFlag=           0 FMFlag=      100000 FMFlg1=           1
         NFxFlg=           0 DoJE=T BraDBF=F KetDBF=T FulRan=T
         Omega=  0.000000  0.000000  1.000000  0.000000  0.000000 ICntrl=     500 IOpCl=  0
         NMat0=    1 NMatS0=    1 NMatT0=    0 NMatD0=    1 NMtDS0=    0 NMtDT0=    0
         I1Cent=           4 NGrid=           0.
 Petite list used in FoFCou.
 Harris En= -1512.36969462062    
 Initial guess orbital symmetries:
       Occupied  (A) (A) (A) (A) (A) (A) (A) (A) (A) (A) (A) (A)
                 (A) (A) (A) (A) (A) (A) (A) (A) (A) (A) (A) (A)
                 (A) (A) (A) (A) (A) (A) (A) (A) (A) (A) (A) (A)
                 (A) (A) (A) (A) (A) (A) (A) (A) (A) (A) (A) (A)
                 (A) (A) (A) (A) (A) (A) (A) (A) (A) (A) (A) (A)
                 (A) (A) (A) (A) (A) (A) (A) (A) (A) (A) (A) (A)
                 (A) (A) (A) (A) (A) (A) (A) (A) (A) (A) (A) (A)
                 (A) (A) (A) (A) (A) (A) (A) (A) (A) (A) (A) (A)
                 (A) (A) (A) (A) (A) (A) (A) (A) (A) (A) (A) (A)
                 (A) (A) (A) (A) (A) (A) (A) (A) (A) (A) (A) (A)
                 (A) (A) (A) (A) (A) (A) (A) (A) (A) (A) (A)
       Virtual   (A) (A) (A) (A) (A) (A) (A) (A) (A) (A) (A) (A)
                 (A) (A) (A) (A) (A) (A) (A) (A) (A) (A) (A) (A)
                 (A) (A) (A) (A) (A) (A) (A) (A) (A) (A) (A) (A)
                 (A) (A) (A) (A) (A) (A) (A) (A) (A) (A) (A) (A)
                 (A) (A) (A) (A) (A) (A) (A) (A) (A) (A) (A) (A)
                 (A) (A) (A) (A) (A) (A) (A) (A) (A) (A) (A) (A)
                 (A) (A) (A) (A) (A) (A) (A) (A) (A) (A) (A) (A)
                 (A) (A) (A) (A) (A) (A) (A) (A) (A) (A) (A) (A)
                 (A) (A) (A) (A) (A) (A) (A) (A) (A) (A) (A) (A)
                 (A) (A) (A) (A) (A) (A) (A) (A) (A) (A) (A) (A)
                 (A) (A) (A) (A) (A) (A) (A) (A) (A) (A) (A) (A)
                 (A) (A) (A) (A) (A) (A) (A) (A) (A) (A) (A) (A)
                 (A) (A) (A) (A) (A) (A) (A) (A) (A) (A) (A) (A)
                 (A) (A) (A) (A) (A) (A) (A) (A) (A) (A) (A) (A)
                 (A) (A) (A) (A) (A) (A) (A) (A) (A) (A) (A) (A)
                 (A) (A) (A) (A) (A) (A) (A) (A) (A) (A) (A) (A)
                 (A) (A) (A) (A) (A) (A) (A) (A) (A) (A) (A) (A)
                 (A) (A) (A) (A) (A) (A) (A) (A) (A) (A) (A) (A)
                 (A) (A) (A) (A) (A) (A) (A) (A) (A) (A) (A) (A)
                 (A) (A) (A) (A) (A) (A) (A) (A) (A) (A) (A) (A)
                 (A) (A) (A) (A) (A) (A) (A) (A) (A) (A) (A) (A)
                 (A) (A) (A) (A) (A) (A) (A) (A) (A) (A) (A) (A)
                 (A) (A) (A) (A) (A) (A) (A) (A) (A) (A) (A) (A)
                 (A) (A) (A) (A) (A) (A) (A) (A) (A) (A) (A) (A)
                 (A) (A) (A) (A) (A) (A) (A) (A) (A) (A) (A) (A)
                 (A) (A) (A) (A) (A) (A) (A) (A) (A) (A) (A) (A)
                 (A) (A) (A) (A) (A) (A) (A) (A) (A) (A) (A) (A)
                 (A) (A) (A) (A) (A) (A) (A) (A) (A) (A) (A) (A)
                 (A) (A) (A) (A) (A) (A) (A) (A) (A) (A) (A) (A)
                 (A) (A) (A) (A) (A) (A) (A) (A) (A) (A) (A) (A)
                 (A) (A) (A) (A) (A) (A) (A) (A) (A) (A) (A) (A)
                 (A) (A) (A) (A) (A) (A) (A) (A) (A) (A) (A) (A)
                 (A) (A) (A) (A) (A) (A) (A) (A) (A) (A) (A) (A)
                 (A) (A) (A) (A) (A) (A) (A) (A) (A) (A) (A) (A)
                 (A) (A) (A) (A) (A) (A) (A) (A) (A) (A) (A) (A)
                 (A) (A) (A) (A) (A) (A) (A) (A) (A) (A) (A) (A)
                 (A) (A) (A) (A) (A) (A) (A) (A) (A) (A) (A) (A)
                 (A) (A) (A) (A) (A) (A) (A) (A) (A) (A) (A) (A)
                 (A) (A) (A) (A) (A) (A) (A) (A) (A) (A) (A) (A)
                 (A) (A) (A) (A) (A) (A) (A) (A) (A) (A) (A) (A)
                 (A) (A) (A) (A) (A) (A)
 The electronic state of the initial guess is 1-A.
 Leave Link  401 at Thu Feb 27 15:04:49 2020, MaxMem= 2684354560 cpu:      13.9
 (Enter /opt/g09gh/gaussian/g09/l502.exe)
 Closed shell SCF:
 Requested convergence on RMS density matrix=1.00D-08 within 128 cycles.
 Requested convergence on MAX density matrix=1.00D-06.
 Requested convergence on             energy=1.00D-06.
 No special actions if energy rises.
 Using DIIS extrapolation, IDIIS=  1040.
 Integral symmetry usage will be decided dynamically.
       591353 words used for storage of precomputed grid.
 IEnd=     1759933 IEndB=     1759933 NGot=  2684354560 MDV=  2682992574
 LenX=  2682992574 LenY=  2682611268
 Fock matrices will be formed incrementally for  20 cycles.
 Integral accuracy reduced to 1.0D-05 until final iterations.

 Cycle   1  Pass 0  IDiag  1:
 FoFJK:  IHMeth= 1 ICntrl=     0 DoSepK=T KAlg= 1 I1Cent= 0 FoldK=F
 FoFCou: FMM=T IPFlag=           0 FMFlag=      100000 FMFlg1=           1
         NFxFlg=           0 DoJE=T BraDBF=F KetDBF=F FulRan=T
         Omega=  0.000000  0.000000  1.000000  0.000000  0.000000 ICntrl=     500 IOpCl=  0
         NMat0=    1 NMatS0=    1 NMatT0=    0 NMatD0=    1 NMtDS0=    0 NMtDT0=    0
         I1Cent=           0 NGrid=           0.
 Symmetry not used in FoFCou.
 FMM levels:  10  Number of levels for PrismC:   9
 E= -1581.14010917664    
 DIIS: error= 6.81D-02 at cycle   1 NSaved=   1.
 NSaved= 1 IEnMin= 1 EnMin= -1581.14010917664     IErMin= 1 ErrMin= 6.81D-02
 ErrMax= 6.81D-02 EMaxC= 1.00D-01 BMatC= 1.45D+00 BMatP= 1.45D+00
 IDIUse=3 WtCom= 3.19D-01 WtEn= 6.81D-01
 Coeff-Com:  0.100D+01
 Coeff-En:   0.100D+01
 Coeff:      0.100D+01
 Gap=     0.268 Goal=   None    Shift=    0.000
 GapD=    0.268 DampG=1.000 DampE=0.500 DampFc=0.5000 IDamp=-1.
 Damping current iteration by 5.00D-01
 RMSDP=1.87D-03 MaxDP=8.86D-02              OVMax= 1.64D-01

 Cycle   2  Pass 0  IDiag  1:
 RMSU=  6.60D-04    CP:  1.00D+00
 FoFJK:  IHMeth= 1 ICntrl=     0 DoSepK=T KAlg= 1 I1Cent= 0 FoldK=F
 E= -1581.31444277381     Delta-E=       -0.174333597174 Rises=F Damp=T
 DIIS: error= 3.44D-02 at cycle   2 NSaved=   2.
 NSaved= 2 IEnMin= 2 EnMin= -1581.31444277381     IErMin= 2 ErrMin= 3.44D-02
 ErrMax= 3.44D-02 EMaxC= 1.00D-01 BMatC= 3.22D-01 BMatP= 1.45D+00
 IDIUse=3 WtCom= 6.56D-01 WtEn= 3.44D-01
 Coeff-Com: -0.677D+00 0.168D+01
 Coeff-En:   0.000D+00 0.100D+01
 Coeff:     -0.444D+00 0.144D+01
 Gap=     0.278 Goal=   None    Shift=    0.000
 RMSDP=8.56D-04 MaxDP=3.76D-02 DE=-1.74D-01 OVMax= 1.09D-01

 Cycle   3  Pass 0  IDiag  1:
 RMSU=  5.33D-04    CP:  1.00D+00  1.43D+00
 FoFJK:  IHMeth= 1 ICntrl=     0 DoSepK=T KAlg= 1 I1Cent= 0 FoldK=F
 E= -1581.45214132345     Delta-E=       -0.137698549638 Rises=F Damp=F
 DIIS: error= 7.86D-03 at cycle   3 NSaved=   3.
 NSaved= 3 IEnMin= 3 EnMin= -1581.45214132345     IErMin= 3 ErrMin= 7.86D-03
 ErrMax= 7.86D-03 EMaxC= 1.00D-01 BMatC= 4.93D-02 BMatP= 3.22D-01
 IDIUse=3 WtCom= 9.21D-01 WtEn= 7.86D-02
 Coeff-Com: -0.349D+00 0.723D+00 0.627D+00
 Coeff-En:   0.000D+00 0.000D+00 0.100D+01
 Coeff:     -0.322D+00 0.666D+00 0.656D+00
 Gap=     0.262 Goal=   None    Shift=    0.000
 RMSDP=4.19D-04 MaxDP=2.57D-02 DE=-1.38D-01 OVMax= 5.45D-02

 Cycle   4  Pass 0  IDiag  1:
 RMSU=  1.39D-04    CP:  1.00D+00  1.69D+00  6.21D-01
 FoFJK:  IHMeth= 1 ICntrl=     0 DoSepK=T KAlg= 1 I1Cent= 0 FoldK=F
 E= -1581.49530223297     Delta-E=       -0.043160909521 Rises=F Damp=F
 DIIS: error= 2.92D-03 at cycle   4 NSaved=   4.
 NSaved= 4 IEnMin= 4 EnMin= -1581.49530223297     IErMin= 4 ErrMin= 2.92D-03
 ErrMax= 2.92D-03 EMaxC= 1.00D-01 BMatC= 3.32D-03 BMatP= 4.93D-02
 IDIUse=3 WtCom= 9.71D-01 WtEn= 2.92D-02
 Coeff-Com: -0.153D+00 0.312D+00 0.349D+00 0.491D+00
 Coeff-En:   0.000D+00 0.000D+00 0.000D+00 0.100D+01
 Coeff:     -0.149D+00 0.303D+00 0.339D+00 0.506D+00
 Gap=     0.256 Goal=   None    Shift=    0.000
 RMSDP=9.59D-05 MaxDP=9.14D-03 DE=-4.32D-02 OVMax= 8.80D-03

 Cycle   5  Pass 0  IDiag  1:
 RMSU=  4.47D-05    CP:  1.00D+00  1.67D+00  6.84D-01  7.33D-01
 FoFJK:  IHMeth= 1 ICntrl=     0 DoSepK=T KAlg= 1 I1Cent= 0 FoldK=F
 E= -1581.49809155430     Delta-E=       -0.002789321328 Rises=F Damp=F
 DIIS: error= 4.81D-04 at cycle   5 NSaved=   5.
 NSaved= 5 IEnMin= 5 EnMin= -1581.49809155430     IErMin= 5 ErrMin= 4.81D-04
 ErrMax= 4.81D-04 EMaxC= 1.00D-01 BMatC= 9.26D-05 BMatP= 3.32D-03
 IDIUse=3 WtCom= 9.95D-01 WtEn= 4.81D-03
 Coeff-Com: -0.162D-01 0.322D-01 0.589D-01 0.173D+00 0.752D+00
 Coeff-En:   0.000D+00 0.000D+00 0.000D+00 0.000D+00 0.100D+01
 Coeff:     -0.161D-01 0.320D-01 0.586D-01 0.172D+00 0.753D+00
 Gap=     0.255 Goal=   None    Shift=    0.000
 RMSDP=2.37D-05 MaxDP=2.51D-03 DE=-2.79D-03 OVMax= 2.55D-03

 Cycle   6  Pass 0  IDiag  1:
 RMSU=  1.31D-05    CP:  1.00D+00  1.68D+00  6.91D-01  7.97D-01  9.72D-01
 FoFJK:  IHMeth= 1 ICntrl=     0 DoSepK=T KAlg= 1 I1Cent= 0 FoldK=F
 E= -1581.49817899298     Delta-E=       -0.000087438679 Rises=F Damp=F
 DIIS: error= 3.57D-04 at cycle   6 NSaved=   6.
 NSaved= 6 IEnMin= 6 EnMin= -1581.49817899298     IErMin= 6 ErrMin= 3.57D-04
 ErrMax= 3.57D-04 EMaxC= 1.00D-01 BMatC= 2.43D-05 BMatP= 9.26D-05
 IDIUse=3 WtCom= 9.96D-01 WtEn= 3.57D-03
 Coeff-Com:  0.212D-01-0.438D-01-0.349D-01-0.111D-01 0.376D+00 0.693D+00
 Coeff-En:   0.000D+00 0.000D+00 0.000D+00 0.000D+00 0.000D+00 0.100D+01
 Coeff:      0.211D-01-0.436D-01-0.347D-01-0.111D-01 0.374D+00 0.694D+00
 Gap=     0.256 Goal=   None    Shift=    0.000
 RMSDP=1.28D-05 MaxDP=7.64D-04 DE=-8.74D-05 OVMax= 1.66D-03

 Cycle   7  Pass 0  IDiag  1:
 RMSU=  5.52D-06    CP:  1.00D+00  1.68D+00  6.95D-01  8.25D-01  1.09D+00
                    CP:  9.22D-01
 FoFJK:  IHMeth= 1 ICntrl=     0 DoSepK=T KAlg= 1 I1Cent= 0 FoldK=F
 E= -1581.49820671066     Delta-E=       -0.000027717676 Rises=F Damp=F
 DIIS: error= 2.78D-05 at cycle   7 NSaved=   7.
 NSaved= 7 IEnMin= 7 EnMin= -1581.49820671066     IErMin= 7 ErrMin= 2.78D-05
 ErrMax= 2.78D-05 EMaxC= 1.00D-01 BMatC= 1.64D-06 BMatP= 2.43D-05
 IDIUse=1 WtCom= 1.00D+00 WtEn= 0.00D+00
 Coeff-Com:  0.901D-02-0.184D-01-0.171D-01-0.216D-01 0.550D-01 0.236D+00
 Coeff-Com:  0.757D+00
 Coeff:      0.901D-02-0.184D-01-0.171D-01-0.216D-01 0.550D-01 0.236D+00
 Coeff:      0.757D+00
 Gap=     0.256 Goal=   None    Shift=    0.000
 RMSDP=4.26D-06 MaxDP=1.86D-04 DE=-2.77D-05 OVMax= 6.21D-04

 Initial convergence to 1.0D-05 achieved.  Increase integral accuracy.
 Cycle   8  Pass 1  IDiag  1:
 FoFJK:  IHMeth= 1 ICntrl=     0 DoSepK=T KAlg= 1 I1Cent= 0 FoldK=F
 E= -1581.49624745343     Delta-E=        0.001959257222 Rises=F Damp=F
 DIIS: error= 9.29D-05 at cycle   1 NSaved=   1.
 NSaved= 1 IEnMin= 1 EnMin= -1581.49624745343     IErMin= 1 ErrMin= 9.29D-05
 ErrMax= 9.29D-05 EMaxC= 1.00D-01 BMatC= 1.21D-05 BMatP= 1.21D-05
 IDIUse=1 WtCom= 1.00D+00 WtEn= 0.00D+00
 Coeff-Com:  0.100D+01
 Coeff:      0.100D+01
 Gap=     0.256 Goal=   None    Shift=    0.000
 RMSDP=4.26D-06 MaxDP=1.86D-04 DE= 1.96D-03 OVMax= 4.24D-04

 Cycle   9  Pass 1  IDiag  1:
 RMSU=  1.38D-05    CP:  1.00D+00
 FoFJK:  IHMeth= 1 ICntrl=     0 DoSepK=T KAlg= 1 I1Cent= 0 FoldK=F
 E= -1581.49625693575     Delta-E=       -0.000009482317 Rises=F Damp=F
 DIIS: error= 3.35D-05 at cycle   2 NSaved=   2.
 NSaved= 2 IEnMin= 2 EnMin= -1581.49625693575     IErMin= 2 ErrMin= 3.35D-05
 ErrMax= 3.35D-05 EMaxC= 1.00D-01 BMatC= 7.30D-07 BMatP= 1.21D-05
 IDIUse=1 WtCom= 1.00D+00 WtEn= 0.00D+00
 Coeff-Com:  0.389D-01 0.961D+00
 Coeff:      0.389D-01 0.961D+00
 Gap=     0.256 Goal=   None    Shift=    0.000
 RMSDP=2.97D-06 MaxDP=2.10D-04 DE=-9.48D-06 OVMax= 3.00D-04

 Cycle  10  Pass 1  IDiag  1:
 RMSU=  2.00D-06    CP:  1.00D+00  1.05D+00
 FoFJK:  IHMeth= 1 ICntrl=     0 DoSepK=T KAlg= 1 I1Cent= 0 FoldK=F
 E= -1581.49625700073     Delta-E=       -0.000000064982 Rises=F Damp=F
 DIIS: error= 5.26D-05 at cycle   3 NSaved=   3.
 NSaved= 3 IEnMin= 3 EnMin= -1581.49625700073     IErMin= 2 ErrMin= 3.35D-05
 ErrMax= 5.26D-05 EMaxC= 1.00D-01 BMatC= 9.01D-07 BMatP= 7.30D-07
 IDIUse=1 WtCom= 1.00D+00 WtEn= 0.00D+00
 Coeff-Com: -0.392D-01 0.542D+00 0.497D+00
 Coeff:     -0.392D-01 0.542D+00 0.497D+00
 Gap=     0.256 Goal=   None    Shift=    0.000
 RMSDP=1.52D-06 MaxDP=1.32D-04 DE=-6.50D-08 OVMax= 1.36D-04

 Cycle  11  Pass 1  IDiag  1:
 RMSU=  6.41D-07    CP:  1.00D+00  1.06D+00  5.79D-01
 FoFJK:  IHMeth= 1 ICntrl=     0 DoSepK=T KAlg= 1 I1Cent= 0 FoldK=F
 E= -1581.49625776499     Delta-E=       -0.000000764261 Rises=F Damp=F
 DIIS: error= 7.60D-06 at cycle   4 NSaved=   4.
 NSaved= 4 IEnMin= 4 EnMin= -1581.49625776499     IErMin= 4 ErrMin= 7.60D-06
 ErrMax= 7.60D-06 EMaxC= 1.00D-01 BMatC= 2.02D-08 BMatP= 7.30D-07
 IDIUse=1 WtCom= 1.00D+00 WtEn= 0.00D+00
 Coeff-Com: -0.166D-01 0.124D+00 0.166D+00 0.726D+00
 Coeff:     -0.166D-01 0.124D+00 0.166D+00 0.726D+00
 Gap=     0.256 Goal=   None    Shift=    0.000
 RMSDP=3.44D-07 MaxDP=3.48D-05 DE=-7.64D-07 OVMax= 4.07D-05

 Cycle  12  Pass 1  IDiag  1:
 RMSU=  2.15D-07    CP:  1.00D+00  1.06D+00  6.32D-01  1.05D+00
 FoFJK:  IHMeth= 1 ICntrl=     0 DoSepK=T KAlg= 1 I1Cent= 0 FoldK=F
 E= -1581.49625778630     Delta-E=       -0.000000021307 Rises=F Damp=F
 DIIS: error= 4.13D-06 at cycle   5 NSaved=   5.
 NSaved= 5 IEnMin= 5 EnMin= -1581.49625778630     IErMin= 5 ErrMin= 4.13D-06
 ErrMax= 4.13D-06 EMaxC= 1.00D-01 BMatC= 4.97D-09 BMatP= 2.02D-08
 IDIUse=1 WtCom= 1.00D+00 WtEn= 0.00D+00
 Coeff-Com: -0.595D-04-0.422D-01-0.179D-01 0.323D+00 0.737D+00
 Coeff:     -0.595D-04-0.422D-01-0.179D-01 0.323D+00 0.737D+00
 Gap=     0.256 Goal=   None    Shift=    0.000
 RMSDP=1.99D-07 MaxDP=1.24D-05 DE=-2.13D-08 OVMax= 2.91D-05

 Cycle  13  Pass 1  IDiag  1:
 RMSU=  9.05D-08    CP:  1.00D+00  1.06D+00  6.51D-01  1.21D+00  9.66D-01
 FoFJK:  IHMeth= 1 ICntrl=     0 DoSepK=T KAlg= 1 I1Cent= 0 FoldK=F
 E= -1581.49625779331     Delta-E=       -0.000000007005 Rises=F Damp=F
 DIIS: error= 6.00D-07 at cycle   6 NSaved=   6.
 NSaved= 6 IEnMin= 6 EnMin= -1581.49625779331     IErMin= 6 ErrMin= 6.00D-07
 ErrMax= 6.00D-07 EMaxC= 1.00D-01 BMatC= 5.09D-10 BMatP= 4.97D-09
 IDIUse=1 WtCom= 1.00D+00 WtEn= 0.00D+00
 Coeff-Com:  0.199D-02-0.288D-01-0.271D-01 0.237D-01 0.257D+00 0.773D+00
 Coeff:      0.199D-02-0.288D-01-0.271D-01 0.237D-01 0.257D+00 0.773D+00
 Gap=     0.256 Goal=   None    Shift=    0.000
 RMSDP=8.28D-08 MaxDP=3.57D-06 DE=-7.00D-09 OVMax= 1.68D-05

 Cycle  14  Pass 1  IDiag  1:
 RMSU=  3.52D-08    CP:  1.00D+00  1.06D+00  6.56D-01  1.26D+00  1.10D+00
                    CP:  1.07D+00
 FoFJK:  IHMeth= 1 ICntrl=     0 DoSepK=T KAlg= 1 I1Cent= 0 FoldK=F
 E= -1581.49625779431     Delta-E=       -0.000000001006 Rises=F Damp=F
 DIIS: error= 3.97D-07 at cycle   7 NSaved=   7.
 NSaved= 7 IEnMin= 7 EnMin= -1581.49625779431     IErMin= 7 ErrMin= 3.97D-07
 ErrMax= 3.97D-07 EMaxC= 1.00D-01 BMatC= 1.15D-10 BMatP= 5.09D-10
 IDIUse=1 WtCom= 1.00D+00 WtEn= 0.00D+00
 Coeff-Com:  0.779D-03-0.300D-02-0.792D-02-0.601D-01-0.497D-01 0.312D+00
 Coeff-Com:  0.808D+00
 Coeff:      0.779D-03-0.300D-02-0.792D-02-0.601D-01-0.497D-01 0.312D+00
 Coeff:      0.808D+00
 Gap=     0.256 Goal=   None    Shift=    0.000
 RMSDP=4.65D-08 MaxDP=1.80D-06 DE=-1.01D-09 OVMax= 8.06D-06

 Cycle  15  Pass 1  IDiag  1:
 RMSU=  1.53D-08    CP:  1.00D+00  1.06D+00  6.60D-01  1.29D+00  1.16D+00
                    CP:  1.27D+00  1.06D+00
 FoFJK:  IHMeth= 1 ICntrl=     0 DoSepK=T KAlg= 1 I1Cent= 0 FoldK=F
 E= -1581.49625779463     Delta-E=       -0.000000000319 Rises=F Damp=F
 DIIS: error= 1.25D-07 at cycle   8 NSaved=   8.
 NSaved= 8 IEnMin= 8 EnMin= -1581.49625779463     IErMin= 8 ErrMin= 1.25D-07
 ErrMax= 1.25D-07 EMaxC= 1.00D-01 BMatC= 1.53D-11 BMatP= 1.15D-10
 IDIUse=1 WtCom= 1.00D+00 WtEn= 0.00D+00
 Coeff-Com: -0.381D-04 0.357D-02 0.161D-02-0.240D-01-0.558D-01-0.114D-01
 Coeff-Com:  0.285D+00 0.801D+00
 Coeff:     -0.381D-04 0.357D-02 0.161D-02-0.240D-01-0.558D-01-0.114D-01
 Coeff:      0.285D+00 0.801D+00
 Gap=     0.256 Goal=   None    Shift=    0.000
 RMSDP=1.70D-08 MaxDP=6.32D-07 DE=-3.19D-10 OVMax= 3.95D-06

 Cycle  16  Pass 1  IDiag  1:
 RMSU=  5.74D-09    CP:  1.00D+00  1.06D+00  6.61D-01  1.30D+00  1.18D+00
                    CP:  1.33D+00  1.23D+00  1.06D+00
 FoFJK:  IHMeth= 1 ICntrl=     0 DoSepK=T KAlg= 1 I1Cent= 0 FoldK=F
 E= -1581.49625779466     Delta-E=       -0.000000000030 Rises=F Damp=F
 DIIS: error= 4.13D-08 at cycle   9 NSaved=   9.
 NSaved= 9 IEnMin= 9 EnMin= -1581.49625779466     IErMin= 9 ErrMin= 4.13D-08
 ErrMax= 4.13D-08 EMaxC= 1.00D-01 BMatC= 2.54D-12 BMatP= 1.53D-11
 IDIUse=1 WtCom= 1.00D+00 WtEn= 0.00D+00
 Coeff-Com: -0.146D-03 0.178D-02 0.200D-02 0.173D-02-0.119D-01-0.610D-01
 Coeff-Com: -0.430D-01 0.268D+00 0.842D+00
 Coeff:     -0.146D-03 0.178D-02 0.200D-02 0.173D-02-0.119D-01-0.610D-01
 Coeff:     -0.430D-01 0.268D+00 0.842D+00
 Gap=     0.256 Goal=   None    Shift=    0.000
 RMSDP=7.22D-09 MaxDP=2.84D-07 DE=-3.00D-11 OVMax= 1.54D-06

 SCF Done:  E(RwB97XD) =  -1581.49625779     A.U. after   16 cycles
             Convg  =    0.7224D-08             -V/T =  2.0108
 KE= 1.564584804492D+03 PE=-1.088913776124D+04 EE= 4.132703477846D+03
 Leave Link  502 at Thu Feb 27 15:07:12 2020, MaxMem= 2684354560 cpu:     855.5
 (Enter /opt/g09gh/gaussian/g09/l601.exe)
 Copying SCF densities to generalized density rwf, IOpCl= 0 IROHF=0.

 **********************************************************************

            Population analysis using the SCF density.

 **********************************************************************

 Orbital symmetries:
       Occupied  (A) (A) (A) (A) (A) (A) (A) (A) (A) (A) (A) (A)
                 (A) (A) (A) (A) (A) (A) (A) (A) (A) (A) (A) (A)
                 (A) (A) (A) (A) (A) (A) (A) (A) (A) (A) (A) (A)
                 (A) (A) (A) (A) (A) (A) (A) (A) (A) (A) (A) (A)
                 (A) (A) (A) (A) (A) (A) (A) (A) (A) (A) (A) (A)
                 (A) (A) (A) (A) (A) (A) (A) (A) (A) (A) (A) (A)
                 (A) (A) (A) (A) (A) (A) (A) (A) (A) (A) (A) (A)
                 (A) (A) (A) (A) (A) (A) (A) (A) (A) (A) (A) (A)
                 (A) (A) (A) (A) (A) (A) (A) (A) (A) (A) (A) (A)
                 (A) (A) (A) (A) (A) (A) (A) (A) (A) (A) (A) (A)
                 (A) (A) (A) (A) (A) (A) (A) (A) (A) (A) (A)
       Virtual   (A) (A) (A) (A) (A) (A) (A) (A) (A) (A) (A) (A)
                 (A) (A) (A) (A) (A) (A) (A) (A) (A) (A) (A) (A)
                 (A) (A) (A) (A) (A) (A) (A) (A) (A) (A) (A) (A)
                 (A) (A) (A) (A) (A) (A) (A) (A) (A) (A) (A) (A)
                 (A) (A) (A) (A) (A) (A) (A) (A) (A) (A) (A) (A)
                 (A) (A) (A) (A) (A) (A) (A) (A) (A) (A) (A) (A)
                 (A) (A) (A) (A) (A) (A) (A) (A) (A) (A) (A) (A)
                 (A) (A) (A) (A) (A) (A) (A) (A) (A) (A) (A) (A)
                 (A) (A) (A) (A) (A) (A) (A) (A) (A) (A) (A) (A)
                 (A) (A) (A) (A) (A) (A) (A) (A) (A) (A) (A) (A)
                 (A) (A) (A) (A) (A) (A) (A) (A) (A) (A) (A) (A)
                 (A) (A) (A) (A) (A) (A) (A) (A) (A) (A) (A) (A)
                 (A) (A) (A) (A) (A) (A) (A) (A) (A) (A) (A) (A)
                 (A) (A) (A) (A) (A) (A) (A) (A) (A) (A) (A) (A)
                 (A) (A) (A) (A) (A) (A) (A) (A) (A) (A) (A) (A)
                 (A) (A) (A) (A) (A) (A) (A) (A) (A) (A) (A) (A)
                 (A) (A) (A) (A) (A) (A) (A) (A) (A) (A) (A) (A)
                 (A) (A) (A) (A) (A) (A) (A) (A) (A) (A) (A) (A)
                 (A) (A) (A) (A) (A) (A) (A) (A) (A) (A) (A) (A)
                 (A) (A) (A) (A) (A) (A) (A) (A) (A) (A) (A) (A)
                 (A) (A) (A) (A) (A) (A) (A) (A) (A) (A) (A) (A)
                 (A) (A) (A) (A) (A) (A) (A) (A) (A) (A) (A) (A)
                 (A) (A) (A) (A) (A) (A) (A) (A) (A) (A) (A) (A)
                 (A) (A) (A) (A) (A) (A) (A) (A) (A) (A) (A) (A)
                 (A) (A) (A) (A) (A) (A) (A) (A) (A) (A) (A) (A)
                 (A) (A) (A) (A) (A) (A) (A) (A) (A) (A) (A) (A)
                 (A) (A) (A) (A) (A) (A) (A) (A) (A) (A) (A) (A)
                 (A) (A) (A) (A) (A) (A) (A) (A) (A) (A) (A) (A)
                 (A) (A) (A) (A) (A) (A) (A) (A) (A) (A) (A) (A)
                 (A) (A) (A) (A) (A) (A) (A) (A) (A) (A) (A) (A)
                 (A) (A) (A) (A) (A) (A) (A) (A) (A) (A) (A) (A)
                 (A) (A) (A) (A) (A) (A) (A) (A) (A) (A) (A) (A)
                 (A) (A) (A) (A) (A) (A) (A) (A) (A) (A) (A) (A)
                 (A) (A) (A) (A) (A) (A) (A) (A) (A) (A) (A) (A)
                 (A) (A) (A) (A) (A) (A) (A) (A) (A) (A) (A) (A)
                 (A) (A) (A) (A) (A) (A) (A) (A) (A) (A) (A) (A)
                 (A) (A) (A) (A) (A) (A) (A) (A) (A) (A) (A) (A)
                 (A) (A) (A) (A) (A) (A) (A) (A) (A) (A) (A) (A)
                 (A) (A) (A) (A) (A) (A) (A) (A) (A) (A) (A) (A)
                 (A) (A) (A) (A) (A) (A) (A) (A) (A) (A) (A) (A)
                 (A) (A) (A) (A) (A) (A)
 The electronic state is 1-A.
 Alpha  occ. eigenvalues --  -19.23712 -14.49159 -14.46936 -14.46824 -14.46566
 Alpha  occ. eigenvalues --  -14.46559 -14.45827 -14.44925 -10.41289 -10.40880
 Alpha  occ. eigenvalues --  -10.38498 -10.36782 -10.36615 -10.36224 -10.36155
 Alpha  occ. eigenvalues --  -10.36091 -10.35337 -10.34885 -10.34837 -10.34643
 Alpha  occ. eigenvalues --  -10.34537 -10.34105 -10.33874 -10.33589 -10.32560
 Alpha  occ. eigenvalues --  -10.32485 -10.32450 -10.32227 -10.31794 -10.31603
 Alpha  occ. eigenvalues --  -10.31538 -10.31171 -10.30485 -10.29810 -10.29768
 Alpha  occ. eigenvalues --  -10.29647 -10.28419  -1.13852  -1.11915  -1.05036
 Alpha  occ. eigenvalues --   -1.03830  -1.03579  -1.02890  -1.00629  -0.99832
 Alpha  occ. eigenvalues --   -0.96694  -0.94275  -0.92215  -0.89370  -0.88357
 Alpha  occ. eigenvalues --   -0.86961  -0.86222  -0.85614  -0.84107  -0.83445
 Alpha  occ. eigenvalues --   -0.82273  -0.79382  -0.78062  -0.77781  -0.76134
 Alpha  occ. eigenvalues --   -0.73045  -0.72894  -0.72185  -0.72090  -0.71171
 Alpha  occ. eigenvalues --   -0.70683  -0.69565  -0.68536  -0.66370  -0.64625
 Alpha  occ. eigenvalues --   -0.63373  -0.62635  -0.61947  -0.61321  -0.61208
 Alpha  occ. eigenvalues --   -0.58909  -0.58703  -0.57080  -0.56950  -0.56455
 Alpha  occ. eigenvalues --   -0.56107  -0.55503  -0.54878  -0.54497  -0.53638
 Alpha  occ. eigenvalues --   -0.53228  -0.53129  -0.52421  -0.52084  -0.51800
 Alpha  occ. eigenvalues --   -0.51613  -0.51449  -0.51405  -0.50708  -0.50473
 Alpha  occ. eigenvalues --   -0.50145  -0.49890  -0.49685  -0.49224  -0.48546
 Alpha  occ. eigenvalues --   -0.47507  -0.46999  -0.46629  -0.46406  -0.45982
 Alpha  occ. eigenvalues --   -0.45401  -0.44766  -0.44469  -0.44056  -0.43417
 Alpha  occ. eigenvalues --   -0.42910  -0.42793  -0.42112  -0.40688  -0.40572
 Alpha  occ. eigenvalues --   -0.40022  -0.38336  -0.38140  -0.36660  -0.36114
 Alpha  occ. eigenvalues --   -0.35982  -0.35158  -0.34237  -0.33695  -0.33577
 Alpha  occ. eigenvalues --   -0.33196  -0.32533  -0.31511  -0.29302  -0.26870
 Alpha  occ. eigenvalues --   -0.26405
 Alpha virt. eigenvalues --   -0.00835   0.02299   0.02480   0.04422   0.05156
 Alpha virt. eigenvalues --    0.07431   0.07657   0.07846   0.08700   0.09704
 Alpha virt. eigenvalues --    0.11900   0.13280   0.13982   0.15633   0.15846
 Alpha virt. eigenvalues --    0.16158   0.16886   0.18400   0.18645   0.18982
 Alpha virt. eigenvalues --    0.19362   0.19922   0.20223   0.21622   0.21716
 Alpha virt. eigenvalues --    0.22649   0.22793   0.23284   0.23363   0.23535
 Alpha virt. eigenvalues --    0.23867   0.24288   0.24402   0.24788   0.24869
 Alpha virt. eigenvalues --    0.24974   0.25566   0.25917   0.26105   0.26538
 Alpha virt. eigenvalues --    0.27397   0.27583   0.28147   0.28230   0.28510
 Alpha virt. eigenvalues --    0.28925   0.29132   0.29712   0.30777   0.30855
 Alpha virt. eigenvalues --    0.31592   0.31986   0.32132   0.32628   0.33096
 Alpha virt. eigenvalues --    0.33508   0.34077   0.35336   0.36036   0.37403
 Alpha virt. eigenvalues --    0.37602   0.37701   0.38171   0.39212   0.39263
 Alpha virt. eigenvalues --    0.39598   0.40284   0.41288   0.41516   0.41825
 Alpha virt. eigenvalues --    0.42670   0.42913   0.45111   0.46907   0.48030
 Alpha virt. eigenvalues --    0.48665   0.49927   0.51165   0.52141   0.53477
 Alpha virt. eigenvalues --    0.55118   0.56452   0.56843   0.57559   0.57976
 Alpha virt. eigenvalues --    0.58738   0.59083   0.59182   0.59551   0.59741
 Alpha virt. eigenvalues --    0.60314   0.60983   0.61179   0.61439   0.62074
 Alpha virt. eigenvalues --    0.62377   0.62597   0.63312   0.63723   0.63931
 Alpha virt. eigenvalues --    0.64164   0.64450   0.64912   0.65116   0.65489
 Alpha virt. eigenvalues --    0.65639   0.65875   0.66052   0.66192   0.66339
 Alpha virt. eigenvalues --    0.66383   0.66940   0.67231   0.67794   0.68226
 Alpha virt. eigenvalues --    0.68804   0.68856   0.69170   0.69791   0.70002
 Alpha virt. eigenvalues --    0.70400   0.70839   0.71095   0.71262   0.71952
 Alpha virt. eigenvalues --    0.72391   0.72607   0.72784   0.73226   0.73582
 Alpha virt. eigenvalues --    0.74135   0.74814   0.75415   0.76052   0.76832
 Alpha virt. eigenvalues --    0.77007   0.77206   0.77456   0.78896   0.80135
 Alpha virt. eigenvalues --    0.80926   0.81037   0.81539   0.82013   0.82351
 Alpha virt. eigenvalues --    0.82954   0.84309   0.84610   0.84707   0.85225
 Alpha virt. eigenvalues --    0.86697   0.87029   0.87374   0.87664   0.88201
 Alpha virt. eigenvalues --    0.88547   0.88832   0.89473   0.90264   0.90635
 Alpha virt. eigenvalues --    0.91266   0.91472   0.91809   0.91981   0.92081
 Alpha virt. eigenvalues --    0.92626   0.92730   0.93144   0.93679   0.93822
 Alpha virt. eigenvalues --    0.94395   0.94517   0.94732   0.95044   0.95159
 Alpha virt. eigenvalues --    0.95516   0.95838   0.96518   0.96815   0.97188
 Alpha virt. eigenvalues --    0.97591   0.97711   0.99260   0.99379   0.99696
 Alpha virt. eigenvalues --    1.00031   1.00472   1.00542   1.00665   1.00984
 Alpha virt. eigenvalues --    1.02269   1.02555   1.03238   1.04160   1.04541
 Alpha virt. eigenvalues --    1.04871   1.06056   1.06598   1.06704   1.07362
[...]
                 (A) (A) (A) (A) (A) (A) (A) (A) (A) (A) (A) (A)
                 (A) (A) (A) (A) (A) (A) (A) (A) (A) (A) (A) (A)
                 (A) (A) (A) (A) (A) (A) (A) (A) (A) (A) (A) (A)
                 (A) (A) (A) (A) (A) (A) (A) (A) (A) (A) (A) (A)
                 (A) (A) (A) (A) (A) (A) (A) (A) (A) (A) (A) (A)
                 (A) (A) (A) (A) (A) (A) (A) (A) (A) (A) (A) (A)
                 (A) (A) (A) (A) (A) (A) (A) (A) (A) (A) (A) (A)
                 (A) (A) (A) (A) (A) (A) (A) (A) (A) (A) (A) (A)
                 (A) (A) (A) (A) (A) (A) (A) (A) (A) (A) (A) (A)
                 (A) (A) (A) (A) (A) (A) (A) (A) (A) (A) (A) (A)
                 (A) (A) (A) (A) (A) (A) (A) (A) (A) (A) (A) (A)
                 (A) (A) (A) (A) (A) (A) (A) (A) (A) (A) (A) (A)
                 (A) (A) (A) (A) (A) (A) (A) (A) (A) (A) (A) (A)
                 (A) (A) (A) (A) (A) (A) (A) (A) (A) (A) (A) (A)
                 (A) (A) (A) (A) (A) (A) (A) (A) (A) (A) (A) (A)
                 (A) (A) (A) (A) (A) (A) (A) (A) (A) (A) (A) (A)
                 (A) (A) (A) (A) (A) (A) (A) (A) (A) (A) (A) (A)
                 (A) (A) (A) (A) (A) (A) (A) (A) (A) (A) (A) (A)
                 (A) (A) (A) (A) (A) (A) (A) (A) (A) (A) (A) (A)
                 (A) (A) (A) (A) (A) (A) (A) (A) (A) (A) (A) (A)
                 (A) (A) (A) (A) (A) (A) (A) (A) (A) (A) (A) (A)
                 (A) (A) (A) (A) (A) (A) (A) (A) (A) (A) (A) (A)
                 (A) (A) (A) (A) (A) (A) (A) (A) (A) (A) (A) (A)
                 (A) (A) (A) (A) (A) (A) (A) (A) (A) (A) (A) (A)
                 (A) (A) (A) (A) (A) (A) (A) (A) (A) (A) (A) (A)
                 (A) (A) (A) (A) (A) (A) (A) (A) (A) (A) (A) (A)
                 (A) (A) (A) (A) (A) (A) (A) (A) (A) (A) (A) (A)
                 (A) (A) (A) (A) (A) (A) (A) (A) (A) (A) (A) (A)
                 (A) (A) (A) (A) (A) (A) (A) (A) (A) (A) (A) (A)
                 (A) (A) (A) (A) (A) (A) (A) (A) (A) (A) (A) (A)
                 (A) (A) (A) (A) (A) (A) (A) (A) (A) (A) (A) (A)
                 (A) (A) (A) (A) (A) (A) (A) (A) (A) (A) (A) (A)
                 (A) (A) (A) (A) (A) (A)
 The electronic state is 1-A.
 Alpha  occ. eigenvalues --  -19.23411 -14.49282 -14.48321 -14.46751 -14.46096
 Alpha  occ. eigenvalues --  -14.45764 -14.43616 -14.43135 -10.41778 -10.40081
 Alpha  occ. eigenvalues --  -10.37615 -10.36338 -10.35325 -10.35084 -10.34623
 Alpha  occ. eigenvalues --  -10.34135 -10.34016 -10.33622 -10.32863 -10.32367
 Alpha  occ. eigenvalues --  -10.31860 -10.31492 -10.31179 -10.30936 -10.30708
 Alpha  occ. eigenvalues --  -10.30688 -10.30677 -10.30586 -10.30533 -10.30403
 Alpha  occ. eigenvalues --  -10.30377 -10.30220 -10.30020 -10.29974 -10.29575
 Alpha  occ. eigenvalues --  -10.28740 -10.28405  -1.13443  -1.12295  -1.06322
 Alpha  occ. eigenvalues --   -1.04565  -1.03829  -1.03634  -1.00715  -0.99558
 Alpha  occ. eigenvalues --   -0.96086  -0.94671  -0.93098  -0.89777  -0.88124
 Alpha  occ. eigenvalues --   -0.87388  -0.86228  -0.85399  -0.84542  -0.83783
 Alpha  occ. eigenvalues --   -0.81888  -0.79581  -0.78270  -0.77798  -0.76320
 Alpha  occ. eigenvalues --   -0.73881  -0.73301  -0.73025  -0.72621  -0.70870
 Alpha  occ. eigenvalues --   -0.70314  -0.69615  -0.68039  -0.66413  -0.65150
 Alpha  occ. eigenvalues --   -0.63656  -0.63408  -0.62228  -0.61762  -0.60211
 Alpha  occ. eigenvalues --   -0.58848  -0.58045  -0.57570  -0.56611  -0.56101
 Alpha  occ. eigenvalues --   -0.55817  -0.55236  -0.55134  -0.54965  -0.54255
 Alpha  occ. eigenvalues --   -0.53867  -0.53239  -0.53154  -0.52612  -0.52174
 Alpha  occ. eigenvalues --   -0.51912  -0.51510  -0.51370  -0.50999  -0.50575
 Alpha  occ. eigenvalues --   -0.50365  -0.50116  -0.49974  -0.49497  -0.48335
 Alpha  occ. eigenvalues --   -0.47217  -0.46906  -0.46619  -0.46319  -0.46211
 Alpha  occ. eigenvalues --   -0.45762  -0.45235  -0.44798  -0.44045  -0.43932
 Alpha  occ. eigenvalues --   -0.43328  -0.43016  -0.42141  -0.41766  -0.41439
 Alpha  occ. eigenvalues --   -0.40964  -0.40776  -0.39912  -0.38187  -0.37592
 Alpha  occ. eigenvalues --   -0.35821  -0.35293  -0.34001  -0.33447  -0.33373
 Alpha  occ. eigenvalues --   -0.32818  -0.31904  -0.30772  -0.29115  -0.27080
 Alpha  occ. eigenvalues --   -0.24996
 Alpha virt. eigenvalues --   -0.00292   0.02872   0.03586   0.04480   0.06433
 Alpha virt. eigenvalues --    0.07258   0.08204   0.10371   0.13887   0.14814
 Alpha virt. eigenvalues --    0.15728   0.16386   0.17252   0.17441   0.18251
 Alpha virt. eigenvalues --    0.19198   0.19759   0.20074   0.20198   0.20629
 Alpha virt. eigenvalues --    0.21234   0.21900   0.22614   0.22766   0.23135
 Alpha virt. eigenvalues --    0.23343   0.23537   0.24192   0.24361   0.24839
 Alpha virt. eigenvalues --    0.25118   0.25125   0.26082   0.26488   0.26550
 Alpha virt. eigenvalues --    0.27066   0.27431   0.27680   0.27996   0.28429
 Alpha virt. eigenvalues --    0.28564   0.28864   0.29437   0.29708   0.30282
 Alpha virt. eigenvalues --    0.31015   0.31165   0.31764   0.32124   0.32246
 Alpha virt. eigenvalues --    0.32892   0.33214   0.33675   0.33955   0.34428
 Alpha virt. eigenvalues --    0.35001   0.36036   0.36538   0.37755   0.38123
 Alpha virt. eigenvalues --    0.38651   0.38809   0.39299   0.40138   0.40739
 Alpha virt. eigenvalues --    0.41234   0.41464   0.42063   0.42207   0.42713
 Alpha virt. eigenvalues --    0.43814   0.45043   0.46208   0.47058   0.47330
 Alpha virt. eigenvalues --    0.48355   0.49428   0.51937   0.53014   0.54230
 Alpha virt. eigenvalues --    0.55739   0.56536   0.57256   0.57912   0.58309
 Alpha virt. eigenvalues --    0.59048   0.59371   0.59611   0.60510   0.60897
 Alpha virt. eigenvalues --    0.61370   0.61485   0.61680   0.62222   0.62698
 Alpha virt. eigenvalues --    0.63200   0.63355   0.63864   0.64090   0.64889
 Alpha virt. eigenvalues --    0.64932   0.65336   0.65508   0.65529   0.65821
 Alpha virt. eigenvalues --    0.66022   0.66272   0.66897   0.66982   0.67472
 Alpha virt. eigenvalues --    0.67615   0.67787   0.68307   0.68614   0.69045
 Alpha virt. eigenvalues --    0.69766   0.70018   0.70550   0.71042   0.71240
 Alpha virt. eigenvalues --    0.71763   0.72092   0.72268   0.72585   0.73055
 Alpha virt. eigenvalues --    0.73334   0.73462   0.74255   0.75226   0.75349
 Alpha virt. eigenvalues --    0.75594   0.75945   0.76256   0.76932   0.77677
 Alpha virt. eigenvalues --    0.77802   0.79111   0.80382   0.80455   0.81763
 Alpha virt. eigenvalues --    0.81971   0.82305   0.83130   0.83262   0.84195
 Alpha virt. eigenvalues --    0.84654   0.85716   0.86629   0.86888   0.87422
 Alpha virt. eigenvalues --    0.88279   0.89046   0.89674   0.90199   0.90738
 Alpha virt. eigenvalues --    0.90924   0.91157   0.91468   0.92209   0.92295
 Alpha virt. eigenvalues --    0.92393   0.92543   0.93563   0.93885   0.94046
 Alpha virt. eigenvalues --    0.94341   0.94529   0.94676   0.95250   0.95604
 Alpha virt. eigenvalues --    0.95949   0.96540   0.97598   0.98197   0.98359
 Alpha virt. eigenvalues --    0.98516   0.99008   0.99058   0.99701   0.99825
 Alpha virt. eigenvalues --    1.00450   1.00624   1.01372   1.01926   1.02022
 Alpha virt. eigenvalues --    1.02501   1.02651   1.03218   1.03673   1.04408
 Alpha virt. eigenvalues --    1.05621   1.05881   1.06646   1.06767   1.07380
 Alpha virt. eigenvalues --    1.07618   1.08219   1.08749   1.08901   1.09056
 Alpha virt. eigenvalues --    1.10208   1.10699   1.11027   1.11714   1.12088
 Alpha virt. eigenvalues --    1.12635   1.13094   1.13793   1.14265   1.15632
 Alpha virt. eigenvalues --    1.16461   1.16987   1.17694   1.18300   1.19273
 Alpha virt. eigenvalues --    1.20081   1.21180   1.21738   1.23134   1.23418
 Alpha virt. eigenvalues --    1.24744   1.25514   1.26099   1.26962   1.27423
 Alpha virt. eigenvalues --    1.29017   1.29353   1.29703   1.30410   1.30873
 Alpha virt. eigenvalues --    1.31926   1.33068   1.33761   1.33901   1.34764
 Alpha virt. eigenvalues --    1.35490   1.36942   1.37300   1.37889   1.38645
 Alpha virt. eigenvalues --    1.39296   1.42346   1.43368   1.43715   1.44584
 Alpha virt. eigenvalues --    1.46485   1.47299   1.47751   1.48440   1.48546
 Alpha virt. eigenvalues --    1.48648   1.49180   1.49465   1.50258   1.51634
 Alpha virt. eigenvalues --    1.51970   1.52736   1.53659   1.54082   1.54530
 Alpha virt. eigenvalues --    1.55183   1.55560   1.56282   1.56871   1.56982
 Alpha virt. eigenvalues --    1.57523   1.57807   1.58456   1.59180   1.59302
 Alpha virt. eigenvalues --    1.59659   1.60104   1.60821   1.61985   1.62520
 Alpha virt. eigenvalues --    1.63913   1.64942   1.65123   1.65691   1.67669
 Alpha virt. eigenvalues --    1.68408   1.69749   1.72014   1.75169   1.76229
 Alpha virt. eigenvalues --    1.78748   1.80597   1.81507   1.82526   1.84277
 Alpha virt. eigenvalues --    1.84719   1.85643   1.86429   1.86958   1.87887
 Alpha virt. eigenvalues --    1.87957   1.88947   1.89941   1.90638   1.90826
 Alpha virt. eigenvalues --    1.91214   1.92461   1.92803   1.93434   1.94262
 Alpha virt. eigenvalues --    1.94426   1.94936   1.95569   1.96613   1.97941
 Alpha virt. eigenvalues --    1.98716   1.99603   2.00122   2.00240   2.01198
 Alpha virt. eigenvalues --    2.01311   2.01499   2.01783   2.02573   2.03678
 Alpha virt. eigenvalues --    2.05537   2.06500   2.06637   2.07325   2.08211
 Alpha virt. eigenvalues --    2.08612   2.08851   2.09735   2.10837   2.11394
 Alpha virt. eigenvalues --    2.12240   2.12580   2.13555   2.14167   2.14817
 Alpha virt. eigenvalues --    2.15878   2.16188   2.17688   2.19549   2.20432
 Alpha virt. eigenvalues --    2.21104   2.21284   2.21688   2.22413   2.22784
 Alpha virt. eigenvalues --    2.22977   2.23632   2.23942   2.24603   2.25134
 Alpha virt. eigenvalues --    2.25945   2.26147   2.26370   2.26888   2.28050
 Alpha virt. eigenvalues --    2.28544   2.29387   2.29952   2.31589   2.32594
 Alpha virt. eigenvalues --    2.34099   2.34928   2.36375   2.37132   2.37171
 Alpha virt. eigenvalues --    2.37913   2.38059   2.38212   2.39475   2.39887
 Alpha virt. eigenvalues --    2.40252   2.40812   2.42121   2.42800   2.43234
 Alpha virt. eigenvalues --    2.43390   2.44334   2.44771   2.44890   2.46221
 Alpha virt. eigenvalues --    2.46452   2.47885   2.48103   2.49415   2.49811
 Alpha virt. eigenvalues --    2.50305   2.50933   2.52051   2.53872   2.56002
 Alpha virt. eigenvalues --    2.58455   2.59877   2.60856   2.62124   2.63398
 Alpha virt. eigenvalues --    2.64709   2.65081   2.65953   2.66089   2.67626
 Alpha virt. eigenvalues --    2.68704   2.70008   2.71801   2.72055   2.72666
 Alpha virt. eigenvalues --    2.74011   2.74385   2.75463   2.76174   2.76865
 Alpha virt. eigenvalues --    2.77168   2.78480   2.78949   2.80938   2.81729
 Alpha virt. eigenvalues --    2.82745   2.83150   2.83723   2.84482   2.85526
 Alpha virt. eigenvalues --    2.86030   2.86478   2.87314   2.88412   2.89256
 Alpha virt. eigenvalues --    2.89962   2.91946   2.92699   2.93388   2.94567
 Alpha virt. eigenvalues --    2.94833   2.96132   2.97873   3.01370   3.02992
 Alpha virt. eigenvalues --    3.04141   3.06693   3.09290   3.10084   3.12017
 Alpha virt. eigenvalues --    3.18948   3.26897   3.29151   3.39173   3.41512
 Alpha virt. eigenvalues --    3.45038   3.53455   3.56406   3.57587   4.12660
 Alpha virt. eigenvalues --    4.13540   4.15201   4.16852   4.18260   4.19134
 Alpha virt. eigenvalues --    4.19562   4.20447   4.21989   4.23544   4.25287
 Alpha virt. eigenvalues --    4.26034   4.27472   4.28698   4.30759   4.31718
 Alpha virt. eigenvalues --    4.33381   4.34588   4.36933   4.40132   4.40369
 Alpha virt. eigenvalues --    4.41611   4.44510   4.46128   4.49149   4.49437
 Alpha virt. eigenvalues --    4.49746   4.52845   4.57341   4.60739   4.61923
 Alpha virt. eigenvalues --    4.64161   4.67476   4.69410   4.79023   4.85076
 Alpha virt. eigenvalues --    4.89517
          Condensed to atoms (all electrons):
 Mulliken atomic charges:
              1
     1  C   -0.197841
     2  C   -0.154403
     3  C    0.035509
     4  C    0.009580
     5  N   -0.437522
     6  C    0.035729
     7  C    0.295151
     8  C   -0.254767
     9  C    0.049020
    10  N   -0.493036
    11  C    0.714351
    12  N   -0.568396
    13  N   -0.802035
    14  C    0.291459
    15  C    0.119867
    16  C   -0.240381
    17  C   -0.191301
    18  C    0.358132
    19  C   -0.269678
    20  N   -0.757955
    21  C    0.585720
    22  C    0.015196
    23  C   -0.205351
    24  C   -0.217895
    25  C    0.155963
    26  C   -0.223078
    27  C   -0.178382
    28  C   -0.263562
    29  N   -0.382224
    30  C   -0.183897
    31  C   -0.181777
    32  N   -0.385713
    33  C   -0.349278
    34  C   -0.182634
    35  C   -0.186520
    36  O   -0.513273
    37  C   -0.607366
    38  H    0.186140
    39  H    0.186726
    40  H    0.198122
    41  H    0.179046
    42  H    0.180745
    43  H    0.189489
    44  H    0.369211
    45  H    0.160820
    46  H    0.213084
    47  H    0.199363
    48  H    0.361556
    49  H    0.185462
    50  H    0.172060
    51  H    0.163617
    52  H    0.195606
    53  H    0.170282
    54  H    0.168920
    55  H    0.148153
    56  H    0.158358
    57  H    0.141659
    58  H    0.174886
    59  H    0.135271
    60  H    0.164120
    61  H    0.167873
    62  H    0.153489
    63  H    0.172926
    64  H    0.159408
    65  H    0.154994
    66  H    0.178038
    67  H    0.182744
    68  H    0.190419
 Sum of Mulliken atomic charges =   0.00000
 Mulliken charges with hydrogens summed into heavy atoms:
              1
     1  C   -0.011701
     2  C    0.032323
     3  C    0.035509
     4  C    0.207702
     5  N   -0.437522
     6  C    0.214775
     7  C    0.295151
     8  C   -0.074022
     9  C    0.238510
    10  N   -0.493036
    11  C    0.714351
    12  N   -0.568396
    13  N   -0.432824
    14  C    0.291459
    15  C    0.119867
    16  C   -0.079561
    17  C    0.021783
    18  C    0.358132
    19  C   -0.070315
    20  N   -0.396400
    21  C    0.585720
    22  C    0.015196
    23  C   -0.019889
    24  C   -0.045835
    25  C    0.155963
    26  C   -0.059461
    27  C    0.017224
    28  C    0.075641
    29  N   -0.382224
    30  C    0.122613
    31  C    0.134768
    32  N   -0.385713
    33  C    0.117986
    34  C    0.143781
    35  C    0.127882
    36  O   -0.513273
    37  C   -0.056165
 Sum of Mulliken charges with hydrogens summed into heavy atoms =   0.00000
 Electronic spatial extent (au):  <R**2>=          21211.5863
 Charge=              0.0000 electrons
 Dipole moment (field-independent basis, Debye):
    X=              0.5801    Y=              6.5718    Z=              0.4333  Tot=              6.6115
 Quadrupole moment (field-independent basis, Debye-Ang):
   XX=           -193.2971   YY=           -202.5052   ZZ=           -220.4857
   XY=              3.1065   XZ=             -1.2821   YZ=             -5.2209
 Traceless Quadrupole moment (field-independent basis, Debye-Ang):
   XX=             12.1322   YY=              2.9241   ZZ=            -15.0563
   XY=              3.1065   XZ=             -1.2821   YZ=             -5.2209
 Octapole moment (field-independent basis, Debye-Ang**2):
  XXX=             80.0382  YYY=            204.3877  ZZZ=             11.3490  XYY=             33.4244
  XXY=            -43.1229  XXZ=             31.6287  XZZ=            -22.7196  YZZ=              1.3419
  YYZ=             17.7379  XYZ=              2.2844
 Hexadecapole moment (field-independent basis, Debye-Ang**3):
 XXXX=         -18569.7900 YYYY=          -7864.9991 ZZZZ=          -1607.6357 XXXY=            -50.9442
 XXXZ=           -102.9091 YYYX=            149.1186 YYYZ=            -76.2714 ZZZX=            -50.0214
 ZZZY=             15.0255 XXYY=          -4005.3459 XXZZ=          -3409.1495 YYZZ=          -1721.4680
 XXYZ=            -52.7583 YYXZ=            -15.9459 ZZXY=            -24.5992
 N-N= 3.895101813486D+03 E-N=-1.146179927211D+04  KE= 1.567155750986D+03
 No NMR shielding tensors so no spin-rotation constants.
 Leave Link  601 at Thu Feb 27 17:08:20 2020, MaxMem= 2684354560 cpu:       2.5
 (Enter /opt/g09gh/gaussian/g09/l9999.exe)
 1\1\GINC-NODE44\FOpt\RwB97XD\6-31G(d)\C29H31N7O1\BDW2292\27-Feb-2020\0
 \\#P opt=(,maxcycle=400) wB97XD/6-31G* MaxDisk=100GB\\MOLECULE0 Rotata
 ble Bond Optimization on g2-node38.bme.utexas.edu\\0,1\C,0.3522837925,
 4.2039030709,-1.699528773\C,1.6650375134,4.0963576366,-1.2565964194\C,
 2.2823745334,2.8467186019,-1.2669743782\C,1.5325947106,1.7612810294,-1
 .7394236096\N,0.2733219106,1.8487666351,-2.164129491\C,-0.2997442952,3
 .0556473947,-2.1356716117\C,3.6629749426,2.6222784459,-0.7685799093\C,
 4.6436320651,3.6091354016,-0.72506615\C,5.8780948831,3.2229992613,-0.2
 040417876\N,6.1470536283,1.9981372772,0.2267633019\C,5.1331327308,1.11
 48016043,0.1250724584\N,3.9151596145,1.3808723745,-0.3465182675\N,5.42
 94699925,-0.1482209027,0.5595031457\C,4.6543509289,-1.3227283377,0.532
 7139032\C,5.3064479789,-2.559849648,0.7107926468\C,4.5292433143,-3.713
 7859335,0.6584483432\C,3.1554663175,-3.7030234769,0.4237990954\C,2.535
 2022366,-2.4688177856,0.2549462051\C,3.2789587198,-1.2920495676,0.3379
 017636\N,1.1732691892,-2.2845435343,-0.0353821827\C,0.2070016302,-3.20
 17687342,-0.3602557037\C,-1.0487840462,-2.5516883441,-0.868803828\C,-1
 .0107848343,-1.3924285126,-1.6493223131\C,-2.1879808484,-0.7886478026,
 -2.0657792545\C,-3.4281140713,-1.3092772802,-1.6962441415\C,-3.4576405
 494,-2.4994267892,-0.9639441839\C,-2.2827994449,-3.1222155008,-0.55897
 30353\C,-4.709162276,-0.5619883633,-2.0292466752\N,-5.111471413,0.5063
 55336,-1.1269886961\C,-4.3753662209,1.7650270615,-1.1801293183\C,-3.22
 79985752,1.8742171331,-0.1593189292\N,-3.639655748,1.5459237049,1.2027
 27476\C,-4.4253207017,2.5845818153,1.8450017025\C,-4.2749599478,0.2302
 243365,1.2219677739\C,-5.4504223544,0.1161826338,0.2371009723\O,0.3308
 169676,-4.4089189871,-0.2389948584\C,6.7949997224,-2.6357647522,0.9374
 429549\H,-0.1618681349,5.1589835737,-1.6953114739\H,2.1889865708,4.970
 6859019,-0.8812292102\H,1.9920054257,0.776735311,-1.7750984305\H,-1.33
 21728405,3.1027345212,-2.4754001982\H,4.4797493282,4.6166302074,-1.086
 7733045\H,6.6934482225,3.9403139723,-0.1347145558\H,6.3886379153,-0.23
 51908139,0.8605725405\H,5.0219892638,-4.6732886886,0.7941280653\H,2.58
 29104436,-4.6185779547,0.3663271998\H,2.7881576443,-0.3384863751,0.215
 3709315\H,0.8848121772,-1.3183570426,-0.0797406481\H,-0.0669164796,-0.
 9547858746,-1.9611599242\H,-2.128041471,0.1145073499,-2.6677130954\H,-
 4.4167997742,-2.9359568545,-0.6941374608\H,-2.3056552358,-4.0442879637
 ,0.0133135065\H,-4.6218312276,-0.1254796876,-3.0315765324\H,-5.5374815
 92,-1.2808806656,-2.0705523209\H,-3.993032452,1.9061753022,-2.19819537
 78\H,-5.0918021244,2.5800768704,-0.997101069\H,-2.8180295345,2.8923121
 39,-0.1664358391\H,-2.4144486521,1.1939028807,-0.4345247954\H,-5.39368
 91438,2.8140382813,1.3663257135\H,-3.8412171867,3.511201271,1.87113534
 02\H,-4.6298611611,2.2881372799,2.8795749022\H,-4.6174981586,0.0191565
 883,2.2422979364\H,-3.509452826,-0.5132736664,0.9711572941\H,-6.274719
 1298,0.7581737588,0.581795196\H,-5.8357840884,-0.9095269066,0.22517063
 44\H,7.10134609,-2.1293421676,1.8630144225\H,7.3583012221,-2.184752812
 3,0.1101621935\H,7.1188769135,-3.6762432372,1.020748134\\Version=EM64L
 -G09RevA.02\State=1-A\HF=-1581.7632161\RMSD=8.404e-09\RMSF=4.291e-06\D
 ipole=0.3659534,2.5725992,-0.1180342\Quadrupole=9.3306654,0.8490371,-1
 0.1797026,2.141976,-0.1130944,-5.1673193\PG=C01 [X(C29H31N7O1)]\\@


 A MAN THINKING OR WORKING IS ALWAYS ALONE, 
 LET HIM BE WHERE HE WILL.

                                    -- THOREAU
 Job cpu time:  0 days 12 hours 18 minutes 31.5 seconds.
 File lengths (MBytes):  RWF=    244 Int=      0 D2E=      0 Chk=     25 Scr=      1
 Normal termination of Gaussian 09 at Thu Feb 27 17:08:20 2020.
