68
MOLECULE0-opt-29-28-25-24-305.log	Energy: -992571.3958061
C         -0.47381        4.27501       -0.77180
C          0.87071        4.19239       -0.43046
C          1.54718        2.99041       -0.63153
C          0.82079        1.92631       -1.18251
N         -0.46817        1.98999       -1.51166
C         -1.09712        3.15004       -1.30073
C          2.96904        2.78932       -0.25381
C          3.90000        3.81934       -0.15450
C          5.18595        3.44683        0.23540
N          5.54536        2.19752        0.49670
C          4.57198        1.27505        0.35448
N          3.31194        1.52368       -0.00208
N          4.96077       -0.01092        0.61312
C          4.24508       -1.21704        0.49463
C          4.96889       -2.42671        0.47991
C          4.24834       -3.60959        0.33862
C          2.86260       -3.65091        0.19562
C          2.17129       -2.44337        0.21714
C          2.85955       -1.24338        0.39360
N          0.78477       -2.30542        0.03926
C         -0.15524       -3.23260       -0.33117
C         -1.47470       -2.60111       -0.67541
C         -1.54983       -1.35810       -1.31088
C         -2.78216       -0.77875       -1.57448
C         -3.96554       -1.40995       -1.19140
C         -3.88384       -2.67745       -0.60800
C         -2.65373       -3.27443       -0.35790
C         -5.30255       -0.70411       -1.34833
N         -5.69246        0.22610       -0.29956
C         -5.02543        1.52273       -0.24750
C         -3.81544        1.57763        0.70293
N         -4.11273        1.06876        2.03901
C         -4.90147        1.97791        2.85137
C         -4.67899       -0.27459        1.94003
C         -5.91415       -0.34013        1.02638
O          0.03676       -4.43645       -0.36492
C          6.47166       -2.44241        0.59976
H         -1.03326        5.19166       -0.61908
H          1.37571        5.04552        0.01342
H          1.32494        0.98097       -1.36644
H         -2.15205        3.17683       -1.56519
H          3.66102        4.85113       -0.38041
H          5.96748        4.19702        0.33827
H          5.94200       -0.07698        0.83901
H          4.79659       -4.54826        0.32561
H          2.33369       -4.58500        0.06488
H          2.31447       -0.31201        0.41885
H          0.44617       -1.35902        0.13075
H         -0.65337       -0.83311       -1.62776
H         -2.81007        0.19069       -2.06541
H         -4.79856       -3.19733       -0.33166
H         -2.59003       -4.25701        0.09897
H         -5.30831       -0.14883       -2.29409
H         -6.09494       -1.45990       -1.42273
H         -4.72372        1.80411       -1.26355
H         -5.76672        2.26794        0.07851
H         -3.45806        2.61150        0.79249
H         -2.99067        0.98238        0.29569
H         -5.91153        2.20559        2.46736
H         -4.36369        2.92724        2.95156
H         -5.01720        1.55097        3.85357
H         -4.93747       -0.62316        2.94733
H         -3.89720       -0.93813        1.55247
H         -6.74279        0.20841        1.49848
H         -6.24801       -1.37788        0.91547
H          6.81700       -2.03065        1.55798
H          6.95201       -1.86612       -0.20165
H          6.85197       -3.46504        0.53628
