68
MOLECULE0-opt-23-22-21-20-306.log	Energy: -992569.4408505
C          1.06554        4.84789        0.14780
C          2.36950        4.38518        0.27563
C          2.68438        3.10999       -0.19120
C          1.65266        2.36933       -0.78096
N          0.39651        2.79302       -0.90112
C          0.11719        4.01409       -0.43473
C          4.03331        2.50964       -0.04043
C          5.20298        3.25931        0.04243
C          6.38287        2.53681        0.21443
N          6.43064        1.21486        0.29650
C          5.24305        0.58363        0.18791
N          4.05940        1.17512        0.02125
N          5.31984       -0.77889        0.27606
C          4.31670       -1.76444        0.24477
C          4.68263       -3.09162        0.55058
C          3.68354       -4.06006        0.52503
C          2.35498       -3.78264        0.21055
C          2.02008       -2.46732       -0.09798
C          2.99686       -1.47210       -0.07792
N          0.73252       -2.02893       -0.45549
C         -0.46645       -2.68196       -0.36584
C         -1.66057       -1.84824       -0.74934
C         -1.65315       -0.45205       -0.83105
C         -2.79901        0.23470       -1.21164
C         -3.98386       -0.44333       -1.49940
C         -3.98353       -1.83796       -1.41699
C         -2.84229       -2.53244       -1.04035
C         -5.24781        0.32200       -1.86291
N         -6.14074        0.72248       -0.78842
C         -5.65557        1.73602        0.14135
C         -5.00102        1.15675        1.40676
N         -5.84229        0.17573        2.08669
C         -6.95601        0.75843        2.81321
C         -6.23141       -0.87443        1.14947
C         -6.90320       -0.32722       -0.12128
O         -0.58005       -3.84891       -0.02556
C          6.10362       -3.45218        0.90260
H          0.78308        5.83064        0.50977
H          3.12311        4.99852        0.76124
H          1.87076        1.38399       -1.18318
H         -0.91632        4.33785       -0.53281
H          5.21339        4.33886       -0.04326
H          7.33850        3.05176        0.28946
H          6.26538       -1.09557        0.43034
H          3.95347       -5.08584        0.76320
H          1.60082       -4.55664        0.20627
H          2.72627       -0.44821       -0.28344
H          0.70240       -1.08511       -0.80702
H         -0.77628        0.14133       -0.58381
H         -2.76246        1.31942       -1.27851
H         -4.89368       -2.38661       -1.64953
H         -2.84175       -3.61492       -0.96671
H         -4.96085        1.23407       -2.40152
H         -5.83762       -0.28316       -2.56252
H         -4.95187        2.39058       -0.38565
H         -6.51077        2.36350        0.43463
H         -4.76192        1.96408        2.10980
H         -4.06032        0.65997        1.14231
H         -7.70042        1.29250        2.19679
H         -6.56853        1.46818        3.55253
H         -7.48238       -0.03508        3.35500
H         -6.90619       -1.57188        1.66030
H         -5.32517       -1.42919        0.87985
H         -7.88763        0.08753        0.14257
H         -7.08578       -1.13844       -0.83532
H          6.45452       -2.91735        1.79493
H          6.80307       -3.23042        0.08505
H          6.18818       -4.52137        1.11239
