
    -----------------------------------------------------------------------
          Psi4: An Open-Source Ab Initio Electronic Structure Package
                               Psi4 1.3.2 release

                         Git: Rev {HEAD} ecbda83 


    R. M. Parrish, L. A. Burns, D. G. A. Smith, A. C. Simmonett,
    A. E. DePrince III, E. G. Hohenstein, U. Bozkaya, A. Yu. Sokolov,
    R. Di Remigio, R. M. Richard, J. F. Gonthier, A. M. James,
    H. R. McAlexander, A. Kumar, M. Saitow, X. Wang, B. P. Pritchard,
    P. Verma, H. F. Schaefer III, K. Patkowski, R. A. King, E. F. Valeev,
    F. A. Evangelista, J. M. Turney, T. D. Crawford, and C. D. Sherrill,
    J. Chem. Theory Comput. 13(7) pp 3185--3197 (2017).
    (doi: 10.1021/acs.jctc.7b00174)


                         Additional Contributions by
    P. Kraus, H. Kruse, M. H. Lechner, M. C. Schieber, R. A. Shaw,
    A. Alenaizan, R. Galvelis, Z. L. Glick, S. Lehtola, and J. P. Misiewicz

    -----------------------------------------------------------------------


    Psi4 started on: Tuesday, 14 April 2020 08:10PM

    Process ID: 116778
    Host:       node45.bme.utexas.edu
    PSIDATADIR: /home/bdw2292/miniconda3/envs/p4env/share/psi4
    Memory:     500.0 MiB
    Threads:    1
    
  ==> Input File <==

--------------------------------------------------------------------------
molecule { 
0 1
 C    2.047680    5.195302   -1.576384
 C    3.285355    4.539497   -1.550950
 C    3.376122    3.222073   -1.058621
 C    2.165664    2.654491   -0.591757
 N    0.975445    3.267788   -0.604188
 C    0.924291    4.515159   -1.094743
 C    4.664437    2.439607   -0.999831
 C    5.932345    2.968032   -1.296827
 C    7.011447    2.090413   -1.149971
 N    6.896402    0.821862   -0.767114
 C    5.642164    0.390711   -0.521438
 N    4.549265    1.150405   -0.623321
 N    5.559728   -0.934109   -0.130125
 C    4.483559   -1.809170    0.260409
 C    4.797751   -3.095395    0.798089
 C    3.724870   -3.913822    1.186821
 C    2.380796   -3.545776    1.067933
 C    2.082118   -2.293027    0.521682
 C    3.135342   -1.450988    0.127625
 N    0.762270   -1.780993    0.312978
 C   -0.461472   -2.220216    0.762500
 C   -1.616130   -1.311488    0.407085
 C   -1.927165   -0.206087    1.212703
 C   -2.947293    0.670557    0.835042
 C   -3.703879    0.458478   -0.334258
 C   -3.403403   -0.680876   -1.106449
 C   -2.375568   -1.555680   -0.746471
 C   -4.829776    1.413472   -0.736538
 N   -6.201294    1.177536   -0.256134
 C   -6.489427    1.341591    1.187340
 C   -6.410720    0.034859    2.018258
 N   -7.229897   -1.074749    1.474465
 C   -8.658124   -1.062194    1.810934
 C   -6.886240   -1.262475    0.044436
 C   -6.967502    0.034117   -0.802946
 O   -0.628393   -3.249590    1.393814
 C    6.219025   -3.602690    0.979115
 H    1.954352    6.207583   -1.958236
 H    4.156239    5.066468   -1.932711
 H    2.156169    1.657755   -0.163297
 H   -0.059975    4.981220   -1.090417
 H    6.116690    3.991211   -1.599801
 H    8.037726    2.402247   -1.341382
 H    6.491562   -1.317764   -0.085553
 H    3.931385   -4.897230    1.607146
 H    1.582241   -4.204567    1.385854
 H    2.908107   -0.490779   -0.305062
 H    0.722358   -0.937159   -0.242762
 H   -1.343236   -0.026914    2.112005
 H   -3.157305    1.533326    1.466642
 H   -3.976693   -0.889811   -2.009415
 H   -2.142036   -2.423625   -1.357757
 H   -4.552621    2.425122   -0.407415
 H   -4.880323    1.438043   -1.834518
 H   -5.789304    2.181219    1.655897
 H   -7.883258    1.852016    1.295433
 H   -6.764345    0.260000    3.232641
 H   -5.082266   -0.418891    2.051215
 H   -9.159748   -0.198545    1.360096
 H   -8.790207   -1.019767    2.898278
 H   -9.139482   -1.978725    1.450874
 H   -7.689553   -2.194112   -0.472445
 H   -5.595677   -1.765059    0.003482
 H   -8.383436    0.446115   -0.837604
 H   -6.666247   -0.167555   -1.893883
 H    6.827209   -2.946934    1.618653
 H    6.732350   -3.680983    0.016586
 H    6.258090   -4.595929    1.434030
}
memory 20GB
set_num_threads(6)
psi4_io.set_default_path("/scratch/bdw2292")
set freeze_core True
E, wfn = energy('mp2/6-311++G**',return_wfn=True)
oeprop(wfn,"WIBERG_LOWDIN_INDICES")
clean()
--------------------------------------------------------------------------

  Memory set to  18.626 GiB by Python driver.
  Threads set to 6 by Python driver.
    SCF Algorithm Type (re)set to DF.

*** tstart() called on node45.bme.utexas.edu
*** at Tue Apr 14 20:10:24 2020

   => Loading Basis Set <=

    Name: 6-311++G**
    Role: ORBITAL
    Keyword: BASIS
    atoms 1-4, 6-9, 11, 14-19, 21-28, 30-31, 33-35, 37 entry C          line   119 file /home/bdw2292/miniconda3/envs/p4env/share/psi4/basis/6-311ppgss.gbs 
    atoms 5, 10, 12-13, 20, 29, 32                     entry N          line   140 file /home/bdw2292/miniconda3/envs/p4env/share/psi4/basis/6-311ppgss.gbs 
    atoms 36                                           entry O          line   161 file /home/bdw2292/miniconda3/envs/p4env/share/psi4/basis/6-311ppgss.gbs 
    atoms 38-68                                        entry H          line    42 file /home/bdw2292/miniconda3/envs/p4env/share/psi4/basis/6-311ppgss.gbs 


         ---------------------------------------------------------
                                   SCF
               by Justin Turney, Rob Parrish, Andy Simmonett
                          and Daniel G. A. Smith
                              RHF Reference
                        6 Threads,  19073 MiB Core
         ---------------------------------------------------------

  ==> Geometry <==

    Molecular point group: c1
    Full point group: C1

    Geometry (in Angstrom), charge = 0, multiplicity = 1:

       Center              X                  Y                   Z               Mass       
    ------------   -----------------  -----------------  -----------------  -----------------
         C            1.879070453142     5.129187743726    -1.608661947891    12.000000000000
         C            3.116745453142     4.473382743726    -1.583227947891    12.000000000000
         C            3.207512453142     3.155958743726    -1.090898947891    12.000000000000
         C            1.997054453142     2.588376743726    -0.624034947891    12.000000000000
         N            0.806835453142     3.201673743726    -0.636465947891    14.003074004430
         C            0.755681453142     4.449044743726    -1.127020947891    12.000000000000
         C            4.495827453142     2.373492743726    -1.032108947891    12.000000000000
         C            5.763735453142     2.901917743726    -1.329104947891    12.000000000000
         C            6.842837453142     2.024298743726    -1.182248947891    12.000000000000
         N            6.727792453142     0.755747743726    -0.799391947891    14.003074004430
         C            5.473554453142     0.324596743726    -0.553715947891    12.000000000000
         N            4.380655453142     1.084290743726    -0.655598947891    14.003074004430
         N            5.391118453142    -1.000223256274    -0.162402947891    14.003074004430
         C            4.314949453142    -1.875284256274     0.228131052109    12.000000000000
         C            4.629141453142    -3.161509256274     0.765811052109    12.000000000000
         C            3.556260453142    -3.979936256274     1.154543052109    12.000000000000
         C            2.212186453142    -3.611890256274     1.035655052109    12.000000000000
         C            1.913508453142    -2.359141256274     0.489404052109    12.000000000000
         C            2.966732453142    -1.517102256274     0.095347052109    12.000000000000
         N            0.593660453142    -1.847107256274     0.280700052109    14.003074004430
         C           -0.630081546858    -2.286330256274     0.730222052109    12.000000000000
         C           -1.784739546858    -1.377602256274     0.374807052109    12.000000000000
         C           -2.095774546858    -0.272201256274     1.180425052109    12.000000000000
         C           -3.115902546858     0.604442743726     0.802764052109    12.000000000000
         C           -3.872488546858     0.392363743726    -0.366535947891    12.000000000000
         C           -3.572012546858    -0.746990256274    -1.138726947891    12.000000000000
         C           -2.544177546858    -1.621794256274    -0.778748947891    12.000000000000
         C           -4.998385546858     1.347357743726    -0.768815947891    12.000000000000
         N           -6.369903546858     1.111421743726    -0.288411947891    14.003074004430
         C           -6.658036546858     1.275476743726     1.155062052109    12.000000000000
         C           -6.579329546858    -0.031255256274     1.985980052109    12.000000000000
         N           -7.398506546858    -1.140863256274     1.442187052109    14.003074004430
         C           -8.826733546858    -1.128308256274     1.778656052109    12.000000000000
         C           -7.054849546858    -1.328589256274     0.012158052109    12.000000000000
         C           -7.136111546858    -0.031997256274    -0.835223947891    12.000000000000
         O           -0.797002546858    -3.315704256274     1.361536052109    15.994914619570
         C            6.050415453142    -3.668804256274     0.946837052109    12.000000000000
         H            1.785742453142     6.141468743726    -1.990513947891     1.007825032230
         H            3.987629453142     5.000353743726    -1.964988947891     1.007825032230
         H            1.987559453142     1.591640743726    -0.195574947891     1.007825032230
         H           -0.228584546858     4.915105743726    -1.122694947891     1.007825032230
         H            5.948080453142     3.925096743726    -1.632078947891     1.007825032230
         H            7.869116453142     2.336132743726    -1.373659947891     1.007825032230
         H            6.322952453142    -1.383878256274    -0.117830947891     1.007825032230
         H            3.762775453142    -4.963344256274     1.574868052109     1.007825032230
         H            1.413631453142    -4.270681256274     1.353576052109     1.007825032230
         H            2.739497453142    -0.556893256274    -0.337339947891     1.007825032230
         H            0.553748453142    -1.003273256274    -0.275039947891     1.007825032230
         H           -1.511845546858    -0.093028256274     2.079727052109     1.007825032230
         H           -3.325914546858     1.467211743726     1.434364052109     1.007825032230
         H           -4.145302546858    -0.955925256274    -2.041692947891     1.007825032230
         H           -2.310645546858    -2.489739256274    -1.390034947891     1.007825032230
         H           -4.721230546858     2.359007743726    -0.439692947891     1.007825032230
         H           -5.048932546858     1.371928743726    -1.866795947891     1.007825032230
         H           -5.957913546858     2.115104743726     1.623619052109     1.007825032230
         H           -8.051867546858     1.785901743726     1.263155052109     1.007825032230
         H           -6.932954546858     0.193885743726     3.200363052109     1.007825032230
         H           -5.250875546858    -0.485005256274     2.018937052109     1.007825032230
         H           -9.328357546858    -0.264659256274     1.327818052109     1.007825032230
         H           -8.958816546858    -1.085881256274     2.866000052109     1.007825032230
         H           -9.308091546858    -2.044839256274     1.418596052109     1.007825032230
         H           -7.858162546858    -2.260226256274    -0.504722947891     1.007825032230
         H           -5.764286546858    -1.831173256274    -0.028795947891     1.007825032230
         H           -8.552045546858     0.380000743726    -0.869881947891     1.007825032230
         H           -6.834856546858    -0.233669256274    -1.926160947891     1.007825032230
         H            6.658599453142    -3.013048256274     1.586375052109     1.007825032230
         H            6.563740453142    -3.747097256274    -0.015691947891     1.007825032230
         H            6.089480453142    -4.662043256274     1.401752052109     1.007825032230

  Running in c1 symmetry.

  Rotational constants: A =      0.00511  B =      0.00149  C =      0.00119 [cm^-1]
  Rotational constants: A =    153.11452  B =     44.62455  C =     35.60418 [MHz]
  Nuclear repulsion = 3648.989040008988923

  Charge       = 0
  Multiplicity = 1
  Electrons    = 262
  Nalpha       = 131
  Nbeta        = 131

  ==> Algorithm <==

  SCF Algorithm Type is DF.
  DIIS enabled.
  MOM disabled.
  Fractional occupation disabled.
  Guess Type is SAD.
  Energy threshold   = 1.00e-08
  Density threshold  = 1.00e-08
  Integral threshold = 0.00e+00

  ==> Primary Basis <==

  Basis Set: 6-311++G**
    Blend: 6-311++G**
    Number of shells: 525
    Number of basis function: 1031
    Number of Cartesian functions: 1068
    Spherical Harmonics?: true
    Max angular momentum: 2

   => Loading Basis Set <=

    Name: (6-311++G** AUX)
    Role: JKFIT
    Keyword: DF_BASIS_SCF
    atoms 1-4, 6-9, 11, 14-19, 21-28, 30-31, 33-35, 37 entry C          line   162 file /home/bdw2292/miniconda3/envs/p4env/share/psi4/basis/aug-cc-pvtz-jkfit.gbs 
    atoms 5, 10, 12-13, 20, 29, 32                     entry N          line   224 file /home/bdw2292/miniconda3/envs/p4env/share/psi4/basis/aug-cc-pvtz-jkfit.gbs 
    atoms 36                                           entry O          line   286 file /home/bdw2292/miniconda3/envs/p4env/share/psi4/basis/aug-cc-pvtz-jkfit.gbs 
    atoms 38-68                                        entry H          line    70 file /home/bdw2292/miniconda3/envs/p4env/share/psi4/basis/aug-cc-pvtz-jkfit.gbs 

  ==> Pre-Iterations <==

   -------------------------------------------------------
    Irrep   Nso     Nmo     Nalpha   Nbeta   Ndocc  Nsocc
   -------------------------------------------------------
     A       1031    1031       0       0       0       0
   -------------------------------------------------------
    Total    1031    1031     131     131     131       0
   -------------------------------------------------------

  ==> Integral Setup <==

  ==> DiskDFJK: Density-Fitted J/K Matrices <==

    J tasked:                  Yes
    K tasked:                  Yes
    wK tasked:                  No
    OpenMP threads:              6
    Integrals threads:           6
    Memory [MiB]:            14305
    Algorithm:                Core
    Integral Cache:           NONE
    Schwarz Cutoff:          1E-12
    Fitting Condition:       1E-10

   => Auxiliary Basis Set <=

  Basis Set: (6-311++G** AUX)
    Blend: AUG-CC-PVTZ-JKFIT
    Number of shells: 1544
    Number of basis function: 5274
    Number of Cartesian functions: 6552
    Spherical Harmonics?: true
    Max angular momentum: 4

  Minimum eigenvalue in the overlap matrix is 1.2274927104E-07.
  Using Symmetric Orthogonalization.

  SCF Guess: Superposition of Atomic Densities via on-the-fly atomic UHF.

  ==> Iterations <==

                           Total Energy        Delta E     RMS |[F,P]|

   @DF-RHF iter SAD: -1571.15648103147714   -1.57116e+03   0.00000e+00 
   @DF-RHF iter   1: -1571.37382009144267   -2.17339e-01   1.21446e-03 DIIS
   @DF-RHF iter   2: -1572.13611676658411   -7.62297e-01   6.43732e-04 DIIS
   @DF-RHF iter   3: -1572.33035061166674   -1.94234e-01   1.67346e-04 DIIS
   @DF-RHF iter   4: -1572.34761835868289   -1.72677e-02   6.66439e-05 DIIS
   @DF-RHF iter   5: -1572.35025519717738   -2.63684e-03   1.36374e-05 DIIS
   @DF-RHF iter   6: -1572.35040733040228   -1.52133e-04   5.93045e-06 DIIS
   @DF-RHF iter   7: -1572.35044181527519   -3.44849e-05   1.94683e-06 DIIS
   @DF-RHF iter   8: -1572.35044733272639   -5.51745e-06   7.83982e-07 DIIS
   @DF-RHF iter   9: -1572.35044829923959   -9.66513e-07   3.21923e-07 DIIS
   @DF-RHF iter  10: -1572.35044849005908   -1.90819e-07   1.43821e-07 DIIS
   @DF-RHF iter  11: -1572.35044852638748   -3.63284e-08   6.64387e-08 DIIS
   @DF-RHF iter  12: -1572.35044853571935   -9.33187e-09   2.71846e-08 DIIS
   @DF-RHF iter  13: -1572.35044853747559   -1.75623e-09   1.15898e-08 DIIS
   @DF-RHF iter  14: -1572.35044853773252   -2.56932e-10   5.57981e-09 DIIS
  Energy and wave function converged.


  ==> Post-Iterations <==

    Orbital Energies [Eh]
    ---------------------

    Doubly Occupied:                                                      

       1A    -20.527685     2A    -15.604449     3A    -15.603867  
       4A    -15.581764     5A    -15.572259     6A    -15.569456  
       7A    -15.566525     8A    -15.551852     9A    -11.374400  
      10A    -11.366015    11A    -11.333916    12A    -11.312479  
      13A    -11.309408    14A    -11.306360    15A    -11.304635  
      16A    -11.303501    17A    -11.303243    18A    -11.297284  
      19A    -11.296722    20A    -11.293101    21A    -11.286512  
      22A    -11.277511    23A    -11.276044    24A    -11.262538  
      25A    -11.258935    26A    -11.253888    27A    -11.252588  
      28A    -11.252352    29A    -11.251131    30A    -11.248180  
      31A    -11.247804    32A    -11.247720    33A    -11.243255  
      34A    -11.240372    35A    -11.234590    36A    -11.232348  
      37A    -11.225370    38A     -1.390249    39A     -1.344480  
      40A     -1.274242    41A     -1.253470    42A     -1.242580  
      43A     -1.242138    44A     -1.208479    45A     -1.196533  
      46A     -1.163027    47A     -1.140503    48A     -1.113604  
      49A     -1.074075    50A     -1.060703    51A     -1.046182  
      52A     -1.037846    53A     -1.025584    54A     -1.008436  
      55A     -0.988724    56A     -0.975244    57A     -0.947105  
      58A     -0.925864    59A     -0.924353    60A     -0.900319  
      61A     -0.870409    62A     -0.866039    63A     -0.855938  
      64A     -0.842597    65A     -0.834514    66A     -0.825114  
      67A     -0.822515    68A     -0.804694    69A     -0.779829  
      70A     -0.753376    71A     -0.736874    72A     -0.731739  
      73A     -0.720464    74A     -0.699712    75A     -0.692728  
      76A     -0.681965    77A     -0.672804    78A     -0.664398  
      79A     -0.660405    80A     -0.655802    81A     -0.652283  
      82A     -0.643024    83A     -0.640487    84A     -0.628917  
      85A     -0.621267    86A     -0.619276    87A     -0.613746  
      88A     -0.606300    89A     -0.602110    90A     -0.601602  
      91A     -0.597450    92A     -0.596247    93A     -0.590618  
      94A     -0.586048    95A     -0.581325    96A     -0.579834  
      97A     -0.579415    98A     -0.568454    99A     -0.565278  
     100A     -0.558257   101A     -0.548847   102A     -0.541575  
     103A     -0.528875   104A     -0.525798   105A     -0.523137  
     106A     -0.519029   107A     -0.513774   108A     -0.512185  
     109A     -0.506064   110A     -0.503617   111A     -0.501658  
     112A     -0.495565   113A     -0.484809   114A     -0.481450  
     115A     -0.452968   116A     -0.450468   117A     -0.437515  
     118A     -0.434203   119A     -0.427552   120A     -0.425809  
     121A     -0.413126   122A     -0.404356   123A     -0.397488  
     124A     -0.378882   125A     -0.373178   126A     -0.344568  
     127A     -0.344203   128A     -0.342727   129A     -0.315834  
     130A     -0.310246   131A     -0.290270  

    Virtual:                                                              

     132A      0.027427   133A      0.035093   134A      0.040199  
     135A      0.043472   136A      0.044409   137A      0.046006  
     138A      0.049333   139A      0.051419   140A      0.057705  
     141A      0.061910   142A      0.062201   143A      0.065029  
     144A      0.067171   145A      0.068341   146A      0.071873  
     147A      0.076135   148A      0.077823   149A      0.080083  
     150A      0.083091   151A      0.083315   152A      0.086993  
     153A      0.091242   154A      0.093050   155A      0.094225  
     156A      0.097929   157A      0.100524   158A      0.101610  
     159A      0.104110   160A      0.106588   161A      0.107871  
     162A      0.109359   163A      0.113100   164A      0.114371  
     165A      0.115085   166A      0.116374   167A      0.118785  
     168A      0.121559   169A      0.126172   170A      0.126422  
     171A      0.129371   172A      0.134968   173A      0.137205  
     174A      0.141960   175A      0.144828   176A      0.147392  
     177A      0.148098   178A      0.148491   179A      0.152318  
     180A      0.155460   181A      0.157536   182A      0.158703  
     183A      0.160311   184A      0.160935   185A      0.164359  
     186A      0.164962   187A      0.167235   188A      0.168597  
     189A      0.170434   190A      0.172091   191A      0.175632  
     192A      0.177019   193A      0.178953   194A      0.180828  
     195A      0.181410   196A      0.182308   197A      0.184481  
     198A      0.186452   199A      0.188245   200A      0.191736  
     201A      0.192370   202A      0.194423   203A      0.195855  
     204A      0.197323   205A      0.199012   206A      0.200916  
     207A      0.203351   208A      0.204730   209A      0.205054  
     210A      0.206107   211A      0.208878   212A      0.210008  
     213A      0.211471   214A      0.213335   215A      0.216065  
     216A      0.216628   217A      0.218691   218A      0.220771  
     219A      0.222698   220A      0.223366   221A      0.226492  
     222A      0.227920   223A      0.231347   224A      0.232475  
     225A      0.233414   226A      0.234638   227A      0.236693  
     228A      0.238651   229A      0.240987   230A      0.242554  
     231A      0.243181   232A      0.245849   233A      0.249727  
     234A      0.251342   235A      0.252543   236A      0.254995  
     237A      0.257601   238A      0.258509   239A      0.261798  
     240A      0.263898   241A      0.267049   242A      0.270510  
     243A      0.272548   244A      0.274082   245A      0.278235  
     246A      0.281517   247A      0.282946   248A      0.285627  
     249A      0.288128   250A      0.290330   251A      0.291219  
     252A      0.293569   253A      0.294164   254A      0.296904  
     255A      0.299267   256A      0.300813   257A      0.301352  
     258A      0.305735   259A      0.310261   260A      0.311984  
     261A      0.313249   262A      0.314811   263A      0.319848  
     264A      0.320483   265A      0.322783   266A      0.325921  
     267A      0.327990   268A      0.329866   269A      0.331411  
     270A      0.331855   271A      0.335514   272A      0.339371  
     273A      0.340717   274A      0.341212   275A      0.343326  
     276A      0.345828   277A      0.348417   278A      0.350113  
     279A      0.352286   280A      0.354418   281A      0.358153  
     282A      0.358619   283A      0.362688   284A      0.363729  
     285A      0.365544   286A      0.366834   287A      0.369160  
     288A      0.369584   289A      0.373146   290A      0.374852  
     291A      0.376700   292A      0.377238   293A      0.379844  
     294A      0.381951   295A      0.383097   296A      0.383506  
     297A      0.385689   298A      0.387037   299A      0.391300  
     300A      0.391956   301A      0.393249   302A      0.393805  
     303A      0.395893   304A      0.398107   305A      0.399730  
     306A      0.402142   307A      0.403454   308A      0.404428  
     309A      0.408115   310A      0.408960   311A      0.409811  
     312A      0.413568   313A      0.414086   314A      0.417592  
     315A      0.418024   316A      0.420282   317A      0.421589  
     318A      0.424437   319A      0.426129   320A      0.426532  
     321A      0.430625   322A      0.432498   323A      0.435160  
     324A      0.436831   325A      0.437311   326A      0.440575  
     327A      0.442016   328A      0.443901   329A      0.445197  
     330A      0.449690   331A      0.452887   332A      0.456142  
     333A      0.456392   334A      0.457292   335A      0.460115  
     336A      0.463805   337A      0.464675   338A      0.467434  
     339A      0.470071   340A      0.473778   341A      0.478211  
     342A      0.479881   343A      0.483033   344A      0.485019  
     345A      0.486701   346A      0.491423   347A      0.492488  
     348A      0.496700   349A      0.498938   350A      0.502362  
     351A      0.505495   352A      0.509095   353A      0.509475  
     354A      0.513114   355A      0.517121   356A      0.518621  
     357A      0.519531   358A      0.522643   359A      0.525065  
     360A      0.525221   361A      0.528999   362A      0.532020  
     363A      0.535744   364A      0.542732   365A      0.544598  
     366A      0.545105   367A      0.548563   368A      0.552410  
     369A      0.564019   370A      0.565477   371A      0.569687  
     372A      0.578559   373A      0.580010   374A      0.583562  
     375A      0.592703   376A      0.597943   377A      0.602248  
     378A      0.606949   379A      0.610745   380A      0.613589  
     381A      0.616554   382A      0.620746   383A      0.625442  
     384A      0.630208   385A      0.635199   386A      0.645277  
     387A      0.649228   388A      0.665417   389A      0.670609  
     390A      0.688046   391A      0.695064   392A      0.695887  
     393A      0.702603   394A      0.703213   395A      0.708984  
     396A      0.715392   397A      0.720825   398A      0.724913  
     399A      0.725060   400A      0.730530   401A      0.735143  
     402A      0.736875   403A      0.744497   404A      0.747796  
     405A      0.752230   406A      0.752949   407A      0.756564  
     408A      0.761500   409A      0.764198   410A      0.767220  
     411A      0.768762   412A      0.776169   413A      0.782816  
     414A      0.783223   415A      0.788897   416A      0.793530  
     417A      0.797588   418A      0.800929   419A      0.802178  
     420A      0.804235   421A      0.805932   422A      0.808682  
     423A      0.812914   424A      0.814862   425A      0.817736  
     426A      0.822726   427A      0.824953   428A      0.831641  
     429A      0.833668   430A      0.839930   431A      0.840460  
     432A      0.848531   433A      0.853285   434A      0.856776  
     435A      0.860178   436A      0.864596   437A      0.865453  
     438A      0.869650   439A      0.873065   440A      0.875795  
     441A      0.877691   442A      0.879821   443A      0.886917  
     444A      0.888354   445A      0.891317   446A      0.894973  
     447A      0.897346   448A      0.898949   449A      0.905695  
     450A      0.910038   451A      0.911644   452A      0.914684  
     453A      0.914849   454A      0.921060   455A      0.922625  
     456A      0.930771   457A      0.931838   458A      0.934334  
     459A      0.939023   460A      0.939845   461A      0.941351  
     462A      0.944979   463A      0.945735   464A      0.952175  
     465A      0.955256   466A      0.960391   467A      0.963147  
     468A      0.963472   469A      0.966822   470A      0.971377  
     471A      0.976623   472A      0.979968   473A      0.986313  
     474A      0.987893   475A      0.990515   476A      0.994099  
     477A      0.996023   478A      0.998988   479A      1.002186  
     480A      1.006037   481A      1.009464   482A      1.013938  
     483A      1.015324   484A      1.023313   485A      1.031075  
     486A      1.036229   487A      1.041527   488A      1.043525  
     489A      1.050801   490A      1.052293   491A      1.057510  
     492A      1.059070   493A      1.063075   494A      1.068301  
     495A      1.069752   496A      1.076182   497A      1.079430  
     498A      1.081057   499A      1.087479   500A      1.091022  
     501A      1.096120   502A      1.099230   503A      1.101721  
     504A      1.108190   505A      1.113152   506A      1.122095  
     507A      1.124463   508A      1.126303   509A      1.133455  
     510A      1.139410   511A      1.144136   512A      1.146572  
     513A      1.151976   514A      1.154604   515A      1.156978  
     516A      1.160947   517A      1.166844   518A      1.169594  
     519A      1.173220   520A      1.176782   521A      1.179492  
     522A      1.185624   523A      1.188860   524A      1.193035  
     525A      1.198246   526A      1.202728   527A      1.205812  
     528A      1.208388   529A      1.215656   530A      1.216923  
     531A      1.221214   532A      1.225171   533A      1.228930  
     534A      1.231383   535A      1.238893   536A      1.244845  
     537A      1.245356   538A      1.248416   539A      1.250408  
     540A      1.255211   541A      1.259729   542A      1.260253  
     543A      1.265206   544A      1.268050   545A      1.272106  
     546A      1.276379   547A      1.277371   548A      1.284159  
     549A      1.289520   550A      1.295900   551A      1.301536  
     552A      1.312031   553A      1.316565   554A      1.322460  
     555A      1.325267   556A      1.332676   557A      1.335439  
     558A      1.342428   559A      1.343414   560A      1.351351  
     561A      1.356619   562A      1.360543   563A      1.373064  
     564A      1.377465   565A      1.384434   566A      1.390098  
     567A      1.395666   568A      1.402031   569A      1.410276  
     570A      1.412437   571A      1.419819   572A      1.434752  
     573A      1.444189   574A      1.453162   575A      1.454877  
     576A      1.455769   577A      1.468922   578A      1.470407  
     579A      1.477599   580A      1.497287   581A      1.499645  
     582A      1.504356   583A      1.510487   584A      1.521352  
     585A      1.529942   586A      1.533204   587A      1.542815  
     588A      1.546192   589A      1.566702   590A      1.572309  
     591A      1.575826   592A      1.584485   593A      1.600921  
     594A      1.608392   595A      1.615791   596A      1.626351  
     597A      1.629184   598A      1.634276   599A      1.640406  
     600A      1.649866   601A      1.657857   602A      1.673341  
     603A      1.674934   604A      1.682652   605A      1.694654  
     606A      1.700325   607A      1.708220   608A      1.711652  
     609A      1.724892   610A      1.730576   611A      1.734046  
     612A      1.737382   613A      1.740864   614A      1.752306  
     615A      1.755646   616A      1.765145   617A      1.768283  
     618A      1.773360   619A      1.782832   620A      1.786137  
     621A      1.787217   622A      1.792854   623A      1.801187  
     624A      1.803490   625A      1.808757   626A      1.814012  
     627A      1.821045   628A      1.822067   629A      1.823337  
     630A      1.824833   631A      1.836226   632A      1.838775  
     633A      1.840836   634A      1.845564   635A      1.850738  
     636A      1.851894   637A      1.852773   638A      1.857703  
     639A      1.861433   640A      1.865066   641A      1.867118  
     642A      1.869517   643A      1.875697   644A      1.883838  
     645A      1.886103   646A      1.895292   647A      1.901065  
     648A      1.902497   649A      1.913290   650A      1.916667  
     651A      1.929197   652A      1.933006   653A      1.935586  
     654A      1.941413   655A      1.944202   656A      1.947560  
     657A      1.955608   658A      1.963121   659A      1.966083  
     660A      1.969601   661A      1.971902   662A      1.974731  
     663A      1.980186   664A      1.981881   665A      1.986414  
     666A      1.989098   667A      1.995458   668A      1.998459  
     669A      2.004271   670A      2.005634   671A      2.008714  
     672A      2.018128   673A      2.018714   674A      2.027905  
     675A      2.034156   676A      2.036063   677A      2.046420  
     678A      2.049383   679A      2.051423   680A      2.056285  
     681A      2.064065   682A      2.068356   683A      2.069497  
     684A      2.074212   685A      2.080262   686A      2.085032  
     687A      2.092583   688A      2.100826   689A      2.102839  
     690A      2.106041   691A      2.119203   692A      2.124178  
     693A      2.127694   694A      2.139473   695A      2.146722  
     696A      2.152228   697A      2.161423   698A      2.171220  
     699A      2.176548   700A      2.177502   701A      2.180838  
     702A      2.184814   703A      2.193190   704A      2.197398  
     705A      2.209673   706A      2.213544   707A      2.216743  
     708A      2.224930   709A      2.230188   710A      2.235883  
     711A      2.241660   712A      2.243890   713A      2.246210  
     714A      2.248488   715A      2.252748   716A      2.255912  
     717A      2.258531   718A      2.266608   719A      2.271478  
     720A      2.278346   721A      2.279284   722A      2.287189  
     723A      2.289471   724A      2.298768   725A      2.299054  
     726A      2.303874   727A      2.306337   728A      2.313289  
     729A      2.317007   730A      2.333725   731A      2.340286  
     732A      2.343002   733A      2.348299   734A      2.358415  
     735A      2.359467   736A      2.368460   737A      2.373347  
     738A      2.379064   739A      2.391125   740A      2.393339  
     741A      2.403781   742A      2.407130   743A      2.421808  
     744A      2.423662   745A      2.428895   746A      2.438885  
     747A      2.452457   748A      2.454497   749A      2.459879  
     750A      2.462417   751A      2.472228   752A      2.485554  
     753A      2.493664   754A      2.495614   755A      2.515985  
     756A      2.517353   757A      2.534343   758A      2.535678  
     759A      2.536052   760A      2.544864   761A      2.549486  
     762A      2.574692   763A      2.579351   764A      2.583553  
     765A      2.585891   766A      2.587791   767A      2.596109  
     768A      2.617024   769A      2.626446   770A      2.635628  
     771A      2.651134   772A      2.660772   773A      2.661016  
     774A      2.677428   775A      2.685967   776A      2.699744  
     777A      2.701180   778A      2.705302   779A      2.719758  
     780A      2.733165   781A      2.733294   782A      2.747778  
     783A      2.751498   784A      2.771473   785A      2.778091  
     786A      2.783377   787A      2.792748   788A      2.797489  
     789A      2.808034   790A      2.815267   791A      2.825005  
     792A      2.831104   793A      2.832518   794A      2.843474  
     795A      2.848485   796A      2.858429   797A      2.871968  
     798A      2.874480   799A      2.875893   800A      2.882203  
     801A      2.886989   802A      2.890398   803A      2.898272  
     804A      2.911811   805A      2.930389   806A      2.939778  
     807A      2.942268   808A      2.944161   809A      2.948072  
     810A      2.958293   811A      2.968922   812A      2.975041  
     813A      2.976538   814A      2.979375   815A      2.988255  
     816A      2.988449   817A      3.003084   818A      3.004855  
     819A      3.005543   820A      3.020269   821A      3.029432  
     822A      3.032212   823A      3.039873   824A      3.045729  
     825A      3.052104   826A      3.057355   827A      3.060734  
     828A      3.068492   829A      3.073906   830A      3.081396  
     831A      3.088102   832A      3.094519   833A      3.097940  
     834A      3.101861   835A      3.103551   836A      3.107673  
     837A      3.112275   838A      3.114219   839A      3.119340  
     840A      3.123214   841A      3.128578   842A      3.129411  
     843A      3.133068   844A      3.142913   845A      3.148178  
     846A      3.153170   847A      3.166123   848A      3.169485  
     849A      3.185739   850A      3.196372   851A      3.201649  
     852A      3.207296   853A      3.212391   854A      3.216047  
     855A      3.227907   856A      3.231500   857A      3.241337  
     858A      3.244647   859A      3.249143   860A      3.258753  
     861A      3.266811   862A      3.269612   863A      3.273207  
     864A      3.280130   865A      3.284731   866A      3.294806  
     867A      3.298204   868A      3.300231   869A      3.307794  
     870A      3.314191   871A      3.315927   872A      3.319696  
     873A      3.325645   874A      3.335474   875A      3.338141  
     876A      3.341359   877A      3.343214   878A      3.353403  
     879A      3.356565   880A      3.361691   881A      3.366891  
     882A      3.372357   883A      3.376258   884A      3.381361  
     885A      3.387487   886A      3.397486   887A      3.402090  
     888A      3.407512   889A      3.426856   890A      3.430995  
     891A      3.450652   892A      3.460125   893A      3.472462  
     894A      3.508867   895A      3.519634   896A      3.532574  
     897A      3.583390   898A      3.598847   899A      3.608034  
     900A      3.618937   901A      3.635095   902A      3.645890  
     903A      3.647084   904A      3.656569   905A      3.667203  
     906A      3.679202   907A      3.680239   908A      3.685359  
     909A      3.763280   910A      3.771531   911A      3.778309  
     912A      3.781803   913A      3.793506   914A      3.806138  
     915A      3.813740   916A      3.853191   917A      3.859008  
     918A      3.863507   919A      3.874752   920A      3.893027  
     921A      3.899437   922A      3.905350   923A      3.915764  
     924A      3.923111   925A      3.925347   926A      3.932407  
     927A      3.949141   928A      3.959719   929A      3.976076  
     930A      3.980177   931A      3.992523   932A      4.002928  
     933A      4.052175   934A      4.061452   935A      4.067364  
     936A      4.072098   937A      4.097449   938A      4.102967  
     939A      4.124060   940A      4.128057   941A      4.150550  
     942A      4.166559   943A      4.180200   944A      4.187122  
     945A      4.187793   946A      4.201206   947A      4.208924  
     948A      4.217705   949A      4.257785   950A      4.289547  
     951A      4.357019   952A      4.364591   953A      4.388690  
     954A      4.403658   955A      4.407690   956A      4.413809  
     957A      4.422737   958A      4.424844   959A      4.430591  
     960A      4.436950   961A      4.443935   962A      4.452083  
     963A      4.518339   964A      4.542068   965A      4.553646  
     966A      4.575660   967A      4.579862   968A      4.610075  
     969A      4.619547   970A      4.645335   971A      4.702246  
     972A      4.763339   973A      4.769265   974A      4.779771  
     975A      4.907911   976A      4.933901   977A      5.002802  
     978A      5.039317   979A      5.218067   980A      5.248486  
     981A      5.260347   982A      5.275249   983A      5.294501  
     984A      5.333356   985A      5.342880   986A      5.386329  
     987A      5.425542   988A      5.589929   989A      5.691601  
     990A      5.717205   991A      5.802723   992A      5.863629  
     993A      5.884854   994A      6.395322   995A     24.768068  
     996A     24.778211   997A     24.809619   998A     24.817502  
     999A     24.840936  1000A     24.862010  1001A     24.939234  
    1002A     24.956746  1003A     25.019442  1004A     25.025697  
    1005A     25.048032  1006A     25.068986  1007A     25.071148  
    1008A     25.093293  1009A     25.101760  1010A     25.119601  
    1011A     25.120467  1012A     25.134552  1013A     25.138198  
    1014A     25.168715  1015A     25.173321  1016A     25.206942  
    1017A     25.222631  1018A     25.238565  1019A     25.240705  
    1020A     25.250309  1021A     25.252748  1022A     25.323999  
    1023A     25.330708  1024A     36.948837  1025A     36.988988  
    1026A     37.024749  1027A     37.063467  1028A     37.075507  
    1029A     37.135605  1030A     37.156277  1031A     51.752652  

    Final Occupation by Irrep:
              A 
    DOCC [   131 ]

  @DF-RHF Final Energy: -1572.35044853773252

   => Energetics <=

    Nuclear Repulsion Energy =           3648.9890400089889226
    One-Electron Energy =               -9396.5041268569402746
    Two-Electron Energy =                4175.1646383102188338
    Total Energy =                      -1572.3504485377325182

Computation Completed


Properties will be evaluated at   0.000000,   0.000000,   0.000000 [a0]

Properties computed using the SCF density matrix

  Nuclear Dipole Moment: [e a0]
     X:   -45.3970      Y:    -1.6736      Z:     4.7487

  Electronic Dipole Moment: [e a0]
     X:    46.7609      Y:     3.9842      Z:    -6.0033

  Dipole Moment: [e a0]
     X:     1.3639      Y:     2.3106      Z:    -1.2546     Total:     2.9619

  Dipole Moment: [D]
     X:     3.4666      Y:     5.8729      Z:    -3.1889     Total:     7.5284


*** tstop() called on node45.bme.utexas.edu at Tue Apr 14 20:24:29 2020
Module time:
	user time   =    4381.25 seconds =      73.02 minutes
	system time =     103.49 seconds =       1.72 minutes
	total time  =        845 seconds =      14.08 minutes
Total time:
	user time   =    4381.25 seconds =      73.02 minutes
	system time =     103.49 seconds =       1.72 minutes
	total time  =        845 seconds =      14.08 minutes

*** tstart() called on node45.bme.utexas.edu
*** at Tue Apr 14 20:24:29 2020


  //>>>>>>>>>>>>>>>>>>>>>>>>>>>>>>>>>>>//
  //               DFMP2               //
  //<<<<<<<<<<<<<<<<<<<<<<<<<<<<<<<<<<<//

   => Loading Basis Set <=

    Name: (6-311++G** AUX)
    Role: RIFIT
    Keyword: DF_BASIS_MP2
    atoms 1-4, 6-9, 11, 14-19, 21-28, 30-31, 33-35, 37 entry C          line   148 file /home/bdw2292/miniconda3/envs/p4env/share/psi4/basis/aug-cc-pvtz-ri.gbs 
    atoms 5, 10, 12-13, 20, 29, 32                     entry N          line   206 file /home/bdw2292/miniconda3/envs/p4env/share/psi4/basis/aug-cc-pvtz-ri.gbs 
    atoms 36                                           entry O          line   264 file /home/bdw2292/miniconda3/envs/p4env/share/psi4/basis/aug-cc-pvtz-ri.gbs 
    atoms 38-68                                        entry H          line    30 file /home/bdw2292/miniconda3/envs/p4env/share/psi4/basis/aug-cc-pvtz-ri.gbs 

	 --------------------------------------------------------
	                          DF-MP2                         
	      2nd-Order Density-Fitted Moller-Plesset Theory     
	              RMP2 Wavefunction,   6 Threads             
	                                                         
	        Rob Parrish, Justin Turney, Andy Simmonett,      
	           Ed Hohenstein, and C. David Sherrill          
	 --------------------------------------------------------

   => Auxiliary Basis Set <=

  Basis Set: (6-311++G** AUX)
    Blend: AUG-CC-PVTZ-RI
    Number of shells: 1470
    Number of basis function: 5348
    Number of Cartesian functions: 6737
    Spherical Harmonics?: true
    Max angular momentum: 4

	 --------------------------------------------------------
	                 NBF =  1031, NAUX =  5348
	 --------------------------------------------------------
	   CLASS    FOCC     OCC    AOCC    AVIR     VIR    FVIR
	   PAIRS      37     131      94     900     900       0
	 --------------------------------------------------------

	-----------------------------------------------------------
	 ==================> DF-MP2 Energies <==================== 
	-----------------------------------------------------------
	 Reference Energy          =   -1572.3504485377325182 [Eh]
	 Singles Energy            =      -0.0000000000000000 [Eh]
	 Same-Spin Energy          =      -1.4696921559077400 [Eh]
	 Opposite-Spin Energy      =      -4.0476663893929103 [Eh]
	 Correlation Energy        =      -5.5173585453006506 [Eh]
	 Total Energy              =   -1577.8678070830330853 [Eh]
	-----------------------------------------------------------
	 ================> DF-SCS-MP2 Energies <================== 
	-----------------------------------------------------------
	 SCS Same-Spin Scale       =       0.3333333333333333 [-]
	 SCS Opposite-Spin Scale   =       1.2000000000000000 [-]
	 SCS Same-Spin Energy      =      -0.4898973853025800 [Eh]
	 SCS Opposite-Spin Energy  =      -4.8571996672714919 [Eh]
	 SCS Correlation Energy    =      -5.3470970525740720 [Eh]
	 SCS Total Energy          =   -1577.6975455903066177 [Eh]
	-----------------------------------------------------------


*** tstop() called on node45.bme.utexas.edu at Tue Apr 14 20:32:24 2020
Module time:
	user time   =    2630.95 seconds =      43.85 minutes
	system time =      20.99 seconds =       0.35 minutes
	total time  =        475 seconds =       7.92 minutes
Total time:
	user time   =    7012.20 seconds =     116.87 minutes
	system time =     124.48 seconds =       2.07 minutes
	total time  =       1320 seconds =      22.00 minutes


Properties will be evaluated at   0.000000,   0.000000,   0.000000 [a0]
OEProp: No title given, name of density matrix used for the following properties is 'SCF density'


  Wiberg Bond Indices using Orthogonal Lowdin Orbitals:

  Irrep: 1 Size: 68 x 68

                 1                   2                   3                   4                   5

    1     0.00000000000000     1.46717479365045     0.12501952733527     0.14042096678136     0.12449376261934
    2     1.46717479365045     0.00000000000000     1.39919362549169     0.12807801994586     0.12245325572026
    3     0.12501952733527     1.39919362549169     0.00000000000000     1.36354920425808     0.11992937583321
    4     0.14042096678136     0.12807801994586     1.36354920425808     0.00000000000000     1.66824514316777
    5     0.12449376261934     0.12245325572026     0.11992937583321     1.66824514316777     0.00000000000000
    6     1.46414201344998     0.13809627156175     0.13568467774713     0.15363433967395     1.63465566040626
    7     0.01469930415811     0.10318550456350     1.02214508505398     0.10431295317780     0.01401994205175
    8     0.00369733662614     0.04261898551503     0.09897756734491     0.02405835432781     0.00222808565911
    9     0.00037742027227     0.00489273840824     0.01487130920222     0.00416168123100     0.00069445308885
   10     0.00041784395778     0.00541834754048     0.00580138110952     0.00607554065032     0.00032371114240
   11     0.00086916395964     0.00331760357510     0.01792655135760     0.00666190436825     0.00041657212105
   12     0.00277383471235     0.02173530223398     0.11784678687776     0.06042635105617     0.00389832263907
   13     0.00016435524288     0.00046608978193     0.00160624520735     0.00087385346258     0.00008159951499
   14     0.00002942883052     0.00008915611162     0.00051064434534     0.00099819900881     0.00008550293491
   15     0.00001079116830     0.00002238306380     0.00006056784923     0.00012829258633     0.00001398114609
   16     0.00000185215951     0.00000446796467     0.00003099415477     0.00016526020328     0.00000821884026
   17     0.00001158250241     0.00001728920143     0.00004607272109     0.00023403706982     0.00002732997469
   18     0.00001914193658     0.00004231788204     0.00023087799086     0.00122788662454     0.00014548481597
   19     0.00013410587538     0.00021972761885     0.00167240564614     0.00892424608963     0.00047601115668
   20     0.00003215261179     0.00004764316405     0.00020873543131     0.00188556054912     0.00026782344134
   21     0.00000903221202     0.00000911711944     0.00003158594166     0.00023825713043     0.00008528064107
   22     0.00003757835022     0.00002334309282     0.00002158960790     0.00024434734353     0.00048285521849
   23     0.00009856401220     0.00005073688696     0.00005107250101     0.00063416139500     0.00241171755763
   24     0.00005934032650     0.00003864351773     0.00006441151129     0.00041665411965     0.00288942108858
   25     0.00001682571052     0.00002007782552     0.00002285873326     0.00007425326186     0.00055094755372
   26     0.00001224141869     0.00001403358489     0.00000839567912     0.00015520653899     0.00033406814925
   27     0.00001542347175     0.00001368059648     0.00000791099430     0.00009817376403     0.00039893540591
   28     0.00000803104449     0.00000672455036     0.00000681712570     0.00001373398985     0.00004995103712
   29     0.00000170838066     0.00000073374980     0.00000089699606     0.00000420015081     0.00001202767016
   30     0.00000088967960     0.00000030434462     0.00000060803128     0.00000323243546     0.00001129337905
   31     0.00000124377538     0.00000092012022     0.00000099891176     0.00002544218982     0.00006138569807
   32     0.00000043362764     0.00000042189502     0.00000049332818     0.00000939503684     0.00001790954944
   33     0.00000011425564     0.00000005916715     0.00000008805119     0.00000147116756     0.00000410289198
   34     0.00000059856579     0.00000031821008     0.00000054564115     0.00000612343338     0.00001400957693
   35     0.00000049351194     0.00000020043699     0.00000023507790     0.00000195796921     0.00000513675865
   36     0.00000174477466     0.00000244292394     0.00000766238311     0.00010839273409     0.00002827646895
   37     0.00000202622226     0.00000746304518     0.00003196939748     0.00003305986002     0.00000274436028
   38     0.88635782469389     0.07942841579928     0.01179021249751     0.00636585772659     0.01077383773294
   39     0.07772151955674     0.87034551462719     0.07267262335711     0.01172607608630     0.00397266912160
   40     0.00571152597172     0.01069047949508     0.06976574124146     0.85367464168053     0.08715765782056
   41     0.07713553723055     0.01186136530332     0.00607191893736     0.01583471322123     0.08802066235029
   42     0.00113774590552     0.01469286489766     0.01449901055509     0.00139266234031     0.00030445233593
   43     0.00004474376591     0.00028293702506     0.00143317245655     0.00031667566557     0.00007943507688
   44     0.00002451757780     0.00008208087109     0.00034814296116     0.00008465581799     0.00000761918989
   45     0.00000031502499     0.00000086848826     0.00000604672186     0.00001645141987     0.00000119897607
   46     0.00000081020430     0.00000136675979     0.00000634100695     0.00002428816928     0.00000667156529
   47     0.00010315047667     0.00019100146964     0.00177438684895     0.00722719676182     0.00052934318844
   48     0.00008034173885     0.00006071938163     0.00013126168965     0.00156900050603     0.00039337316071
   49     0.00001853878453     0.00001200156343     0.00000738571765     0.00004148496222     0.00028249187322
   50     0.00000776119856     0.00000827586036     0.00001118511491     0.00002878083033     0.00028578297988
   51     0.00000074209844     0.00000085583843     0.00000047533691     0.00000693996090     0.00001121101778
   52     0.00000085135889     0.00000079886712     0.00000064130870     0.00000946191689     0.00001345842345
   53     0.00000865523776     0.00000487298856     0.00000360758967     0.00000351874108     0.00002641463274
   54     0.00000110369281     0.00000148380265     0.00000116129773     0.00000135897384     0.00000760550467
   55     0.00000048082120     0.00000007993174     0.00000017648799     0.00000075634922     0.00000161342763
   56     0.00000015511907     0.00000005118250     0.00000006932972     0.00000173934473     0.00000741084579
   57     0.00000005953790     0.00000006605511     0.00000006439463     0.00000096951888     0.00000301988531
   58     0.00000139974822     0.00000099061234     0.00000087359437     0.00001947965320     0.00005375474419
   59     0.00000003133814     0.00000001260074     0.00000002528526     0.00000021993935     0.00000065271764
   60     0.00000001434362     0.00000000962446     0.00000000591222     0.00000016205105     0.00000041693771
   61     0.00000000803808     0.00000000366759     0.00000000932825     0.00000005952091     0.00000018037378
   62     0.00000004381793     0.00000004220801     0.00000003842920     0.00000042785384     0.00000154503664
   63     0.00000076692633     0.00000038423070     0.00000060127777     0.00000940171150     0.00002017818481
   64     0.00000007216608     0.00000002574922     0.00000004947160     0.00000070206584     0.00000135170872
   65     0.00000011949582     0.00000008903822     0.00000013313384     0.00000068882658     0.00000274503646
   66     0.00000106133921     0.00000267716670     0.00001033437615     0.00000850909071     0.00000073165240
   67     0.00000083639828     0.00000201491095     0.00001127196837     0.00000813961723     0.00000047589884
   68     0.00000019618797     0.00000072839759     0.00000374650915     0.00000697421418     0.00000045361866

                 6                   7                   8                   9                  10

    1     1.46414201344998     0.01469930415811     0.00369733662614     0.00037742027227     0.00041784395778
    2     0.13809627156175     0.10318550456350     0.04261898551503     0.00489273840824     0.00541834754048
    3     0.13568467774713     1.02214508505398     0.09897756734491     0.01487130920222     0.00580138110952
    4     0.15363433967395     0.10431295317780     0.02405835432781     0.00416168123100     0.00607554065032
    5     1.63465566040626     0.01401994205175     0.00222808565911     0.00069445308885     0.00032371114240
    6     0.00000000000000     0.00986117357067     0.00692408945194     0.00126984506819     0.00339528698497
    7     0.00986117357067     0.00000000000000     1.38711223798400     0.14620476245037     0.11242436322004
    8     0.00692408945194     1.38711223798400     0.00000000000000     1.43305771456036     0.13114703439642
    9     0.00126984506819     0.14620476245037     1.43305771456036     0.00000000000000     1.66273878517118
   10     0.00339528698497     0.11242436322004     0.13114703439642     1.66273878517118     0.00000000000000
   11     0.00083390659139     0.14233270489459     0.11330818056950     0.15199959710215     1.50444601982307
   12     0.00595547963048     1.52955424431048     0.12583589139416     0.11023882396169     0.10972867569093
   13     0.00006491323266     0.01909445847953     0.02045212722569     0.02470208965045     0.16286381827280
   14     0.00003728054418     0.00268101083771     0.00251538042964     0.00330899504507     0.01732900392062
   15     0.00000480475066     0.00048955727970     0.00149285301000     0.00095831860812     0.00320862997795
   16     0.00000276262537     0.00014110405307     0.00020264059377     0.00016109268234     0.00048801400922
   17     0.00000543121695     0.00024312569728     0.00138057179978     0.00046162291039     0.00133632350616
   18     0.00003093475077     0.00047950555309     0.00025474938129     0.00013597882377     0.00040440598466
   19     0.00016543250881     0.00514914823094     0.00314569073145     0.00149137461713     0.00431330737276
   20     0.00004086656524     0.00010623243728     0.00002454852233     0.00001645554519     0.00005584349121
   21     0.00001350651983     0.00001742059816     0.00000853283112     0.00000498307608     0.00001639618571
   22     0.00007045409253     0.00000514187181     0.00000194956070     0.00000121655599     0.00000347673641
   23     0.00023357685008     0.00000948960416     0.00000340966887     0.00000096415351     0.00000148263989
   24     0.00032517889859     0.00000906933212     0.00000458297572     0.00000064834722     0.00000038506517
   25     0.00009903776172     0.00000282929181     0.00000236520822     0.00000034341606     0.00000055162772
   26     0.00005418041030     0.00000171050031     0.00000105456749     0.00000027929687     0.00000033398038
   27     0.00010258574181     0.00000177332008     0.00000085150498     0.00000043297167     0.00000093691060
   28     0.00003095550529     0.00000066337244     0.00000045202978     0.00000006632647     0.00000018032848
   29     0.00000967089397     0.00000015036564     0.00000006794702     0.00000001273954     0.00000002108870
   30     0.00000729951060     0.00000010200124     0.00000006023943     0.00000001258275     0.00000001673892
   31     0.00002413834756     0.00000025304553     0.00000010301694     0.00000001407608     0.00000002231072
   32     0.00000873203215     0.00000017443150     0.00000006535319     0.00000000800138     0.00000001547589
   33     0.00000197780957     0.00000003379538     0.00000001155839     0.00000000256745     0.00000000199956
   34     0.00001248176901     0.00000011439631     0.00000004717445     0.00000000809546     0.00000000995072
   35     0.00000461371314     0.00000008672451     0.00000003899675     0.00000000813464     0.00000001053235
   36     0.00000484938152     0.00000909542607     0.00000929930872     0.00000420374723     0.00001259984646
   37     0.00000176718350     0.00014398608488     0.00013467766095     0.00014416019430     0.00082843453212
   38     0.08239032760418     0.00129890367656     0.00025632675724     0.00003945565155     0.00002589062344
   39     0.01169151741339     0.01614450455373     0.01540972346547     0.00121459436676     0.00041056369428
   40     0.01481791470271     0.01584873057509     0.00168336294116     0.00039722648609     0.00058938761649
   41     0.87967409436258     0.00055093785780     0.00027043504699     0.00005454973248     0.00010433312177
   42     0.00049550221817     0.07493090273545     0.87592808351836     0.08108273771804     0.01052266128831
   43     0.00004430763660     0.01165936794227     0.07514034454109     0.87512791455584     0.09050296043009
   44     0.00001119045140     0.00205169629336     0.00204097059355     0.00387313098127     0.03322617480496
   45     0.00000037705690     0.00001779749469     0.00000643346992     0.00002275259152     0.00005041199873
   46     0.00000108410986     0.00002235735773     0.00004344628019     0.00001670674977     0.00005436828577
   47     0.00018653067488     0.00384805478235     0.00088220315897     0.00036872656662     0.00072471673379
   48     0.00004894627818     0.00006552589126     0.00002223889094     0.00000860363130     0.00001681730075
   49     0.00002640770366     0.00000176027387     0.00000070671749     0.00000017394016     0.00000031242993
   50     0.00003040034146     0.00000148197286     0.00000076323058     0.00000010905430     0.00000010278371
   51     0.00000401232335     0.00000016301465     0.00000006439176     0.00000001838844     0.00000002740355
   52     0.00000353883592     0.00000019218602     0.00000015229838     0.00000004067341     0.00000016998755
   53     0.00001591555647     0.00000043853134     0.00000021910018     0.00000003110497     0.00000007972058
   54     0.00001335255092     0.00000010691552     0.00000010588660     0.00000002279935     0.00000003371405
   55     0.00000214204349     0.00000002461974     0.00000002551667     0.00000000274664     0.00000000332939
   56     0.00000561001674     0.00000002547993     0.00000001416775     0.00000000294576     0.00000000940337
   57     0.00000100622843     0.00000002742481     0.00000001695486     0.00000000252213     0.00000000353997
   58     0.00002044955548     0.00000016516602     0.00000009062610     0.00000001062511     0.00000002846459
   59     0.00000037962269     0.00000001057343     0.00000000259053     0.00000000100657     0.00000000109723
   60     0.00000011368783     0.00000000328295     0.00000000127128     0.00000000023297     0.00000000056684
   61     0.00000010398902     0.00000000292652     0.00000000083271     0.00000000045026     0.00000000045847
   62     0.00000077606479     0.00000001470301     0.00000001272721     0.00000000107408     0.00000000289801
   63     0.00001438633850     0.00000009188072     0.00000005293880     0.00000000690146     0.00000001854054
   64     0.00000041285344     0.00000001461637     0.00000000361865     0.00000000132077     0.00000000266449
   65     0.00000245481329     0.00000002134322     0.00000002329401     0.00000000219398     0.00000000361127
   66     0.00000118071838     0.00004612116442     0.00010544045239     0.00004550738757     0.00033906694590
   67     0.00000053537618     0.00004287474874     0.00008524557580     0.00004477316674     0.00028262315446
   68     0.00000015295320     0.00001442457576     0.00000428431065     0.00000424609076     0.00003430915640

                11                  12                  13                  14                  15

    1     0.00086916395964     0.00277383471235     0.00016435524288     0.00002942883052     0.00001079116830
    2     0.00331760357510     0.02173530223398     0.00046608978193     0.00008915611162     0.00002238306380
    3     0.01792655135760     0.11784678687776     0.00160624520735     0.00051064434534     0.00006056784923
    4     0.00666190436825     0.06042635105617     0.00087385346258     0.00099819900881     0.00012829258633
    5     0.00041657212105     0.00389832263907     0.00008159951499     0.00008550293491     0.00001398114609
    6     0.00083390659139     0.00595547963048     0.00006491323266     0.00003728054418     0.00000480475066
    7     0.14233270489459     1.52955424431048     0.01909445847953     0.00268101083771     0.00048955727970
    8     0.11330818056950     0.12583589139416     0.02045212722569     0.00251538042964     0.00149285301000
    9     0.15199959710215     0.11023882396169     0.02470208965045     0.00330899504507     0.00095831860812
   10     1.50444601982307     0.10972867569093     0.16286381827280     0.01732900392062     0.00320862997795
   11     0.00000000000000     1.53829729391225     1.27049131830812     0.08222715528598     0.01782225773424
   12     1.53829729391225     0.00000000000000     0.14134759017286     0.02784083205034     0.00334063299254
   13     1.27049131830812     0.14134759017286     0.00000000000000     1.12969626849786     0.10656454558677
   14     0.08222715528598     0.02784083205034     1.12969626849786     0.00000000000000     1.31369130733199
   15     0.01782225773424     0.00334063299254     0.10656454558677     1.31369130733199     0.00000000000000
   16     0.00238695328794     0.00101879973316     0.01449621614834     0.12518456007127     1.44393715235992
   17     0.00411449862899     0.00249379101797     0.01221919253712     0.11921538355058     0.12466733322406
   18     0.00231429951577     0.00422483620319     0.01316049301907     0.12255587220065     0.12056875230338
   19     0.02761874909375     0.05171763804616     0.11051473119219     1.40330117270692     0.11933253721345
   20     0.00031469222388     0.00098763723576     0.00129396571610     0.01478229704143     0.01097239423965
   21     0.00006036217750     0.00011495438333     0.00030882087922     0.00277636263697     0.00577603363677
   22     0.00001420226030     0.00003526102337     0.00005571405278     0.00036508343142     0.00041950626951
   23     0.00000572936097     0.00002783902958     0.00001294835153     0.00009055761451     0.00019986114387
   24     0.00000128187233     0.00000336491488     0.00000213070322     0.00001735411266     0.00005929063185
   25     0.00000096166988     0.00000310389722     0.00000261091898     0.00001426873458     0.00000726601074
   26     0.00000074864158     0.00000203552701     0.00000174976043     0.00001740774208     0.00006798104161
   27     0.00000333272886     0.00000472177563     0.00001162057105     0.00008863022921     0.00023255253040
   28     0.00000010819497     0.00000032041115     0.00000030157608     0.00000143576230     0.00000092510670
   29     0.00000004792211     0.00000008472929     0.00000012624632     0.00000063793450     0.00000026098809
   30     0.00000004188245     0.00000007325835     0.00000005055581     0.00000023483275     0.00000023239417
   31     0.00000005345187     0.00000015631859     0.00000003885399     0.00000024188288     0.00000064490834
   32     0.00000003351560     0.00000014272771     0.00000002256139     0.00000015916291     0.00000011001979
   33     0.00000000952727     0.00000002473469     0.00000000564108     0.00000003741248     0.00000004638113
   34     0.00000002989959     0.00000010166510     0.00000004127071     0.00000029904655     0.00000068116150
   35     0.00000002753716     0.00000005714955     0.00000006517875     0.00000024245741     0.00000022317452
   36     0.00003877324106     0.00005026935785     0.00015972160001     0.00106875191062     0.00352517872746
   37     0.00358967102315     0.00077891494438     0.03834538053368     0.09606531067264     1.05885123808215
   38     0.00008961642578     0.00031262673216     0.00001560873167     0.00000655873523     0.00000072200083
   39     0.00029278006381     0.00108793930909     0.00006879170016     0.00002520838077     0.00000406895197
   40     0.00264640575935     0.02442248643387     0.00036970143550     0.00093333122769     0.00013334261382
   41     0.00004316419677     0.00024606156746     0.00000534971147     0.00000347375466     0.00000052653915
   42     0.00575810192073     0.01064782003523     0.00103810481135     0.00011908497349     0.00006712518780
   43     0.01586076714533     0.00396974852592     0.00138777248921     0.00038922153651     0.00006282161662
   44     0.07427541191687     0.01143208771145     0.93189478081741     0.05977650240399     0.01524534278403
   45     0.00036826930991     0.00005647585015     0.00115174878551     0.01141520086428     0.07489716433275
   46     0.00014707324286     0.00015321077908     0.00052896244398     0.00525021796301     0.01055501998615
   47     0.00938707313380     0.03543391606281     0.01565408501164     0.07389078996130     0.00978992320508
   48     0.00010413749136     0.00051888276546     0.00016673090524     0.00197140094773     0.00114442888539
   49     0.00000071937819     0.00000428120590     0.00000232695900     0.00001056528586     0.00003978705191
   50     0.00000020146381     0.00000050879702     0.00000037666514     0.00000230065485     0.00000386775928
   51     0.00000010008815     0.00000015311855     0.00000027681325     0.00000202590517     0.00000539647209
   52     0.00000056810238     0.00000102974063     0.00000228125314     0.00001197780232     0.00002562902159
   53     0.00000004176573     0.00000018785985     0.00000006057654     0.00000027099528     0.00000028429318
   54     0.00000001935624     0.00000008580340     0.00000003786750     0.00000024605990     0.00000028474692
   55     0.00000001010622     0.00000002038351     0.00000000795764     0.00000004359181     0.00000003890577
   56     0.00000000763681     0.00000001712557     0.00000002237893     0.00000005183257     0.00000005213950
   57     0.00000001406325     0.00000001903155     0.00000000482217     0.00000003877551     0.00000002438893
   58     0.00000003891046     0.00000015994441     0.00000008290064     0.00000031683348     0.00000070604901
   59     0.00000000363304     0.00000000751989     0.00000000186827     0.00000000814184     0.00000001106609
   60     0.00000000111698     0.00000000380717     0.00000000130862     0.00000000651705     0.00000001159911
   61     0.00000000162857     0.00000000330295     0.00000000117970     0.00000000343897     0.00000001102340
   62     0.00000000419486     0.00000001242065     0.00000000465535     0.00000003257524     0.00000002529115
   63     0.00000002901834     0.00000009585766     0.00000004466000     0.00000028330880     0.00000083010269
   64     0.00000000378298     0.00000000974046     0.00000001435287     0.00000005704604     0.00000004487693
   65     0.00000000678873     0.00000001794693     0.00000000914189     0.00000003403953     0.00000005712102
   66     0.00090971666909     0.00029097669825     0.01031478117252     0.01623546327178     0.05708722487327
   67     0.00077098202972     0.00026620458399     0.00934378985845     0.01648650890494     0.05872591061713
   68     0.00023463066159     0.00006179893102     0.00205210715525     0.00889184631156     0.05972089429204

                16                  17                  18                  19                  20

    1     0.00000185215951     0.00001158250241     0.00001914193658     0.00013410587538     0.00003215261179
    2     0.00000446796467     0.00001728920143     0.00004231788204     0.00021972761885     0.00004764316405
    3     0.00003099415477     0.00004607272109     0.00023087799086     0.00167240564614     0.00020873543131
    4     0.00016526020328     0.00023403706982     0.00122788662454     0.00892424608963     0.00188556054912
    5     0.00000821884026     0.00002732997469     0.00014548481597     0.00047601115668     0.00026782344134
    6     0.00000276262537     0.00000543121695     0.00003093475077     0.00016543250881     0.00004086656524
    7     0.00014110405307     0.00024312569728     0.00047950555309     0.00514914823094     0.00010623243728
    8     0.00020264059377     0.00138057179978     0.00025474938129     0.00314569073145     0.00002454852233
    9     0.00016109268234     0.00046162291039     0.00013597882377     0.00149137461713     0.00001645554519
   10     0.00048801400922     0.00133632350616     0.00040440598466     0.00431330737276     0.00005584349121
   11     0.00238695328794     0.00411449862899     0.00231429951577     0.02761874909375     0.00031469222388
   12     0.00101879973316     0.00249379101797     0.00422483620319     0.05171763804616     0.00098763723576
   13     0.01449621614834     0.01221919253712     0.01316049301907     0.11051473119219     0.00129396571610
   14     0.12518456007127     0.11921538355058     0.12255587220065     1.40330117270692     0.01478229704143
   15     1.44393715235992     0.12466733322406     0.12056875230338     0.11933253721345     0.01097239423965
   16     0.00000000000000     1.44415449502522     0.13285923422878     0.12514260247986     0.01377496899182
   17     1.44415449502522     0.00000000000000     1.40074125149663     0.12171635177890     0.10474067091586
   18     0.13285923422878     1.40074125149663     0.00000000000000     1.36380377285772     1.12631793658687
   19     0.12514260247986     0.12171635177890     1.36380377285772     0.00000000000000     0.12265115793562
   20     0.01377496899182     0.10474067091586     1.12631793658687     0.12265115793562     0.00000000000000
   21     0.00283256556026     0.03187438231333     0.08686158778930     0.02240154760034     1.31927662532153
   22     0.00036098465773     0.00351457945787     0.01516732614381     0.00230896794764     0.11539273536564
   23     0.00012033211104     0.00085962973918     0.00327949363778     0.00062620723653     0.03070093282887
   24     0.00002042695611     0.00017934727108     0.00044171884417     0.00012168004062     0.00353622164521
   25     0.00001823350030     0.00011747412105     0.00065090260842     0.00006614200369     0.00311942477286
   26     0.00002071204231     0.00018311459138     0.00043576937303     0.00014036078276     0.00319859296264
   27     0.00010538460224     0.00088020496972     0.00290439633970     0.00060560476723     0.02720513816983
   28     0.00000184168945     0.00001145713595     0.00004777660169     0.00000646587157     0.00022126472155
   29     0.00000088461016     0.00000479722930     0.00002918358578     0.00000239194907     0.00010538297201
   30     0.00000042354293     0.00000188595752     0.00000655006660     0.00000135556728     0.00002850312618
   31     0.00000031012770     0.00000311327636     0.00000736551256     0.00000299784192     0.00003232704845
   32     0.00000012646135     0.00000049578397     0.00000358178293     0.00000209511111     0.00000583006009
   33     0.00000005401718     0.00000025070821     0.00000086538726     0.00000028056561     0.00000145116833
   34     0.00000031872099     0.00000291274061     0.00000690460523     0.00000266395989     0.00002896844699
   35     0.00000029380722     0.00000157879379     0.00000647706924     0.00000141973778     0.00002728980336
   36     0.00347679722141     0.04858335716138     0.03155169556190     0.00541700513542     0.19577878595923
   37     0.11582662666237     0.01442255973088     0.00740023716011     0.01397029200751     0.00070060076420
   38     0.00000027928084     0.00000054486032     0.00000366516327     0.00002132679144     0.00000341652679
   39     0.00000112338992     0.00000176889545     0.00000485301713     0.00003390657186     0.00000432318458
   40     0.00013344879154     0.00017975870085     0.00123264578877     0.00724032045605     0.00135857692440
   41     0.00000030272250     0.00000055907342     0.00000215262945     0.00001199179010     0.00000403513967
   42     0.00000959139087     0.00004944531966     0.00002779602414     0.00019401789213     0.00000588037189
   43     0.00001547266377     0.00001091916194     0.00001440156790     0.00009994621493     0.00000151160506
   44     0.00157149878033     0.00105360686945     0.00129193861008     0.01032324310101     0.00023878521534
   45     0.87114791195332     0.07905543540029     0.01173644828822     0.00563565032285     0.00103912747191
   46     0.07727732073398     0.85957022126612     0.07548410409805     0.01122419981239     0.01504748101264
   47     0.00567580619250     0.01034962440161     0.07205881617376     0.84030188410922     0.02347680390552
   48     0.00138849932575     0.01034814188124     0.06214050299631     0.02061691882775     0.93395764474199
   49     0.00002371435392     0.00014024408650     0.00059050862799     0.00010154412321     0.00505320536594
   50     0.00000236769538     0.00001861347186     0.00004273001981     0.00001228428628     0.00024081716605
   51     0.00000291110269     0.00002105694069     0.00004353827234     0.00001483763782     0.00025128179654
   52     0.00001488618565     0.00010832299656     0.00035121400399     0.00006855629522     0.00370878672296
   53     0.00000035701200     0.00000211413597     0.00000954333852     0.00000175683600     0.00005015240343
   54     0.00000039638952     0.00000221418389     0.00001016371626     0.00000158073503     0.00005388943324
   55     0.00000007096265     0.00000038577316     0.00000089204076     0.00000028316225     0.00000713722884
   56     0.00000005769405     0.00000028346903     0.00000187658801     0.00000038402869     0.00000576130373
   57     0.00000002015393     0.00000012475941     0.00000050314907     0.00000024244456     0.00000236120634
   58     0.00000058231792     0.00000469745414     0.00000897282464     0.00000400828745     0.00004111054327
   59     0.00000001687149     0.00000005115166     0.00000023838267     0.00000003420004     0.00000044257932
   60     0.00000000655401     0.00000003249281     0.00000009474327     0.00000005412810     0.00000033982177
   61     0.00000000965184     0.00000003253359     0.00000010244026     0.00000001991167     0.00000031545348
   62     0.00000002212176     0.00000016303610     0.00000051661748     0.00000018186938     0.00000224742989
   63     0.00000063269249     0.00000426833215     0.00000747103401     0.00000324969302     0.00003362456627
   64     0.00000005305455     0.00000037716679     0.00000224444244     0.00000031651145     0.00000579931266
   65     0.00000005987209     0.00000033963335     0.00000088563935     0.00000027211446     0.00000670110609
   66     0.01479487252690     0.00124654285591     0.00280237542844     0.00120481260044     0.00032223243686
   67     0.01536642664649     0.00127759026809     0.00296046905498     0.00122110084327     0.00035027432164
   68     0.02397662837418     0.00192484523821     0.00055635948674     0.00108782199830     0.00008456799049

                21                  22                  23                  24                  25

    1     0.00000903221202     0.00003757835022     0.00009856401220     0.00005934032650     0.00001682571052
    2     0.00000911711944     0.00002334309282     0.00005073688696     0.00003864351773     0.00002007782552
    3     0.00003158594166     0.00002158960790     0.00005107250101     0.00006441151129     0.00002285873326
    4     0.00023825713043     0.00024434734353     0.00063416139500     0.00041665411965     0.00007425326186
    5     0.00008528064107     0.00048285521849     0.00241171755763     0.00288942108858     0.00055094755372
    6     0.00001350651983     0.00007045409253     0.00023357685008     0.00032517889859     0.00009903776172
    7     0.00001742059816     0.00000514187181     0.00000948960416     0.00000906933212     0.00000282929181
    8     0.00000853283112     0.00000194956070     0.00000340966887     0.00000458297572     0.00000236520822
    9     0.00000498307608     0.00000121655599     0.00000096415351     0.00000064834722     0.00000034341606
   10     0.00001639618571     0.00000347673641     0.00000148263989     0.00000038506517     0.00000055162772
   11     0.00006036217750     0.00001420226030     0.00000572936097     0.00000128187233     0.00000096166988
   12     0.00011495438333     0.00003526102337     0.00002783902958     0.00000336491488     0.00000310389722
   13     0.00030882087922     0.00005571405278     0.00001294835153     0.00000213070322     0.00000261091898
   14     0.00277636263697     0.00036508343142     0.00009055761451     0.00001735411266     0.00001426873458
   15     0.00577603363677     0.00041950626951     0.00019986114387     0.00005929063185     0.00000726601074
   16     0.00283256556026     0.00036098465773     0.00012033211104     0.00002042695611     0.00001823350030
   17     0.03187438231333     0.00351457945787     0.00085962973918     0.00017934727108     0.00011747412105
   18     0.08686158778930     0.01516732614381     0.00327949363778     0.00044171884417     0.00065090260842
   19     0.02240154760034     0.00230896794764     0.00062620723653     0.00012168004062     0.00006614200369
   20     1.31927662532153     0.11539273536564     0.03070093282887     0.00353622164521     0.00311942477286
   21     0.00000000000000     0.95914680718784     0.10890425201210     0.01438686504389     0.00959549847481
   22     0.95914680718784     0.00000000000000     1.40147035634167     0.12861514750509     0.12565897575903
   23     0.10890425201210     1.40147035634167     0.00000000000000     1.46037104699211     0.12610194099532
   24     0.01438686504389     0.12861514750509     1.46037104699211     0.00000000000000     1.40219086387194
   25     0.00959549847481     0.12565897575903     0.12610194099532     1.40219086387194     0.00000000000000
   26     0.01441152396437     0.12859314962981     0.13224730055844     0.12583130206498     1.40127958022628
   27     0.10971840909829     1.40039130177895     0.12438174612251     0.13240454205620     0.12592787312174
   28     0.00069723372401     0.00920142797713     0.01454405186083     0.10927539706349     1.01702242900365
   29     0.00030760300516     0.00439293558429     0.00193108530054     0.02143401597281     0.08699540274837
   30     0.00008426894383     0.00102261831283     0.00195641853359     0.01602535187287     0.02144654649496
   31     0.00006104765465     0.00166674360661     0.00937346474255     0.02369613596429     0.02035894205230
   32     0.00004907797987     0.00064062524544     0.00103836191163     0.00259872669182     0.00404743801264
   33     0.00000703572808     0.00010039748287     0.00024473924965     0.00067465859107     0.00110973649474
   34     0.00005639162036     0.00141318511885     0.00191714926594     0.00464358387218     0.01902511901156
   35     0.00008030628421     0.00099072732784     0.00088493694856     0.00441739540929     0.02017017888268
   36     2.20870483818270     0.13997011833861     0.02838264112446     0.00285745051787     0.00353851556030
[...]
   15     0.00000005213950     0.00000002438893     0.00000070604901     0.00000001106609     0.00000001159911
   16     0.00000005769405     0.00000002015393     0.00000058231792     0.00000001687149     0.00000000655401
   17     0.00000028346903     0.00000012475941     0.00000469745414     0.00000005115166     0.00000003249281
   18     0.00000187658801     0.00000050314907     0.00000897282464     0.00000023838267     0.00000009474327
   19     0.00000038402869     0.00000024244456     0.00000400828745     0.00000003420004     0.00000005412810
   20     0.00000576130373     0.00000236120634     0.00004111054327     0.00000044257932     0.00000033982177
   21     0.00002200110935     0.00000663495065     0.00008161262497     0.00000151736743     0.00000082188085
   22     0.00021473240108     0.00010178811952     0.00189383792736     0.00001041882335     0.00001133849180
   23     0.00033104925632     0.00025673877829     0.00836229487681     0.00002139374070     0.00003426213943
   24     0.00086279466582     0.00082984544042     0.02122986082424     0.00008443390337     0.00007068854647
   25     0.00136853412638     0.00071264887893     0.01330267284355     0.00016789994551     0.00009965208557
   26     0.00050867862226     0.00024199134067     0.00425444469752     0.00008192640521     0.00004397518576
   27     0.00015288907175     0.00010657679772     0.00204683811783     0.00002122857376     0.00002364270783
   28     0.01199732518371     0.00106162552555     0.00636102497313     0.00063340792257     0.00011549437034
   29     0.06396772140848     0.01160065779960     0.01182056361921     0.00295750531356     0.00063501789525
   30     0.79432100355602     0.05774126778395     0.04405321421257     0.01244231538282     0.00385167732505
   31     0.04849231314356     0.85700635512230     0.79132810768216     0.01631712063352     0.01981408372660
   32     0.01333251303470     0.05369175738201     0.05806026968493     0.06832006843081     0.06284893551564
   33     0.01426066762653     0.02165303837098     0.01200181574278     0.91044050623601     0.91981152549185
   34     0.00786848615368     0.01418290395584     0.01952100056292     0.01648060801461     0.01272596573657
   35     0.02105364240049     0.00209876984918     0.00711086637576     0.01228665306019     0.00168481507330
   36     0.00000550532521     0.00000207320910     0.00003695533502     0.00000027271155     0.00000051252371
   37     0.00000001153587     0.00000000867028     0.00000008645092     0.00000000613700     0.00000000241691
   38     0.00000002492477     0.00000001471965     0.00000018720449     0.00000000324537     0.00000000255572
   39     0.00000002227858     0.00000000406549     0.00000022108333     0.00000000200175     0.00000000072825
   40     0.00000038345734     0.00000025127640     0.00000660805742     0.00000008499880     0.00000003105609
   41     0.00000381017498     0.00000018417516     0.00000584130756     0.00000018760008     0.00000005438032
   42     0.00000000065218     0.00000000068410     0.00000000686298     0.00000000023146     0.00000000005956
   43     0.00000000113084     0.00000000017780     0.00000000529164     0.00000000021071     0.00000000005785
   44     0.00000000317034     0.00000000071081     0.00000001072782     0.00000000038953     0.00000000008330
   45     0.00000001918141     0.00000000650344     0.00000014082819     0.00000000306706     0.00000000099104
   46     0.00000016679509     0.00000004464496     0.00000221389530     0.00000000931009     0.00000000427225
   47     0.00000018669378     0.00000015553064     0.00000118631714     0.00000002556735     0.00000002959626
   48     0.00000280353040     0.00000113059021     0.00002593943858     0.00000040150617     0.00000016310376
   49     0.00003854311059     0.00002198980110     0.00061919125606     0.00000185856977     0.00000242079084
   50     0.00011970470002     0.00016833057599     0.00352707016810     0.00003656141507     0.00001663156229
   51     0.00011843014004     0.00001940904797     0.00030318078705     0.00003729849712     0.00000867053569
   52     0.00001260810602     0.00000419947850     0.00006191576563     0.00000198755147     0.00000113081636
   53     0.00115333001390     0.00010206405784     0.00084599254072     0.00006564308313     0.00002073605495
   54     0.00054900352100     0.00032235187354     0.00037356377122     0.00006380663063     0.00002085397364
   55     0.02104547882895     0.00566269006039     0.00818933347014     0.00047137650257     0.00012820184912
   56     0.00000000000000     0.00917663485490     0.01962281707383     0.00700113228606     0.00152919479957
   57     0.00917663485490     0.00000000000000     0.01943149036645     0.00303449317148     0.00687838159879
   58     0.01962281707383     0.01943149036645     0.00000000000000     0.00094177981286     0.00103652735600
   59     0.00700113228606     0.00303449317148     0.00094177981286     0.00000000000000     0.03487425336312
   60     0.00152919479957     0.00687838159879     0.00103652735600     0.03487425336312     0.00000000000000
   61     0.00059226308477     0.00114743095067     0.00066762249779     0.03486120335966     0.03774268520004
   62     0.00039088725455     0.00127821559007     0.00097375957868     0.00315586204464     0.00116257580481
   63     0.00084070246184     0.00093010127751     0.00510283340459     0.00092793212358     0.00067548904742
   64     0.00539282202944     0.00039436567513     0.00083140207148     0.00683674122961     0.00058545418630
   65     0.00082830530056     0.00038942909897     0.00042421465923     0.00049239514355     0.00022152446547
   66     0.00000000317742     0.00000000145323     0.00000004106934     0.00000000031063     0.00000000042245
   67     0.00000000189078     0.00000000072529     0.00000003077764     0.00000000019368     0.00000000034240
   68     0.00000000089291     0.00000000042531     0.00000000910122     0.00000000020630     0.00000000015006

                61                  62                  63                  64                  65

    1     0.00000000803808     0.00000004381793     0.00000076692633     0.00000007216608     0.00000011949582
    2     0.00000000366759     0.00000004220801     0.00000038423070     0.00000002574922     0.00000008903822
    3     0.00000000932825     0.00000003842920     0.00000060127777     0.00000004947160     0.00000013313384
    4     0.00000005952091     0.00000042785384     0.00000940171150     0.00000070206584     0.00000068882658
    5     0.00000018037378     0.00000154503664     0.00002017818481     0.00000135170872     0.00000274503646
    6     0.00000010398902     0.00000077606479     0.00001438633850     0.00000041285344     0.00000245481329
    7     0.00000000292652     0.00000001470301     0.00000009188072     0.00000001461637     0.00000002134322
    8     0.00000000083271     0.00000001272721     0.00000005293880     0.00000000361865     0.00000002329401
    9     0.00000000045026     0.00000000107408     0.00000000690146     0.00000000132077     0.00000000219398
   10     0.00000000045847     0.00000000289801     0.00000001854054     0.00000000266449     0.00000000361127
   11     0.00000000162857     0.00000000419486     0.00000002901834     0.00000000378298     0.00000000678873
   12     0.00000000330295     0.00000001242065     0.00000009585766     0.00000000974046     0.00000001794693
   13     0.00000000117970     0.00000000465535     0.00000004466000     0.00000001435287     0.00000000914189
   14     0.00000000343897     0.00000003257524     0.00000028330880     0.00000005704604     0.00000003403953
   15     0.00000001102340     0.00000002529115     0.00000083010269     0.00000004487693     0.00000005712102
   16     0.00000000965184     0.00000002212176     0.00000063269249     0.00000005305455     0.00000005987209
   17     0.00000003253359     0.00000016303610     0.00000426833215     0.00000037716679     0.00000033963335
   18     0.00000010244026     0.00000051661748     0.00000747103401     0.00000224444244     0.00000088563935
   19     0.00000001991167     0.00000018186938     0.00000324969302     0.00000031651145     0.00000027211446
   20     0.00000031545348     0.00000224742989     0.00003362456627     0.00000579931266     0.00000670110609
   21     0.00000078417878     0.00000580428070     0.00006878664822     0.00002125152914     0.00001978746583
   22     0.00001105424035     0.00009313156413     0.00153397790915     0.00021181929316     0.00017726054396
   23     0.00002418841339     0.00009737707634     0.00184182631600     0.00012944296504     0.00015518903831
   24     0.00004278180426     0.00021707042519     0.00360963002877     0.00050078496428     0.00048646162655
   25     0.00009959294299     0.00064814414430     0.01218747441224     0.00138565090078     0.00539365368115
   26     0.00007133579884     0.00076406243488     0.02094358749078     0.00081438660177     0.00556122502260
   27     0.00003294698800     0.00024343953941     0.00761226550687     0.00031355054758     0.00039966275196
   28     0.00011544928559     0.00103470404363     0.00618306654151     0.01190530675796     0.02042479019764
   29     0.00064706694882     0.01212352311909     0.01183885704921     0.06357292790572     0.05584352607444
   30     0.00170292734276     0.00201822498877     0.00714549027811     0.02109030100274     0.01242265352656
   31     0.01262930555621     0.01454086426988     0.01960800391702     0.00776279651165     0.00244200342569
   32     0.06286670594283     0.05310710284000     0.05828622158883     0.01322483921078     0.01068248122218
   33     0.91996512798618     0.02231753878850     0.01191223926116     0.01395304378050     0.00154707717394
   34     0.02014303990134     0.84808768890384     0.79842646247862     0.04852591828299     0.05918987492041
   35     0.00379595618357     0.05739263504771     0.04442200293210     0.79620260489273     0.88052258753274
   36     0.00000052388334     0.00000210777352     0.00003109586869     0.00000536311076     0.00001008347509
   37     0.00000000452817     0.00000001243547     0.00000008271895     0.00000002314918     0.00000001660542
   38     0.00000000066611     0.00000000760184     0.00000010791283     0.00000000528435     0.00000001694241
   39     0.00000000070115     0.00000000593270     0.00000015301201     0.00000001119188     0.00000002064519
   40     0.00000003154150     0.00000014893180     0.00000313031132     0.00000033082282     0.00000021735708
   41     0.00000004673796     0.00000016282027     0.00000549390788     0.00000021998571     0.00000107594609
   42     0.00000000008125     0.00000000035151     0.00000000606544     0.00000000023376     0.00000000078481
   43     0.00000000005452     0.00000000006570     0.00000000208666     0.00000000028340     0.00000000047820
   44     0.00000000013766     0.00000000054397     0.00000000733711     0.00000000165824     0.00000000205625
   45     0.00000000067331     0.00000000667250     0.00000010971079     0.00000002217002     0.00000001052938
   46     0.00000000364531     0.00000002921674     0.00000202977820     0.00000012590242     0.00000014078391
   47     0.00000001278234     0.00000013083726     0.00000130036630     0.00000019927420     0.00000006703124
   48     0.00000016578983     0.00000102704428     0.00002212271839     0.00000264572364     0.00000343141609
   49     0.00000116017604     0.00000349682299     0.00005542061719     0.00001206322156     0.00002148841652
   50     0.00000729248979     0.00001832152164     0.00021783506078     0.00011916234196     0.00007216928084
   51     0.00001805207818     0.00017645964028     0.00384038141915     0.00010614443592     0.00247815419058
   52     0.00000256327828     0.00002440981627     0.00060006519931     0.00004107115976     0.00002608334332
   53     0.00002191832445     0.00035174059127     0.00034792755719     0.00051334483708     0.00107082596366
   54     0.00001998442783     0.00009642222536     0.00091429491826     0.00114991316191     0.00616721341954
   55     0.00022588083264     0.00043263872089     0.00040402966310     0.00084031636961     0.00115059374296
   56     0.00059226308477     0.00039088725455     0.00084070246184     0.00539282202944     0.00082830530056
   57     0.00114743095067     0.00127821559007     0.00093010127751     0.00039436567513     0.00038942909897
   58     0.00066762249779     0.00097375957868     0.00510283340459     0.00083140207148     0.00042421465923
   59     0.03486120335966     0.00315586204464     0.00092793212358     0.00683674122961     0.00049239514355
   60     0.03774268520004     0.00116257580481     0.00067548904742     0.00058545418630     0.00022152446547
   61     0.00000000000000     0.00710976771908     0.00103875020768     0.00146859599105     0.00013543369310
   62     0.00710976771908     0.00000000000000     0.01900303115754     0.00920258129263     0.00569937323713
   63     0.00103875020768     0.01900303115754     0.00000000000000     0.01885755657554     0.00814418554296
   64     0.00146859599105     0.00920258129263     0.01885755657554     0.00000000000000     0.02231558355105
   65     0.00013543369310     0.00569937323713     0.00814418554296     0.02231558355105     0.00000000000000
   66     0.00000000023157     0.00000000066485     0.00000004129927     0.00000000068423     0.00000000259153
   67     0.00000000055003     0.00000000090238     0.00000003664096     0.00000000307295     0.00000000223302
   68     0.00000000005672     0.00000000063112     0.00000000941208     0.00000000083415     0.00000000108236

                66                  67                  68

    1     0.00000106133921     0.00000083639828     0.00000019618797
    2     0.00000267716670     0.00000201491095     0.00000072839759
    3     0.00001033437615     0.00001127196837     0.00000374650915
    4     0.00000850909071     0.00000813961723     0.00000697421418
    5     0.00000073165240     0.00000047589884     0.00000045361866
    6     0.00000118071838     0.00000053537618     0.00000015295320
    7     0.00004612116442     0.00004287474874     0.00001442457576
    8     0.00010544045239     0.00008524557580     0.00000428431065
    9     0.00004550738757     0.00004477316674     0.00000424609076
   10     0.00033906694590     0.00028262315446     0.00003430915640
   11     0.00090971666909     0.00077098202972     0.00023463066159
   12     0.00029097669825     0.00026620458399     0.00006179893102
   13     0.01031478117252     0.00934378985845     0.00205210715525
   14     0.01623546327178     0.01648650890494     0.00889184631156
   15     0.05708722487327     0.05872591061713     0.05972089429204
   16     0.01479487252690     0.01536642664649     0.02397662837418
   17     0.00124654285591     0.00127759026809     0.00192484523821
   18     0.00280237542844     0.00296046905498     0.00055635948674
   19     0.00120481260044     0.00122110084327     0.00108782199830
   20     0.00032223243686     0.00035027432164     0.00008456799049
   21     0.00020214464568     0.00021222852719     0.00003119265578
   22     0.00001570710367     0.00001613070125     0.00000670070184
   23     0.00000739415598     0.00000823752757     0.00000175443991
   24     0.00000217668979     0.00000249539249     0.00000029313027
   25     0.00000029126083     0.00000025127234     0.00000024655827
   26     0.00000276543774     0.00000259520122     0.00000026745795
   27     0.00000863049901     0.00000849002775     0.00000162799829
   28     0.00000003535992     0.00000004247486     0.00000003677801
   29     0.00000000832310     0.00000000819082     0.00000001265989
   30     0.00000001673971     0.00000000770770     0.00000000576683
   31     0.00000002487805     0.00000002613403     0.00000000579303
   32     0.00000000438220     0.00000000450200     0.00000000146350
   33     0.00000000077811     0.00000000122038     0.00000000057414
   34     0.00000002835505     0.00000002689303     0.00000000596501
   35     0.00000000644750     0.00000001387593     0.00000000574891
   36     0.00013207041189     0.00012709426602     0.00001592301023
   37     0.91833713585959     0.91946939498073     0.92030939499785
   38     0.00000009375389     0.00000009036177     0.00000003840469
   39     0.00000026975058     0.00000028630270     0.00000009330770
   40     0.00000614617909     0.00000657460876     0.00000704223238
   41     0.00000006643648     0.00000005469206     0.00000003736025
   42     0.00000424950824     0.00000357233311     0.00000042175462
   43     0.00000329645274     0.00000299293359     0.00000062136763
   44     0.00480842613703     0.00483024510799     0.00113392075559
   45     0.00120335728827     0.00128745864512     0.00777778483432
   46     0.00021541989692     0.00021072586459     0.00012896115303
   47     0.00018277140444     0.00018490583752     0.00035282236533
   48     0.00004491268198     0.00003914490989     0.00003778059542
   49     0.00000171303927     0.00000165419378     0.00000040071080
   50     0.00000022565600     0.00000013681831     0.00000005960201
   51     0.00000017470798     0.00000030966464     0.00000006542905
   52     0.00000115593185     0.00000093637609     0.00000037220635
   53     0.00000001411680     0.00000001507174     0.00000000698807
   54     0.00000001366726     0.00000001049764     0.00000000752943
   55     0.00000000162617     0.00000000154717     0.00000000119326
   56     0.00000000317742     0.00000000189078     0.00000000089291
   57     0.00000000145323     0.00000000072529     0.00000000042531
   58     0.00000004106934     0.00000003077764     0.00000000910122
   59     0.00000000031063     0.00000000019368     0.00000000020630
   60     0.00000000042245     0.00000000034240     0.00000000015006
   61     0.00000000023157     0.00000000055003     0.00000000005672
   62     0.00000000066485     0.00000000090238     0.00000000063112
   63     0.00000004129927     0.00000003664096     0.00000000941208
   64     0.00000000068423     0.00000000307295     0.00000000083415
   65     0.00000000259153     0.00000000223302     0.00000000108236
   66     0.00000000000000     0.03539649897363     0.03907326895247
   67     0.03539649897363     0.00000000000000     0.03913279715234
   68     0.03907326895247     0.03913279715234     0.00000000000000



  Atomic Valences: 

 #  #
 Irrep: 1
      1:  4.3931166
      2:  4.4249358
      3:  4.6041205
      4:  4.5745119
      5:  3.8917927
      6:  4.5453153
      7:  4.7409853
      8:  4.3704824
      9:  4.5242018
     10:  3.8696663
     11:  5.0023047
     12:  3.9491910
     13:  4.0430531
     14:  4.6620095
     15:  4.6239407
     16:  4.4383531
     17:  4.4038398
     18:  4.6697076
     19:  4.4165944
     20:  4.0832403
     21:  5.0289108
     22:  4.6454107
     23:  4.4394137
     24:  4.4815653
     25:  4.7209755
     26:  4.4782460
     27:  4.4363164
     28:  4.5082090
     29:  4.2466977
     30:  4.5610498
     31:  4.5727821
     32:  4.2233071
     33:  4.2845341
     34:  4.5717154
     35:  4.5603074
     36:  2.7594451
     37:  4.1502789
     38:  1.0984277
     39:  1.1024123
     40:  1.1098564
     41:  1.0911909
     42:  1.1102505
     43:  1.0859972
     44:  1.1776930
     45:  1.0998478
     46:  1.1073588
     47:  1.1327531
     48:  1.1725474
     49:  1.0962065
     50:  1.1070235
     51:  1.1069829
     52:  1.0958442
     53:  1.1089062
     54:  1.1088640
     55:  1.0949130
     56:  1.0472028
     57:  1.0702666
     58:  1.0646185
     59:  1.1330745
     60:  1.1066787
     61:  1.1072105
     62:  1.0617806
     63:  1.0676826
     64:  1.0483023
     65:  1.1049350
     66:  1.1054202
     67:  1.1081936
     68:  1.1066750


    Psi4 stopped on: Tuesday, 14 April 2020 08:32PM
    Psi4 wall time for execution: 0:22:00.70

*** Psi4 exiting successfully. Buy a developer a beer!
