
    -----------------------------------------------------------------------
          Psi4: An Open-Source Ab Initio Electronic Structure Package
                               Psi4 1.3.2 release

                         Git: Rev {HEAD} ecbda83 


    R. M. Parrish, L. A. Burns, D. G. A. Smith, A. C. Simmonett,
    A. E. DePrince III, E. G. Hohenstein, U. Bozkaya, A. Yu. Sokolov,
    R. Di Remigio, R. M. Richard, J. F. Gonthier, A. M. James,
    H. R. McAlexander, A. Kumar, M. Saitow, X. Wang, B. P. Pritchard,
    P. Verma, H. F. Schaefer III, K. Patkowski, R. A. King, E. F. Valeev,
    F. A. Evangelista, J. M. Turney, T. D. Crawford, and C. D. Sherrill,
    J. Chem. Theory Comput. 13(7) pp 3185--3197 (2017).
    (doi: 10.1021/acs.jctc.7b00174)


                         Additional Contributions by
    P. Kraus, H. Kruse, M. H. Lechner, M. C. Schieber, R. A. Shaw,
    A. Alenaizan, R. Galvelis, Z. L. Glick, S. Lehtola, and J. P. Misiewicz

    -----------------------------------------------------------------------


    Psi4 started on: Tuesday, 14 April 2020 12:45PM

    Process ID: 126939
    Host:       node94.bme.utexas.edu
    PSIDATADIR: /home/bdw2292/miniconda3/envs/p4env/share/psi4
    Memory:     500.0 MiB
    Threads:    1
    
  ==> Input File <==

--------------------------------------------------------------------------
molecule { 
0 1
 C   -1.457207    5.054181   -0.367849
 C   -2.765079    4.556836   -0.290524
 C   -2.981494    3.177283   -0.105980
 C   -1.816574    2.381375    0.022436
 N   -0.559157    2.837480   -0.046267
 C   -0.392337    4.154448   -0.244269
 C   -4.347750    2.542550   -0.031699
 C   -5.566480    3.238831    0.020428
 C   -6.717665    2.447493    0.116869
 N   -6.713942    1.116351    0.148067
 C   -5.501873    0.530193    0.074775
 N   -4.349827    1.197040   -0.012178
 N   -5.507651   -0.854116    0.091697
 C   -4.461575   -1.846428    0.131846
 C   -4.770167   -3.181943    0.532626
 C   -3.709745   -4.102809    0.577608
 C   -2.384768   -3.786879    0.255087
 C   -2.097513   -2.482711   -0.161124
 C   -3.139420   -1.543636   -0.218524
 N   -0.805664   -1.987415   -0.530905
 C    0.448847   -2.545115   -0.440218
 C    1.638666   -1.655716   -0.755301
 C    1.644928   -0.259830   -0.587122
 C    2.771861    0.490335   -0.930524
 C    3.947405   -0.121739   -1.405367
 C    3.929234   -1.520226   -1.566949
 C    2.805781   -2.278486   -1.229340
 C    5.175694    0.710792   -1.777627
 N    6.258988    0.878197   -0.793771
 C    7.112127   -0.283011   -0.452109
 C    6.648260   -1.080752    0.794625
 N    6.445418   -0.244900    2.002651
 C    7.644733    0.088346    2.780081
 C    5.546857    0.883028    1.656481
 C    6.000076    1.694422    0.414928
 O    0.621427   -3.716406   -0.139009
 C   -6.166964   -3.632532    0.925983
 H   -1.265941    6.112094   -0.521171
 H   -3.593184    5.253180   -0.397641
 H   -1.899580    1.316503    0.215759
 H    0.641588    4.492050   -0.296824
 H   -5.657890    4.318041    0.014060
 H   -7.712828    2.887304    0.176747
 H   -6.455432   -1.181875    0.201109
 H   -3.910910   -5.127272    0.888095
 H   -1.593134   -4.522864    0.318669
 H   -2.924709   -0.543392   -0.555844
 H   -0.816276   -1.041365   -0.884154
 H    0.768387    0.245909   -0.188241
 H    2.733339    1.572070   -0.802454
 H    4.811391   -2.031314   -1.951649
 H    2.814295   -3.360108   -1.338091
 H    5.626165    0.275198   -2.680781
 H    4.843995    1.724266   -2.044160
 H    7.234865   -0.988400   -1.380461
 H    8.457120    0.247270   -0.158187
 H    7.538750   -2.033986    1.076531
 H    5.514023   -1.678359    0.547284
 H    8.321995    0.727065    2.202092
 H    8.177546   -0.826363    3.064450
 H    7.364503    0.612873    3.700754
 H    5.427897    1.628409    2.647339
 H    4.234530    0.306968    1.391196
 H    7.258207    2.365541    0.759392
 H    5.206048    2.566210    0.169161
 H   -6.890829   -3.534940    0.104392
 H   -6.548901   -3.043026    1.764090
 H   -6.199538   -4.678694    1.241074
}
memory 20GB
set_num_threads(6)
psi4_io.set_default_path("/scratch/bdw2292")
set freeze_core True
E, wfn = energy('mp2/6-311++G**',return_wfn=True)
oeprop(wfn,"WIBERG_LOWDIN_INDICES")
clean()
--------------------------------------------------------------------------

  Memory set to  18.626 GiB by Python driver.
  Threads set to 6 by Python driver.
    SCF Algorithm Type (re)set to DF.

*** tstart() called on node94.bme.utexas.edu
*** at Tue Apr 14 12:45:02 2020

   => Loading Basis Set <=

    Name: 6-311++G**
    Role: ORBITAL
    Keyword: BASIS
    atoms 1-4, 6-9, 11, 14-19, 21-28, 30-31, 33-35, 37 entry C          line   119 file /home/bdw2292/miniconda3/envs/p4env/share/psi4/basis/6-311ppgss.gbs 
    atoms 5, 10, 12-13, 20, 29, 32                     entry N          line   140 file /home/bdw2292/miniconda3/envs/p4env/share/psi4/basis/6-311ppgss.gbs 
    atoms 36                                           entry O          line   161 file /home/bdw2292/miniconda3/envs/p4env/share/psi4/basis/6-311ppgss.gbs 
    atoms 38-68                                        entry H          line    42 file /home/bdw2292/miniconda3/envs/p4env/share/psi4/basis/6-311ppgss.gbs 


         ---------------------------------------------------------
                                   SCF
               by Justin Turney, Rob Parrish, Andy Simmonett
                          and Daniel G. A. Smith
                              RHF Reference
                        6 Threads,  19073 MiB Core
         ---------------------------------------------------------

  ==> Geometry <==

    Molecular point group: c1
    Full point group: C1

    Geometry (in Angstrom), charge = 0, multiplicity = 1:

       Center              X                  Y                   Z               Mass       
    ------------   -----------------  -----------------  -----------------  -----------------
         C           -1.341572961769     5.047334552911    -0.347615829680    12.000000000000
         C           -2.649444961769     4.549989552911    -0.270290829680    12.000000000000
         C           -2.865859961769     3.170436552911    -0.085746829680    12.000000000000
         C           -1.700939961769     2.374528552911     0.042669170320    12.000000000000
         N           -0.443522961769     2.830633552911    -0.026033829680    14.003074004430
         C           -0.276702961769     4.147601552911    -0.224035829680    12.000000000000
         C           -4.232115961769     2.535703552911    -0.011465829680    12.000000000000
         C           -5.450845961769     3.231984552911     0.040661170320    12.000000000000
         C           -6.602030961769     2.440646552911     0.137102170320    12.000000000000
         N           -6.598307961769     1.109504552911     0.168300170320    14.003074004430
         C           -5.386238961769     0.523346552911     0.095008170320    12.000000000000
         N           -4.234192961769     1.190193552911     0.008055170320    14.003074004430
         N           -5.392016961769    -0.860962447089     0.111930170320    14.003074004430
         C           -4.345940961769    -1.853274447089     0.152079170320    12.000000000000
         C           -4.654532961769    -3.188789447089     0.552859170320    12.000000000000
         C           -3.594110961769    -4.109655447089     0.597841170320    12.000000000000
         C           -2.269133961769    -3.793725447089     0.275320170320    12.000000000000
         C           -1.981878961769    -2.489557447089    -0.140890829680    12.000000000000
         C           -3.023785961769    -1.550482447089    -0.198290829680    12.000000000000
         N           -0.690029961769    -1.994261447089    -0.510671829680    14.003074004430
         C            0.564481038231    -2.551961447089    -0.419984829680    12.000000000000
         C            1.754300038231    -1.662562447089    -0.735067829680    12.000000000000
         C            1.760562038231    -0.266676447089    -0.566888829680    12.000000000000
         C            2.887495038231     0.483488552911    -0.910290829680    12.000000000000
         C            4.063039038231    -0.128585447089    -1.385133829680    12.000000000000
         C            4.044868038231    -1.527072447089    -1.546715829680    12.000000000000
         C            2.921415038231    -2.285332447089    -1.209106829680    12.000000000000
         C            5.291328038231     0.703945552911    -1.757393829680    12.000000000000
         N            6.374622038231     0.871350552911    -0.773537829680    14.003074004430
         C            7.227761038231    -0.289857447089    -0.431875829680    12.000000000000
         C            6.763894038231    -1.087598447089     0.814858170320    12.000000000000
         N            6.561052038231    -0.251746447089     2.022884170320    14.003074004430
         C            7.760367038231     0.081499552911     2.800314170320    12.000000000000
         C            5.662491038231     0.876181552911     1.676714170320    12.000000000000
         C            6.115710038231     1.687575552911     0.435161170320    12.000000000000
         O            0.737061038231    -3.723252447089    -0.118775829680    15.994914619570
         C           -6.051329961769    -3.639378447089     0.946216170320    12.000000000000
         H           -1.150306961769     6.105247552911    -0.500937829680     1.007825032230
         H           -3.477549961769     5.246333552911    -0.377407829680     1.007825032230
         H           -1.783945961769     1.309656552911     0.235992170320     1.007825032230
         H            0.757222038231     4.485203552911    -0.276590829680     1.007825032230
         H           -5.542255961769     4.311194552911     0.034293170320     1.007825032230
         H           -7.597193961769     2.880457552911     0.196980170320     1.007825032230
         H           -6.339797961769    -1.188721447089     0.221342170320     1.007825032230
         H           -3.795275961769    -5.134118447089     0.908328170320     1.007825032230
         H           -1.477499961769    -4.529710447089     0.338902170320     1.007825032230
         H           -2.809074961769    -0.550238447089    -0.535610829680     1.007825032230
         H           -0.700641961769    -1.048211447089    -0.863920829680     1.007825032230
         H            0.884021038231     0.239062552911    -0.168007829680     1.007825032230
         H            2.848973038231     1.565223552911    -0.782220829680     1.007825032230
         H            4.927025038231    -2.038160447089    -1.931415829680     1.007825032230
         H            2.929929038231    -3.366954447089    -1.317857829680     1.007825032230
         H            5.741799038231     0.268351552911    -2.660547829680     1.007825032230
         H            4.959629038231     1.717419552911    -2.023926829680     1.007825032230
         H            7.350499038231    -0.995246447089    -1.360227829680     1.007825032230
         H            8.572754038231     0.240423552911    -0.137953829680     1.007825032230
         H            7.654384038231    -2.040832447089     1.096764170320     1.007825032230
         H            5.629657038231    -1.685205447089     0.567517170320     1.007825032230
         H            8.437629038231     0.720218552911     2.222325170320     1.007825032230
         H            8.293180038231    -0.833209447089     3.084683170320     1.007825032230
         H            7.480137038231     0.606026552911     3.720987170320     1.007825032230
         H            5.543531038231     1.621562552911     2.667572170320     1.007825032230
         H            4.350164038231     0.300121552911     1.411429170320     1.007825032230
         H            7.373841038231     2.358694552911     0.779625170320     1.007825032230
         H            5.321682038231     2.559363552911     0.189394170320     1.007825032230
         H           -6.775194961769    -3.541786447089     0.124625170320     1.007825032230
         H           -6.433266961769    -3.049872447089     1.784323170320     1.007825032230
         H           -6.083903961769    -4.685540447089     1.261307170320     1.007825032230

  Running in c1 symmetry.

  Rotational constants: A =      0.00492  B =      0.00160  C =      0.00128 [cm^-1]
  Rotational constants: A =    147.50587  B =     47.84442  C =     38.48092 [MHz]
  Nuclear repulsion = 3688.431212144126221

  Charge       = 0
  Multiplicity = 1
  Electrons    = 262
  Nalpha       = 131
  Nbeta        = 131

  ==> Algorithm <==

  SCF Algorithm Type is DF.
  DIIS enabled.
  MOM disabled.
  Fractional occupation disabled.
  Guess Type is SAD.
  Energy threshold   = 1.00e-08
  Density threshold  = 1.00e-08
  Integral threshold = 0.00e+00

  ==> Primary Basis <==

  Basis Set: 6-311++G**
    Blend: 6-311++G**
    Number of shells: 525
    Number of basis function: 1031
    Number of Cartesian functions: 1068
    Spherical Harmonics?: true
    Max angular momentum: 2

   => Loading Basis Set <=

    Name: (6-311++G** AUX)
    Role: JKFIT
    Keyword: DF_BASIS_SCF
    atoms 1-4, 6-9, 11, 14-19, 21-28, 30-31, 33-35, 37 entry C          line   162 file /home/bdw2292/miniconda3/envs/p4env/share/psi4/basis/aug-cc-pvtz-jkfit.gbs 
    atoms 5, 10, 12-13, 20, 29, 32                     entry N          line   224 file /home/bdw2292/miniconda3/envs/p4env/share/psi4/basis/aug-cc-pvtz-jkfit.gbs 
    atoms 36                                           entry O          line   286 file /home/bdw2292/miniconda3/envs/p4env/share/psi4/basis/aug-cc-pvtz-jkfit.gbs 
    atoms 38-68                                        entry H          line    70 file /home/bdw2292/miniconda3/envs/p4env/share/psi4/basis/aug-cc-pvtz-jkfit.gbs 

  ==> Pre-Iterations <==

   -------------------------------------------------------
    Irrep   Nso     Nmo     Nalpha   Nbeta   Ndocc  Nsocc
   -------------------------------------------------------
     A       1031    1031       0       0       0       0
   -------------------------------------------------------
    Total    1031    1031     131     131     131       0
   -------------------------------------------------------

  ==> Integral Setup <==

  ==> DiskDFJK: Density-Fitted J/K Matrices <==

    J tasked:                  Yes
    K tasked:                  Yes
    wK tasked:                  No
    OpenMP threads:              6
    Integrals threads:           6
    Memory [MiB]:            14305
    Algorithm:                Core
    Integral Cache:           NONE
    Schwarz Cutoff:          1E-12
    Fitting Condition:       1E-10

   => Auxiliary Basis Set <=

  Basis Set: (6-311++G** AUX)
    Blend: AUG-CC-PVTZ-JKFIT
    Number of shells: 1544
    Number of basis function: 5274
    Number of Cartesian functions: 6552
    Spherical Harmonics?: true
    Max angular momentum: 4

  Minimum eigenvalue in the overlap matrix is 1.0899131528E-07.
  Using Symmetric Orthogonalization.

  SCF Guess: Superposition of Atomic Densities via on-the-fly atomic UHF.

  ==> Iterations <==

                           Total Energy        Delta E     RMS |[F,P]|

   @DF-RHF iter SAD: -1571.24405938923610   -1.57124e+03   0.00000e+00 
   @DF-RHF iter   1: -1571.39238861923786   -1.48329e-01   1.21204e-03 DIIS
   @DF-RHF iter   2: -1572.15413401592673   -7.61745e-01   6.38694e-04 DIIS
   @DF-RHF iter   3: -1572.34540385545597   -1.91270e-01   1.66410e-04 DIIS
   @DF-RHF iter   4: -1572.36257858948375   -1.71747e-02   6.60217e-05 DIIS
   @DF-RHF iter   5: -1572.36518310319138   -2.60451e-03   1.35690e-05 DIIS
   @DF-RHF iter   6: -1572.36533619137026   -1.53088e-04   5.91044e-06 DIIS
   @DF-RHF iter   7: -1572.36537106693459   -3.48756e-05   1.93791e-06 DIIS
   @DF-RHF iter   8: -1572.36537653150822   -5.46457e-06   7.70002e-07 DIIS
   @DF-RHF iter   9: -1572.36537745876376   -9.27256e-07   3.22938e-07 DIIS
   @DF-RHF iter  10: -1572.36537765023650   -1.91473e-07   1.44839e-07 DIIS
   @DF-RHF iter  11: -1572.36537768977769   -3.95412e-08   6.92668e-08 DIIS
   @DF-RHF iter  12: -1572.36537770040377   -1.06261e-08   2.78877e-08 DIIS
   @DF-RHF iter  13: -1572.36537770239011   -1.98634e-09   1.19930e-08 DIIS
   @DF-RHF iter  14: -1572.36537770276050   -3.70392e-10   5.69721e-09 DIIS
  Energy and wave function converged.


  ==> Post-Iterations <==

    Orbital Energies [Eh]
    ---------------------

    Doubly Occupied:                                                      

       1A    -20.520094     2A    -15.603938     3A    -15.601494  
       4A    -15.587598     5A    -15.573768     6A    -15.568827  
       7A    -15.566578     8A    -15.551860     9A    -11.374720  
      10A    -11.364120    11A    -11.334849    12A    -11.314110  
      13A    -11.310415    14A    -11.306416    15A    -11.304849  
      16A    -11.301944    17A    -11.301532    18A    -11.300888  
      19A    -11.299171    20A    -11.292694    21A    -11.290124  
      22A    -11.280928    23A    -11.276624    24A    -11.266456  
      25A    -11.256564    26A    -11.256247    27A    -11.253317  
      28A    -11.252884    29A    -11.248534    30A    -11.247038  
      31A    -11.244773    32A    -11.244116    33A    -11.243934  
      34A    -11.239450    35A    -11.233765    36A    -11.231053  
      37A    -11.224517    38A     -1.385656    39A     -1.345321  
      40A     -1.278974    41A     -1.250689    42A     -1.242406  
      43A     -1.241535    44A     -1.209802    45A     -1.196683  
      46A     -1.160536    47A     -1.139585    48A     -1.116516  
      49A     -1.075634    50A     -1.058656    51A     -1.048623  
      52A     -1.037456    53A     -1.022496    54A     -1.007719  
      55A     -0.989097    56A     -0.974694    57A     -0.946218  
      58A     -0.926985    59A     -0.926005    60A     -0.901114  
      61A     -0.873161    62A     -0.864674    63A     -0.858352  
      64A     -0.840740    65A     -0.833849    66A     -0.825220  
      67A     -0.822420    68A     -0.804129    69A     -0.777915  
      70A     -0.754775    71A     -0.739330    72A     -0.730792  
      73A     -0.722328    74A     -0.699738    75A     -0.694951  
      76A     -0.682888    77A     -0.671945    78A     -0.666415  
      79A     -0.657969    80A     -0.655027    81A     -0.651859  
      82A     -0.639778    83A     -0.636461    84A     -0.629328  
      85A     -0.622432    86A     -0.616684    87A     -0.612224  
      88A     -0.606955    89A     -0.603166    90A     -0.602731  
      91A     -0.598640    92A     -0.595821    93A     -0.591621  
      94A     -0.588551    95A     -0.581554    96A     -0.580538  
      97A     -0.578167    98A     -0.573289    99A     -0.563158  
     100A     -0.561988   101A     -0.547898   102A     -0.545047  
     103A     -0.528579   104A     -0.524797   105A     -0.522157  
     106A     -0.520748   107A     -0.513309   108A     -0.508663  
     109A     -0.506234   110A     -0.505164   111A     -0.501000  
     112A     -0.492891   113A     -0.485071   114A     -0.480837  
     115A     -0.454461   116A     -0.452025   117A     -0.443385  
     118A     -0.433181   119A     -0.427263   120A     -0.425055  
     121A     -0.414497   122A     -0.406584   123A     -0.400798  
     124A     -0.379243   125A     -0.373981   126A     -0.346674  
     127A     -0.344789   128A     -0.340291   129A     -0.314947  
     130A     -0.310417   131A     -0.289947  

    Virtual:                                                              

     132A      0.026090   133A      0.034190   134A      0.041033  
     135A      0.041473   136A      0.044557   137A      0.047123  
     138A      0.049828   139A      0.056355   140A      0.057554  
     141A      0.061099   142A      0.063733   143A      0.066940  
     144A      0.067723   145A      0.068337   146A      0.072117  
     147A      0.074232   148A      0.076529   149A      0.081077  
     150A      0.082050   151A      0.085324   152A      0.088507  
     153A      0.088782   154A      0.092168   155A      0.095990  
     156A      0.098091   157A      0.100410   158A      0.102017  
     159A      0.102334   160A      0.107990   161A      0.110684  
     162A      0.112389   163A      0.114777   164A      0.115727  
     165A      0.116732   166A      0.120338   167A      0.121390  
     168A      0.123840   169A      0.126832   170A      0.128499  
     171A      0.132763   172A      0.136932   173A      0.141823  
     174A      0.143099   175A      0.147443   176A      0.148647  
     177A      0.149257   178A      0.149954   179A      0.153102  
     180A      0.154596   181A      0.158649   182A      0.160748  
     183A      0.162767   184A      0.165462   185A      0.165867  
     186A      0.168054   187A      0.169234   188A      0.171026  
     189A      0.172812   190A      0.174676   191A      0.176088  
     192A      0.179266   193A      0.181664   194A      0.182537  
     195A      0.185034   196A      0.185552   197A      0.186532  
     198A      0.188385   199A      0.191851   200A      0.193480  
     201A      0.193653   202A      0.197354   203A      0.199252  
     204A      0.201341   205A      0.203214   206A      0.204973  
     207A      0.207911   208A      0.208268   209A      0.209887  
     210A      0.210533   211A      0.212490   212A      0.214488  
     213A      0.215604   214A      0.217282   215A      0.218008  
     216A      0.221575   217A      0.223155   218A      0.224359  
     219A      0.225674   220A      0.226595   221A      0.227450  
     222A      0.230820   223A      0.232581   224A      0.234353  
     225A      0.236367   226A      0.236831   227A      0.238782  
     228A      0.240805   229A      0.243749   230A      0.244807  
     231A      0.245766   232A      0.254937   233A      0.255505  
     234A      0.257031   235A      0.259237   236A      0.260792  
     237A      0.261041   238A      0.263884   239A      0.267408  
     240A      0.268252   241A      0.271887   242A      0.274500  
     243A      0.276169   244A      0.277410   245A      0.281272  
     246A      0.282527   247A      0.282645   248A      0.286044  
     249A      0.289926   250A      0.291322   251A      0.294065  
     252A      0.296811   253A      0.299820   254A      0.303854  
     255A      0.304938   256A      0.307589   257A      0.308677  
     258A      0.311998   259A      0.312692   260A      0.314525  
     261A      0.319088   262A      0.322407   263A      0.323749  
     264A      0.325973   265A      0.329569   266A      0.331410  
     267A      0.331925   268A      0.333920   269A      0.336342  
     270A      0.337371   271A      0.339307   272A      0.341103  
     273A      0.343168   274A      0.345421   275A      0.348900  
     276A      0.349786   277A      0.353299   278A      0.354363  
     279A      0.357374   280A      0.358685   281A      0.361112  
     282A      0.362396   283A      0.364055   284A      0.365825  
     285A      0.366845   286A      0.368730   287A      0.370241  
     288A      0.373488   289A      0.375118   290A      0.377927  
     291A      0.379022   292A      0.381169   293A      0.382050  
     294A      0.387160   295A      0.387770   296A      0.388471  
     297A      0.389317   298A      0.392692   299A      0.394049  
     300A      0.394841   301A      0.396597   302A      0.397761  
     303A      0.401327   304A      0.404182   305A      0.404749  
     306A      0.405891   307A      0.407835   308A      0.409183  
     309A      0.410003   310A      0.411676   311A      0.413536  
     312A      0.415112   313A      0.417609   314A      0.420242  
     315A      0.421325   316A      0.422521   317A      0.425025  
     318A      0.428460   319A      0.429787   320A      0.431805  
     321A      0.431926   322A      0.434629   323A      0.435858  
     324A      0.439941   325A      0.440420   326A      0.443662  
     327A      0.446152   328A      0.448560   329A      0.449706  
     330A      0.452186   331A      0.454345   332A      0.455038  
     333A      0.458604   334A      0.461498   335A      0.463494  
     336A      0.464856   337A      0.468142   338A      0.468948  
     339A      0.471284   340A      0.472514   341A      0.478273  
     342A      0.481878   343A      0.484815   344A      0.488452  
     345A      0.489692   346A      0.491131   347A      0.493131  
     348A      0.497279   349A      0.499749   350A      0.502703  
     351A      0.503525   352A      0.505563   353A      0.513038  
     354A      0.513637   355A      0.516646   356A      0.517734  
     357A      0.519586   358A      0.523456   359A      0.525952  
     360A      0.527894   361A      0.534534   362A      0.536881  
     363A      0.538148   364A      0.545952   365A      0.549143  
     366A      0.549830   367A      0.554058   368A      0.554850  
     369A      0.562969   370A      0.564153   371A      0.571759  
     372A      0.577436   373A      0.581318   374A      0.583668  
     375A      0.589313   376A      0.594050   377A      0.600825  
     378A      0.606393   379A      0.609323   380A      0.616545  
     381A      0.617998   382A      0.622596   383A      0.626785  
     384A      0.632768   385A      0.636836   386A      0.648678  
     387A      0.653313   388A      0.660462   389A      0.673073  
     390A      0.687188   391A      0.688061   392A      0.697935  
     393A      0.702543   394A      0.708660   395A      0.709451  
     396A      0.719707   397A      0.720956   398A      0.725020  
     399A      0.729442   400A      0.734768   401A      0.739327  
     402A      0.747360   403A      0.750271   404A      0.751306  
     405A      0.757112   406A      0.759765   407A      0.764785  
     408A      0.768677   409A      0.769084   410A      0.770653  
     411A      0.773497   412A      0.775305   413A      0.786354  
     414A      0.788345   415A      0.790945   416A      0.795260  
     417A      0.799814   418A      0.803309   419A      0.803529  
     420A      0.810554   421A      0.812042   422A      0.816948  
     423A      0.818467   424A      0.820465   425A      0.825886  
     426A      0.828166   427A      0.829956   428A      0.832974  
     429A      0.835823   430A      0.844264   431A      0.847915  
     432A      0.849093   433A      0.856529   434A      0.858993  
     435A      0.863279   436A      0.864632   437A      0.870485  
     438A      0.872739   439A      0.874353   440A      0.877206  
     441A      0.880137   442A      0.884656   443A      0.887670  
     444A      0.890861   445A      0.894471   446A      0.896362  
     447A      0.899388   448A      0.901105   449A      0.907081  
     450A      0.909656   451A      0.913905   452A      0.920926  
     453A      0.921382   454A      0.923753   455A      0.925079  
     456A      0.926233   457A      0.931753   458A      0.935047  
     459A      0.938999   460A      0.941175   461A      0.941659  
     462A      0.945266   463A      0.948138   464A      0.949826  
     465A      0.952250   466A      0.957481   467A      0.959441  
     468A      0.964475   469A      0.969285   470A      0.973865  
     471A      0.975441   472A      0.978606   473A      0.981298  
     474A      0.986172   475A      0.990274   476A      0.993448  
     477A      0.996501   478A      1.000394   479A      1.004941  
     480A      1.012974   481A      1.014855   482A      1.016955  
     483A      1.026610   484A      1.027073   485A      1.033197  
     486A      1.036018   487A      1.038072   488A      1.046561  
     489A      1.049507   490A      1.053086   491A      1.056604  
     492A      1.061611   493A      1.064228   494A      1.067191  
     495A      1.070927   496A      1.075436   497A      1.082599  
     498A      1.086197   499A      1.088673   500A      1.094187  
     501A      1.097843   502A      1.101909   503A      1.106277  
     504A      1.108026   505A      1.121279   506A      1.127824  
     507A      1.133113   508A      1.136143   509A      1.137251  
     510A      1.142308   511A      1.146825   512A      1.149442  
     513A      1.151472   514A      1.155866   515A      1.162397  
     516A      1.164170   517A      1.168719   518A      1.171570  
     519A      1.178517   520A      1.182298   521A      1.184261  
     522A      1.186674   523A      1.189290   524A      1.191428  
     525A      1.199483   526A      1.201093   527A      1.208541  
     528A      1.211771   529A      1.214791   530A      1.216400  
     531A      1.222030   532A      1.227670   533A      1.231572  
     534A      1.235153   535A      1.239537   536A      1.247003  
     537A      1.247538   538A      1.252043   539A      1.253669  
     540A      1.257861   541A      1.261183   542A      1.269191  
     543A      1.276017   544A      1.276979   545A      1.280473  
     546A      1.282641   547A      1.285787   548A      1.287448  
     549A      1.293597   550A      1.299614   551A      1.303147  
     552A      1.312291   553A      1.315657   554A      1.318673  
     555A      1.325135   556A      1.332965   557A      1.339959  
     558A      1.342186   559A      1.349585   560A      1.354702  
     561A      1.355019   562A      1.363628   563A      1.376030  
     564A      1.378548   565A      1.386907   566A      1.391121  
     567A      1.400749   568A      1.403872   569A      1.408696  
     570A      1.420886   571A      1.422618   572A      1.433802  
     573A      1.438682   574A      1.446005   575A      1.449073  
     576A      1.454932   577A      1.461853   578A      1.467269  
     579A      1.469587   580A      1.472739   581A      1.484810  
     582A      1.489749   583A      1.501910   584A      1.506138  
     585A      1.512758   586A      1.525981   587A      1.530404  
     588A      1.546656   589A      1.552544   590A      1.559121  
     591A      1.563424   592A      1.574091   593A      1.596410  
     594A      1.601255   595A      1.618855   596A      1.620204  
     597A      1.632259   598A      1.634249   599A      1.636776  
     600A      1.644610   601A      1.654614   602A      1.672478  
     603A      1.676875   604A      1.692754   605A      1.695969  
     606A      1.704503   607A      1.715450   608A      1.721150  
     609A      1.724330   610A      1.728155   611A      1.735476  
     612A      1.743903   613A      1.750029   614A      1.760428  
     615A      1.763607   616A      1.766725   617A      1.773344  
     618A      1.777908   619A      1.780952   620A      1.783951  
     621A      1.788518   622A      1.793430   623A      1.799970  
     624A      1.807815   625A      1.809430   626A      1.811909  
     627A      1.816813   628A      1.818658   629A      1.821330  
     630A      1.822304   631A      1.829003   632A      1.832544  
     633A      1.837653   634A      1.840415   635A      1.843392  
     636A      1.850577   637A      1.853844   638A      1.854646  
     639A      1.860560   640A      1.863019   641A      1.864946  
     642A      1.867079   643A      1.876989   644A      1.882280  
     645A      1.886270   646A      1.896246   647A      1.897619  
     648A      1.904503   649A      1.919012   650A      1.920379  
     651A      1.927554   652A      1.931712   653A      1.933686  
     654A      1.940880   655A      1.942694   656A      1.950963  
     657A      1.957948   658A      1.960949   659A      1.966301  
     660A      1.969907   661A      1.971821   662A      1.975348  
     663A      1.980728   664A      1.982673   665A      1.992102  
     666A      1.993042   667A      1.998110   668A      2.000077  
     669A      2.002961   670A      2.007570   671A      2.010606  
     672A      2.018259   673A      2.021589   674A      2.027878  
     675A      2.029508   676A      2.039182   677A      2.046317  
     678A      2.048224   679A      2.050985   680A      2.055321  
     681A      2.066416   682A      2.068426   683A      2.072508  
     684A      2.077156   685A      2.084393   686A      2.086314  
     687A      2.091254   688A      2.100515   689A      2.103472  
     690A      2.106824   691A      2.120078   692A      2.123783  
     693A      2.136828   694A      2.141210   695A      2.146079  
     696A      2.158969   697A      2.161904   698A      2.173739  
     699A      2.177071   700A      2.180405   701A      2.181911  
     702A      2.185630   703A      2.193740   704A      2.198328  
     705A      2.205055   706A      2.216066   707A      2.223033  
     708A      2.230944   709A      2.233993   710A      2.237311  
     711A      2.244323   712A      2.246988   713A      2.251172  
     714A      2.254534   715A      2.255690   716A      2.259486  
     717A      2.265562   718A      2.269182   719A      2.273596  
     720A      2.274762   721A      2.279037   722A      2.285578  
     723A      2.288739   724A      2.301044   725A      2.302696  
     726A      2.310926   727A      2.314830   728A      2.317139  
     729A      2.324300   730A      2.333886   731A      2.340336  
     732A      2.340742   733A      2.353508   734A      2.357829  
     735A      2.363000   736A      2.370318   737A      2.377711  
     738A      2.384011   739A      2.386162   740A      2.396154  
     741A      2.404464   742A      2.407616   743A      2.411597  
     744A      2.426218   745A      2.429514   746A      2.434595  
     747A      2.447255   748A      2.452208   749A      2.459753  
     750A      2.469623   751A      2.475944   752A      2.480361  
     753A      2.496921   754A      2.499671   755A      2.518753  
     756A      2.523478   757A      2.535330   758A      2.539324  
     759A      2.543063   760A      2.547973   761A      2.555534  
     762A      2.561595   763A      2.574673   764A      2.579415  
     765A      2.590594   766A      2.596593   767A      2.608716  
     768A      2.618902   769A      2.625057   770A      2.646145  
     771A      2.650786   772A      2.663017   773A      2.672791  
     774A      2.680235   775A      2.682439   776A      2.697166  
     777A      2.700675   778A      2.709812   779A      2.718903  
     780A      2.731411   781A      2.736264   782A      2.745664  
     783A      2.772654   784A      2.775402   785A      2.783777  
     786A      2.788162   787A      2.792425   788A      2.798431  
     789A      2.801620   790A      2.811223   791A      2.817268  
     792A      2.827087   793A      2.833139   794A      2.837756  
     795A      2.854503   796A      2.860374   797A      2.867146  
     798A      2.873720   799A      2.875808   800A      2.879666  
     801A      2.884826   802A      2.894482   803A      2.902653  
     804A      2.910895   805A      2.931652   806A      2.938432  
     807A      2.939427   808A      2.944886   809A      2.951651  
     810A      2.961408   811A      2.970199   812A      2.976710  
     813A      2.976920   814A      2.980773   815A      2.987661  
     816A      2.988132   817A      3.001227   818A      3.008941  
     819A      3.012737   820A      3.019086   821A      3.029884  
     822A      3.032083   823A      3.037655   824A      3.045392  
     825A      3.054593   826A      3.058983   827A      3.060500  
     828A      3.068609   829A      3.070837   830A      3.083553  
     831A      3.088640   832A      3.094696   833A      3.097325  
     834A      3.099648   835A      3.105692   836A      3.110323  
     837A      3.113243   838A      3.119970   839A      3.120595  
     840A      3.126335   841A      3.130296   842A      3.134397  
     843A      3.136952   844A      3.143809   845A      3.144412  
     846A      3.157718   847A      3.161256   848A      3.164855  
     849A      3.169177   850A      3.192836   851A      3.198171  
     852A      3.200069   853A      3.208342   854A      3.215426  
     855A      3.227220   856A      3.231220   857A      3.238675  
     858A      3.248371   859A      3.249964   860A      3.257926  
     861A      3.260362   862A      3.270060   863A      3.276937  
     864A      3.279877   865A      3.288863   866A      3.294408  
     867A      3.299057   868A      3.300946   869A      3.304043  
     870A      3.307118   871A      3.315805   872A      3.323932  
     873A      3.327402   874A      3.331453   875A      3.335994  
     876A      3.344534   877A      3.347382   878A      3.352320  
     879A      3.355088   880A      3.363987   881A      3.364557  
     882A      3.370501   883A      3.387505   884A      3.387654  
     885A      3.394135   886A      3.397460   887A      3.403307  
     888A      3.409567   889A      3.431663   890A      3.440311  
     891A      3.447379   892A      3.463407   893A      3.472897  
     894A      3.508102   895A      3.520120   896A      3.531061  
     897A      3.575813   898A      3.595692   899A      3.605244  
     900A      3.612852   901A      3.613628   902A      3.632703  
     903A      3.650707   904A      3.667144   905A      3.673256  
     906A      3.676314   907A      3.680012   908A      3.696566  
     909A      3.762613   910A      3.774648   911A      3.780149  
     912A      3.784358   913A      3.798585   914A      3.811380  
     915A      3.815898   916A      3.852922   917A      3.858144  
     918A      3.869472   919A      3.874734   920A      3.882555  
     921A      3.906273   922A      3.914881   923A      3.923299  
     924A      3.930030   925A      3.932011   926A      3.937269  
     927A      3.949210   928A      3.960932   929A      3.972851  
     930A      3.982387   931A      3.986440   932A      4.012807  
     933A      4.046602   934A      4.054591   935A      4.066440  
     936A      4.083517   937A      4.094551   938A      4.104292  
     939A      4.119135   940A      4.123581   941A      4.140670  
     942A      4.157344   943A      4.169907   944A      4.188817  
     945A      4.190460   946A      4.203235   947A      4.208544  
     948A      4.217246   949A      4.253918   950A      4.293663  
     951A      4.356233   952A      4.365464   953A      4.382761  
     954A      4.398736   955A      4.414625   956A      4.418652  
     957A      4.424685   958A      4.428394   959A      4.430920  
     960A      4.441894   961A      4.452209   962A      4.456058  
     963A      4.517249   964A      4.547120   965A      4.551502  
     966A      4.585501   967A      4.590294   968A      4.607814  
     969A      4.627265   970A      4.680021   971A      4.707878  
     972A      4.769010   973A      4.771335   974A      4.800648  
     975A      4.907859   976A      4.939509   977A      5.004216  
     978A      5.045018   979A      5.220072   980A      5.248359  
     981A      5.262737   982A      5.279548   983A      5.293333  
     984A      5.333042   985A      5.354063   986A      5.385303  
     987A      5.417468   988A      5.615098   989A      5.685686  
     990A      5.695746   991A      5.798866   992A      5.855643  
     993A      5.880647   994A      6.397796   995A     24.772224  
     996A     24.782647   997A     24.810918   998A     24.817628  
     999A     24.837177  1000A     24.852561  1001A     24.937313  
    1002A     24.952329  1003A     25.012250  1004A     25.017617  
    1005A     25.045921  1006A     25.069545  1007A     25.071614  
    1008A     25.091865  1009A     25.099342  1010A     25.119916  
    1011A     25.124985  1012A     25.132934  1013A     25.135558  
    1014A     25.150031  1015A     25.171548  1016A     25.205933  
    1017A     25.212430  1018A     25.234006  1019A     25.245502  
    1020A     25.249025  1021A     25.253027  1022A     25.319392  
    1023A     25.329265  1024A     36.950310  1025A     36.988901  
    1026A     37.021152  1027A     37.072364  1028A     37.074564  
    1029A     37.135595  1030A     37.153093  1031A     51.765357  

    Final Occupation by Irrep:
              A 
    DOCC [   131 ]

  @DF-RHF Final Energy: -1572.36537770276050

   => Energetics <=

    Nuclear Repulsion Energy =           3688.4312121441262207
    One-Electron Energy =               -9475.3850265739565657
    Two-Electron Energy =                4214.5884367270700750
    Total Energy =                      -1572.3653777027602700

Computation Completed


Properties will be evaluated at   0.000000,   0.000000,   0.000000 [a0]

Properties computed using the SCF density matrix

  Nuclear Dipole Moment: [e a0]
     X:    42.2870      Y:     1.7050      Z:     7.4117

  Electronic Dipole Moment: [e a0]
     X:   -43.4147      Y:     0.9093      Z:    -7.8714

  Dipole Moment: [e a0]
     X:    -1.1276      Y:     2.6143      Z:    -0.4597     Total:     2.8840

  Dipole Moment: [D]
     X:    -2.8662      Y:     6.6449      Z:    -1.1685     Total:     7.3305


*** tstop() called on node94.bme.utexas.edu at Tue Apr 14 12:59:50 2020
Module time:
	user time   =    4488.89 seconds =      74.81 minutes
	system time =     127.92 seconds =       2.13 minutes
	total time  =        888 seconds =      14.80 minutes
Total time:
	user time   =    4488.89 seconds =      74.81 minutes
	system time =     127.92 seconds =       2.13 minutes
	total time  =        888 seconds =      14.80 minutes

*** tstart() called on node94.bme.utexas.edu
*** at Tue Apr 14 12:59:50 2020


  //>>>>>>>>>>>>>>>>>>>>>>>>>>>>>>>>>>>//
  //               DFMP2               //
  //<<<<<<<<<<<<<<<<<<<<<<<<<<<<<<<<<<<//

   => Loading Basis Set <=

    Name: (6-311++G** AUX)
    Role: RIFIT
    Keyword: DF_BASIS_MP2
    atoms 1-4, 6-9, 11, 14-19, 21-28, 30-31, 33-35, 37 entry C          line   148 file /home/bdw2292/miniconda3/envs/p4env/share/psi4/basis/aug-cc-pvtz-ri.gbs 
    atoms 5, 10, 12-13, 20, 29, 32                     entry N          line   206 file /home/bdw2292/miniconda3/envs/p4env/share/psi4/basis/aug-cc-pvtz-ri.gbs 
    atoms 36                                           entry O          line   264 file /home/bdw2292/miniconda3/envs/p4env/share/psi4/basis/aug-cc-pvtz-ri.gbs 
    atoms 38-68                                        entry H          line    30 file /home/bdw2292/miniconda3/envs/p4env/share/psi4/basis/aug-cc-pvtz-ri.gbs 

	 --------------------------------------------------------
	                          DF-MP2                         
	      2nd-Order Density-Fitted Moller-Plesset Theory     
	              RMP2 Wavefunction,   6 Threads             
	                                                         
	        Rob Parrish, Justin Turney, Andy Simmonett,      
	           Ed Hohenstein, and C. David Sherrill          
	 --------------------------------------------------------

   => Auxiliary Basis Set <=

  Basis Set: (6-311++G** AUX)
    Blend: AUG-CC-PVTZ-RI
    Number of shells: 1470
    Number of basis function: 5348
    Number of Cartesian functions: 6737
    Spherical Harmonics?: true
    Max angular momentum: 4

	 --------------------------------------------------------
	                 NBF =  1031, NAUX =  5348
	 --------------------------------------------------------
	   CLASS    FOCC     OCC    AOCC    AVIR     VIR    FVIR
	   PAIRS      37     131      94     900     900       0
	 --------------------------------------------------------

	-----------------------------------------------------------
	 ==================> DF-MP2 Energies <==================== 
	-----------------------------------------------------------
	 Reference Energy          =   -1572.3653777027604974 [Eh]
	 Singles Energy            =      -0.0000000000000000 [Eh]
	 Same-Spin Energy          =      -1.4705231019352436 [Eh]
	 Opposite-Spin Energy      =      -4.0469433697633663 [Eh]
	 Correlation Energy        =      -5.5174664716986097 [Eh]
	 Total Energy              =   -1577.8828441744590236 [Eh]
	-----------------------------------------------------------
	 ================> DF-SCS-MP2 Energies <================== 
	-----------------------------------------------------------
	 SCS Same-Spin Scale       =       0.3333333333333333 [-]
	 SCS Opposite-Spin Scale   =       1.2000000000000000 [-]
	 SCS Same-Spin Energy      =      -0.4901743673117478 [Eh]
	 SCS Opposite-Spin Energy  =      -4.8563320437160398 [Eh]
	 SCS Correlation Energy    =      -5.3465064110277876 [Eh]
	 SCS Total Energy          =   -1577.7118841137883010 [Eh]
	-----------------------------------------------------------


*** tstop() called on node94.bme.utexas.edu at Tue Apr 14 13:10:21 2020
Module time:
	user time   =    2651.88 seconds =      44.20 minutes
	system time =      21.50 seconds =       0.36 minutes
	total time  =        631 seconds =      10.52 minutes
Total time:
	user time   =    7140.78 seconds =     119.01 minutes
	system time =     149.42 seconds =       2.49 minutes
	total time  =       1519 seconds =      25.32 minutes


Properties will be evaluated at   0.000000,   0.000000,   0.000000 [a0]
OEProp: No title given, name of density matrix used for the following properties is 'SCF density'


  Wiberg Bond Indices using Orthogonal Lowdin Orbitals:

  Irrep: 1 Size: 68 x 68

                 1                   2                   3                   4                   5

    1     0.00000000000000     1.46409239480445     0.12528188635704     0.14038582968105     0.12369914274144
    2     1.46409239480445     0.00000000000000     1.40187000382493     0.12850546966456     0.12152126783431
    3     0.12528188635704     1.40187000382493     0.00000000000000     1.36135470042006     0.11858296110697
    4     0.14038582968105     0.12850546966456     1.36135470042006     0.00000000000000     1.66237159500456
    5     0.12369914274144     0.12152126783431     0.11858296110697     1.66237159500456     0.00000000000000
    6     1.46616513654059     0.13805334991998     0.13576953187936     0.15353260461376     1.62689981150437
    7     0.01461307980328     0.10281546154142     1.02031769337371     0.10428747111545     0.01391265305699
    8     0.00354285387879     0.04137952680407     0.09819553428975     0.02387472991939     0.00217977467286
    9     0.00036444191391     0.00466299031159     0.01471850276313     0.00409652786636     0.00067277552998
   10     0.00041265845674     0.00536811206302     0.00577345268827     0.00602125086582     0.00032120022308
   11     0.00086430847072     0.00332899815147     0.01798027746598     0.00686082592613     0.00043166966902
   12     0.00280345091846     0.02201861230905     0.11919505898828     0.06191461741976     0.00408920617619
   13     0.00016210219830     0.00047259152067     0.00162523439380     0.00092933148234     0.00008574366036
   14     0.00003060243755     0.00009319132328     0.00057419973263     0.00130189063044     0.00011288145622
   15     0.00001042411186     0.00002291783306     0.00006739644052     0.00014440803933     0.00001562315381
   16     0.00000206163197     0.00000594694371     0.00004097632364     0.00026378301625     0.00001232173143
   17     0.00001240918635     0.00001906699475     0.00005340223959     0.00027046846202     0.00003959565133
   18     0.00002702076100     0.00005248128347     0.00028875400479     0.00178411269774     0.00021924267500
   19     0.00017056549839     0.00024151366977     0.00201100041084     0.01037254275273     0.00060581470226
   20     0.00005571452469     0.00006681877012     0.00031084066965     0.00287035358735     0.00057123697826
   21     0.00001140591627     0.00001166149119     0.00004875734728     0.00035337735859     0.00018051013777
   22     0.00004187235023     0.00003217960143     0.00004679895915     0.00053285258293     0.00132903896120
   23     0.00044744944045     0.00030564254231     0.00036670069756     0.00602713859730     0.02036054937001
   24     0.00016403996846     0.00018860045635     0.00023709670452     0.00107098346670     0.00871153407280
   25     0.00001324143827     0.00000943977648     0.00001443956342     0.00009492071719     0.00038493180432
   26     0.00000679504123     0.00000394737553     0.00000802343412     0.00013137529273     0.00031528808929
   27     0.00000757036641     0.00000405909737     0.00001035092375     0.00015506899574     0.00041124706099
   28     0.00000404236454     0.00000148155824     0.00000200511580     0.00001567807256     0.00005943126304
   29     0.00000116097090     0.00000050350358     0.00000083256770     0.00000590835077     0.00001501249934
   30     0.00000053789208     0.00000022008435     0.00000027974751     0.00000233610418     0.00000556627594
   31     0.00000083911111     0.00000046108804     0.00000050628792     0.00000350896497     0.00000888276132
   32     0.00000096375149     0.00000088703286     0.00000095122420     0.00000304563563     0.00000901179324
   33     0.00000034437193     0.00000014529077     0.00000019960852     0.00000038726182     0.00000236319672
   34     0.00000376817795     0.00000226979566     0.00000238003946     0.00000969687038     0.00005673429484
   35     0.00000406530384     0.00000157037757     0.00000168756524     0.00000445806790     0.00003445031338
   36     0.00000189122270     0.00000250316774     0.00001230811437     0.00011311086630     0.00003399978392
   37     0.00000218271759     0.00000738934921     0.00003251741584     0.00003478083620     0.00000292074546
   38     0.88619072592648     0.07927664945423     0.01178719661053     0.00635331032928     0.01071334449085
   39     0.07741794879513     0.87051312030364     0.07294641954746     0.01177552368164     0.00395312482243
   40     0.00566327998176     0.01051659199736     0.06912005349054     0.85031132402765     0.08682101959937
   41     0.07692958501799     0.01178114151210     0.00604686995710     0.01590625678796     0.08803299374916
   42     0.00104760545810     0.01389402647271     0.01428691552787     0.00136711117204     0.00028946561617
   43     0.00004422998435     0.00027471029976     0.00143240057981     0.00031695833463     0.00007689614527
   44     0.00002456825327     0.00008187612142     0.00034907215426     0.00009180408413     0.00000784304287
   45     0.00000033652249     0.00000105003525     0.00000671197722     0.00001831589521     0.00000157903045
   46     0.00000087465984     0.00000164948807     0.00000696830299     0.00002424176314     0.00000764575579
   47     0.00013160553312     0.00019698396171     0.00196757475397     0.00764347524389     0.00055665893363
   48     0.00010665604320     0.00006949987360     0.00018938966983     0.00220408461196     0.00068077256643
   49     0.00037620689977     0.00014815149498     0.00028037567177     0.00506723198197     0.01316198384002
   50     0.00006984094467     0.00007178243360     0.00010717269864     0.00025885127688     0.00241078556459
   51     0.00000066358261     0.00000048017661     0.00000126745030     0.00001287296855     0.00002204420441
   52     0.00000114753319     0.00000060719168     0.00000112094235     0.00000901960848     0.00003648515267
   53     0.00000038085224     0.00000011736642     0.00000027994942     0.00000507433738     0.00000710558971
   54     0.00000265650532     0.00000154992039     0.00000155612316     0.00000296875222     0.00001284941043
   55     0.00000003790275     0.00000002041256     0.00000004316767     0.00000041140445     0.00000068912598
   56     0.00000008634217     0.00000002667853     0.00000003917706     0.00000046557548     0.00000073747203
   57     0.00000009098317     0.00000002576864     0.00000005275099     0.00000026149223     0.00000053775026
   58     0.00000043854545     0.00000028470117     0.00000026766174     0.00000251963735     0.00000520895257
   59     0.00000008549894     0.00000002256073     0.00000004085859     0.00000012372622     0.00000050016409
   60     0.00000002334590     0.00000001054383     0.00000001919309     0.00000009794505     0.00000049827383
   61     0.00000004383677     0.00000002119840     0.00000005465110     0.00000006190302     0.00000021417277
   62     0.00000061745573     0.00000059759567     0.00000045975526     0.00000057709629     0.00000393264165
   63     0.00000271189570     0.00000277343250     0.00000246357789     0.00000752744037     0.00004373606740
   64     0.00000015087724     0.00000004986914     0.00000009568854     0.00000062496838     0.00000166448933
   65     0.00001197253699     0.00000424237712     0.00000202521643     0.00000198652561     0.00001502156441
   66     0.00000074635272     0.00000189140746     0.00001117210299     0.00000842543782     0.00000055383293
   67     0.00000104568563     0.00000283225361     0.00001002227266     0.00000843717363     0.00000077370663
   68     0.00000025686771     0.00000067386377     0.00000374745079     0.00000789854333     0.00000047792375

                 6                   7                   8                   9                  10

    1     1.46616513654059     0.01461307980328     0.00354285387879     0.00036444191391     0.00041265845674
    2     0.13805334991998     0.10281546154142     0.04137952680407     0.00466299031159     0.00536811206302
    3     0.13576953187936     1.02031769337371     0.09819553428975     0.01471850276313     0.00577345268827
    4     0.15353260461376     0.10428747111545     0.02387472991939     0.00409652786636     0.00602125086582
    5     1.62689981150437     0.01391265305699     0.00217977467286     0.00067277552998     0.00032120022308
    6     0.00000000000000     0.00971115697113     0.00683165506595     0.00120275878868     0.00334444086403
    7     0.00971115697113     0.00000000000000     1.38797429271132     0.14632113571907     0.11216703582190
    8     0.00683165506595     1.38797429271132     0.00000000000000     1.43207328648176     0.13043816132433
    9     0.00120275878868     0.14632113571907     1.43207328648176     0.00000000000000     1.66162642269054
   10     0.00334444086403     0.11216703582190     0.13043816132433     1.66162642269054     0.00000000000000
   11     0.00084083377374     0.14172616228439     0.11326780569959     0.15259864524926     1.50809440183838
   12     0.00602585553119     1.53212019826972     0.12685890355997     0.11124465035728     0.11017895873675
   13     0.00007162151091     0.01932914610300     0.02060025510674     0.02423300009907     0.16003926366845
   14     0.00004347425578     0.00292006525633     0.00249643190302     0.00327046892404     0.01693916319734
   15     0.00000532628646     0.00050358115872     0.00145118833310     0.00093691394176     0.00313710457684
   16     0.00000401672693     0.00016490483260     0.00019327559518     0.00016164662876     0.00047193739779
   17     0.00000694332568     0.00025011275159     0.00129289966026     0.00044270110306     0.00126473718864
   18     0.00004265186364     0.00055233700951     0.00026347254886     0.00014049545925     0.00040637548751
   19     0.00019045893660     0.00568776358394     0.00310678835117     0.00152350277652     0.00429970690416
   20     0.00007145616320     0.00012976699978     0.00002863148891     0.00001769333208     0.00005788089607
   21     0.00002176260234     0.00002161271044     0.00000837680913     0.00000460209090     0.00001510897115
   22     0.00013399459278     0.00000745481369     0.00000271637619     0.00000130456451     0.00000366137821
   23     0.00181870404397     0.00005991506443     0.00001378257202     0.00000391611143     0.00000308484603
   24     0.00173523316827     0.00002503365991     0.00001501891898     0.00000240250579     0.00000266659509
   25     0.00019077328507     0.00000241275202     0.00000188860047     0.00000033349755     0.00000044173356
   26     0.00009973858475     0.00000115373808     0.00000051367358     0.00000013925321     0.00000023164289
   27     0.00009309304400     0.00000234977158     0.00000106644446     0.00000039838198     0.00000088750884
   28     0.00004418310494     0.00000063019469     0.00000019995333     0.00000003735771     0.00000005244368
   29     0.00001153083142     0.00000025969694     0.00000007232996     0.00000001669191     0.00000001953448
   30     0.00000430050493     0.00000007898861     0.00000004009575     0.00000001138318     0.00000001802588
   31     0.00000543978971     0.00000010006762     0.00000003918212     0.00000001147894     0.00000001777743
   32     0.00000521081418     0.00000013349472     0.00000004324872     0.00000001558642     0.00000001705012
   33     0.00000202568079     0.00000006359488     0.00000001185790     0.00000000553623     0.00000000417706
   34     0.00003026747500     0.00000044217597     0.00000030353675     0.00000004516826     0.00000013152793
   35     0.00001679662107     0.00000049953893     0.00000022317308     0.00000005299383     0.00000005116574
   36     0.00000628210903     0.00001108183041     0.00000846613233     0.00000404157432     0.00001136485754
   37     0.00000179037328     0.00014469163792     0.00013838857553     0.00013594586000     0.00075041742987
   38     0.08248468748803     0.00129049812766     0.00024699551105     0.00003898685136     0.00002563486250
   39     0.01172320450088     0.01610128350222     0.01464095696145     0.00113504425771     0.00039682065904
   40     0.01476682174370     0.01577085654219     0.00168981277646     0.00040282727038     0.00059646664368
   41     0.87930495878252     0.00054148437605     0.00026482959459     0.00005249659009     0.00010413265881
   42     0.00047266984073     0.07532593402024     0.87658034970003     0.08079420188199     0.01046240580024
   43     0.00004318554714     0.01168236084849     0.07503645224750     0.87549212100421     0.09027138893894
   44     0.00001155062362     0.00207051672071     0.00202900214447     0.00368140174554     0.03151619053833
   45     0.00000038589584     0.00001853689870     0.00000837740854     0.00002312789755     0.00005244455382
   46     0.00000111016086     0.00002281527342     0.00004164971768     0.00001640332308     0.00005168255967
   47     0.00018699659157     0.00409237002376     0.00090297066386     0.00042646172658     0.00074444809324
   48     0.00008468246888     0.00008410763195     0.00002714153120     0.00000973925566     0.00001982340038
   49     0.00132377526577     0.00005046626826     0.00001266980799     0.00000357486307     0.00000272322994
   50     0.00111784258320     0.00000997765353     0.00000543061992     0.00000086397598     0.00000122185097
   51     0.00000468232123     0.00000008319198     0.00000007411028     0.00000001719238     0.00000003151132
   52     0.00000965304119     0.00000043588743     0.00000013214984     0.00000006064671     0.00000012869015
   53     0.00000236936350     0.00000006770983     0.00000001669922     0.00000000460811     0.00000000677839
   54     0.00001829272140     0.00000020663278     0.00000017856030     0.00000002329761     0.00000006330506
   55     0.00000048337329     0.00000000842893     0.00000000584735     0.00000000331506     0.00000000153139
   56     0.00000294686479     0.00000001839796     0.00000000475389     0.00000000258041     0.00000000269037
   57     0.00000052172395     0.00000001493418     0.00000000957421     0.00000000139485     0.00000000301775
   58     0.00000411674059     0.00000005596852     0.00000001753389     0.00000000504344     0.00000001504634
   59     0.00000109451250     0.00000001968479     0.00000000610297     0.00000000288557     0.00000000174123
   60     0.00000028664124     0.00000000265899     0.00000000115884     0.00000000053583     0.00000000053997
   61     0.00000013706742     0.00000001568817     0.00000000170121     0.00000000105225     0.00000000068492
   62     0.00000286172014     0.00000004070593     0.00000007355230     0.00000001005766     0.00000003044129
   63     0.00002607144243     0.00000036199408     0.00000019761803     0.00000004227624     0.00000012109916
   64     0.00000473818834     0.00000005202384     0.00000001644235     0.00000000572461     0.00000000543313
   65     0.00001910497339     0.00000058347704     0.00000013905988     0.00000002298317     0.00000006052523
   66     0.00000035950332     0.00004295043918     0.00007432703917     0.00004187195920     0.00024628691953
   67     0.00000118960172     0.00004579017557     0.00011064321497     0.00004210089557     0.00031844879399
   68     0.00000015794665     0.00001438262122     0.00000573897178     0.00000436560550     0.00003319858309

                11                  12                  13                  14                  15

    1     0.00086430847072     0.00280345091846     0.00016210219830     0.00003060243755     0.00001042411186
    2     0.00332899815147     0.02201861230905     0.00047259152067     0.00009319132328     0.00002291783306
    3     0.01798027746598     0.11919505898828     0.00162523439380     0.00057419973263     0.00006739644052
    4     0.00686082592613     0.06191461741976     0.00092933148234     0.00130189063044     0.00014440803933
    5     0.00043166966902     0.00408920617619     0.00008574366036     0.00011288145622     0.00001562315381
    6     0.00084083377374     0.00602585553119     0.00007162151091     0.00004347425578     0.00000532628646
    7     0.14172616228439     1.53212019826972     0.01932914610300     0.00292006525633     0.00050358115872
    8     0.11326780569959     0.12685890355997     0.02060025510674     0.00249643190302     0.00145118833310
    9     0.15259864524926     0.11124465035728     0.02423300009907     0.00327046892404     0.00093691394176
   10     1.50809440183838     0.11017895873675     0.16003926366845     0.01693916319734     0.00313710457684
   11     0.00000000000000     1.53361924982474     1.27157839728182     0.08262482746382     0.01791033618629
   12     1.53361924982474     0.00000000000000     0.14197625854946     0.02961038962535     0.00349795785994
   13     1.27157839728182     0.14197625854946     0.00000000000000     1.12549765877230     0.10565347904100
   14     0.08262482746382     0.02961038962535     1.12549765877230     0.00000000000000     1.31698301108434
   15     0.01791033618629     0.00349795785994     0.10565347904100     1.31698301108434     0.00000000000000
   16     0.00238105774650     0.00116879214707     0.01427801004262     0.12560893234439     1.44156285691492
   17     0.00413917297209     0.00246485116618     0.01183642285366     0.11962802748575     0.12418646140987
   18     0.00242154298335     0.00481522844460     0.01309530373741     0.12217994710891     0.12006845710473
   19     0.02844566454699     0.05461282537110     0.11037156586292     1.40260833111167     0.11984630513533
   20     0.00033831665967     0.00108188009948     0.00130829354967     0.01497077425936     0.01129038242742
   21     0.00006127864089     0.00013083961390     0.00030000658100     0.00274236776716     0.00573524093109
   22     0.00001130707006     0.00002344948661     0.00005514771874     0.00035141200253     0.00030366630677
   23     0.00001407020534     0.00010954348277     0.00001296009063     0.00011330274795     0.00034262807852
   24     0.00000200928143     0.00001123616496     0.00000271257794     0.00001224061509     0.00003554664812
   25     0.00000076837825     0.00000277584978     0.00000176203325     0.00002479693130     0.00018245218284
   26     0.00000056670339     0.00000087842585     0.00000229265395     0.00001786778176     0.00003519133747
   27     0.00000316239008     0.00000426773882     0.00001282906385     0.00009883335776     0.00033183131596
   28     0.00000014250707     0.00000040428055     0.00000023518095     0.00000229727808     0.00001292158926
   29     0.00000005784027     0.00000017414438     0.00000010471652     0.00000146289221     0.00001177801206
   30     0.00000002850893     0.00000008453967     0.00000003491799     0.00000032160625     0.00000161227992
   31     0.00000003471754     0.00000011000158     0.00000003184522     0.00000032259501     0.00000095700247
   32     0.00000004947949     0.00000020024209     0.00000001821548     0.00000026147949     0.00000021781967
   33     0.00000002728518     0.00000004736174     0.00000000515221     0.00000005998092     0.00000012634519
   34     0.00000009820244     0.00000031422460     0.00000003634964     0.00000038374769     0.00000129595349
   35     0.00000006363671     0.00000025279817     0.00000003682927     0.00000040570766     0.00000157698737
   36     0.00004013286175     0.00005440444925     0.00014914954209     0.00101805133296     0.00336647010863
   37     0.00363697420608     0.00078641619490     0.03781147521602     0.09653779022779     1.05919496678045
   38     0.00008970324773     0.00031382418112     0.00001587561002     0.00000698211696     0.00000080636518
   39     0.00029043418840     0.00109150594808     0.00006913342799     0.00002546227430     0.00000416867733
   40     0.00275184451734     0.02516913940860     0.00043071765693     0.00117801612487     0.00014891341235
   41     0.00004328929923     0.00025180548395     0.00000566716690     0.00000384925081     0.00000054760909
   42     0.00575712698696     0.01074644823238     0.00104410870770     0.00012114199554     0.00006505919882
   43     0.01583849796485     0.00400754353242     0.00136335131329     0.00038644500045     0.00006254398537
   44     0.07400911766903     0.01157568436413     0.93396284798325     0.05943013441902     0.01488722455051
   45     0.00036547654343     0.00006309506012     0.00115452001851     0.01142533052085     0.07493443784810
   46     0.00014758102931     0.00015449929620     0.00051107646857     0.00524059448750     0.01050945856787
   47     0.00956307258265     0.03657072989681     0.01585259916191     0.07329020454281     0.00973350579135
   48     0.00011890728030     0.00064570689569     0.00017497691571     0.00205396002155     0.00112269944227
   49     0.00000980173312     0.00005810227161     0.00000515765857     0.00003832934451     0.00009130211694
   50     0.00000067088591     0.00000258149369     0.00000039127593     0.00000122134584     0.00000127744953
   51     0.00000006792700     0.00000013512997     0.00000052020425     0.00000280093504     0.00000331746410
   52     0.00000066247757     0.00000061753997     0.00000242074208     0.00001647502907     0.00001978495770
   53     0.00000001245462     0.00000006055378     0.00000003980035     0.00000036676928     0.00000139936525
   54     0.00000002557558     0.00000012969173     0.00000004810245     0.00000025234238     0.00000117142349
   55     0.00000000459776     0.00000001201483     0.00000000883513     0.00000005474673     0.00000016613870
   56     0.00000000741801     0.00000002290018     0.00000001175143     0.00000010552660     0.00000045008219
   57     0.00000000614000     0.00000000867784     0.00000000427288     0.00000002885155     0.00000010129291
   58     0.00000001237984     0.00000006147640     0.00000006690581     0.00000031784776     0.00000110543941
   59     0.00000000728390     0.00000002128473     0.00000000237423     0.00000000827845     0.00000003185395
   60     0.00000000145297     0.00000000393779     0.00000000073582     0.00000000567344     0.00000001823380
   61     0.00000000382638     0.00000000885931     0.00000000137605     0.00000000840942     0.00000001362342
   62     0.00000000845553     0.00000003535480     0.00000001431947     0.00000003271141     0.00000011086568
   63     0.00000010041026     0.00000065345216     0.00000005871047     0.00000032281535     0.00000155482484
   64     0.00000001326062     0.00000002971887     0.00000001073856     0.00000013914063     0.00000051494633
   65     0.00000002914133     0.00000011466549     0.00000001380138     0.00000003566331     0.00000006347091
   66     0.00075437480007     0.00025744600057     0.00903488331679     0.01634346047121     0.05728972082974
   67     0.00095046490726     0.00029750250046     0.01016954738632     0.01666561255044     0.05872259219864
   68     0.00023266622241     0.00006205654522     0.00200372130815     0.00893899076733     0.05982188179743

                16                  17                  18                  19                  20

    1     0.00000206163197     0.00001240918635     0.00002702076100     0.00017056549839     0.00005571452469
    2     0.00000594694371     0.00001906699475     0.00005248128347     0.00024151366977     0.00006681877012
    3     0.00004097632364     0.00005340223959     0.00028875400479     0.00201100041084     0.00031084066965
    4     0.00026378301625     0.00027046846202     0.00178411269774     0.01037254275273     0.00287035358735
    5     0.00001232173143     0.00003959565133     0.00021924267500     0.00060581470226     0.00057123697826
    6     0.00000401672693     0.00000694332568     0.00004265186364     0.00019045893660     0.00007145616320
    7     0.00016490483260     0.00025011275159     0.00055233700951     0.00568776358394     0.00012976699978
    8     0.00019327559518     0.00129289966026     0.00026347254886     0.00310678835117     0.00002863148891
    9     0.00016164662876     0.00044270110306     0.00014049545925     0.00152350277652     0.00001769333208
   10     0.00047193739779     0.00126473718864     0.00040637548751     0.00429970690416     0.00005788089607
   11     0.00238105774650     0.00413917297209     0.00242154298335     0.02844566454699     0.00033831665967
   12     0.00116879214707     0.00246485116618     0.00481522844460     0.05461282537110     0.00108188009948
   13     0.01427801004262     0.01183642285366     0.01309530373741     0.11037156586292     0.00130829354967
   14     0.12560893234439     0.11962802748575     0.12217994710891     1.40260833111167     0.01497077425936
   15     1.44156285691492     0.12418646140987     0.12006845710473     0.11984630513533     0.01129038242742
   16     0.00000000000000     1.44486092651900     0.13299664911456     0.12567480096486     0.01366059967982
   17     1.44486092651900     0.00000000000000     1.39916436430904     0.12200795532964     0.10457101804850
   18     0.13299664911456     1.39916436430904     0.00000000000000     1.36279661816455     1.12583944761634
   19     0.12567480096486     0.12200795532964     1.36279661816455     0.00000000000000     0.12374395488961
   20     0.01366059967982     0.10457101804850     1.12583944761634     0.12374395488961     0.00000000000000
   21     0.00276022659867     0.03116199778861     0.08609135519577     0.02243836172184     1.31319909913986
   22     0.00035227288403     0.00323644368811     0.01456560371028     0.00201938054380     0.10291852853462
   23     0.00014200101852     0.00117995598754     0.00375259050280     0.00118918700433     0.04188001629672
   24     0.00002100866131     0.00016235443993     0.00038680201569     0.00012589143121     0.00351144276870
   25     0.00002740094043     0.00028687046459     0.00039195462748     0.00024754913406     0.00348129633471
   26     0.00002097946121     0.00013322822113     0.00049618137027     0.00010236021241     0.00249803395252
   27     0.00010171413996     0.00091436181369     0.00229589076480     0.00069922226959     0.01770418520313
   28     0.00000258241964     0.00002392824981     0.00003703428842     0.00001886320309     0.00027090722614
   29     0.00000161247948     0.00001665153525     0.00001798606833     0.00001439250133     0.00015889204430
   30     0.00000046308056     0.00000368138944     0.00000461169498     0.00000276726368     0.00002843499168
   31     0.00000035630279     0.00000327015410     0.00000665747424     0.00000257565630     0.00002870820990
   32     0.00000009534237     0.00000070915069     0.00000221079450     0.00000076567641     0.00000707667069
   33     0.00000005608082     0.00000020070641     0.00000084935979     0.00000026810488     0.00000164163099
   34     0.00000045050766     0.00000443695471     0.00000708505417     0.00000425655347     0.00003207724815
   35     0.00000040464061     0.00000308970219     0.00000457478502     0.00000259398146     0.00003034923063
   36     0.00351743989941     0.04941991011254     0.03181731496621     0.00517937481683     0.19161384889444
   37     0.11534333293057     0.01435454250739     0.00738236225434     0.01403558168056     0.00072240517174
   38     0.00000034036363     0.00000067034000     0.00000520414560     0.00002233615713     0.00000530273211
   39     0.00000170085126     0.00000220659320     0.00000608941892     0.00003700604177     0.00000671966768
   40     0.00023640120764     0.00023051779460     0.00174974045812     0.00833492621961     0.00200510018889
   41     0.00000044744180     0.00000073421366     0.00000274973333     0.00001365186536     0.00000562176509
   42     0.00001089818751     0.00004691056106     0.00002973625954     0.00019851806422     0.00000667427722
   43     0.00001572123061     0.00001209241658     0.00001523164493     0.00010740786174     0.00000170000747
   44     0.00150821024349     0.00107862579089     0.00129349920713     0.01044689497782     0.00023932292940
   45     0.87146232865129     0.07895992319916     0.01176258432316     0.00566364788266     0.00103077012042
   46     0.07713322113275     0.85959297189352     0.07559608786246     0.01123601512430     0.01466888345588
   47     0.00569244857898     0.01027036220429     0.07188153117488     0.83870051530482     0.02403110384166
   48     0.00137102681757     0.01017822039816     0.06268374508696     0.02146815073669     0.93701541477377
   49     0.00005058354924     0.00034097932773     0.00144133667757     0.00059134105059     0.01552394977994
   50     0.00000221828843     0.00001339032869     0.00002958247547     0.00000830899729     0.00019843905972
   51     0.00000280128144     0.00001754678177     0.00006631991004     0.00001696357435     0.00028824491493
   52     0.00002929507444     0.00018475475456     0.00026399344650     0.00007333351185     0.00162001863789
   53     0.00000055037807     0.00000342608724     0.00001122115865     0.00000307170091     0.00006458257190
   54     0.00000050704541     0.00000322747931     0.00000565010272     0.00000234972764     0.00003568143408
   55     0.00000007326931     0.00000042112225     0.00000097216184     0.00000048065270     0.00000751877635
   56     0.00000010062927     0.00000061971316     0.00000203467357     0.00000094177863     0.00000655261307
   57     0.00000002960324     0.00000018327935     0.00000042670975     0.00000020727100     0.00000224110595
   58     0.00000051976568     0.00000328285164     0.00000618234861     0.00000332620539     0.00002608354821
   59     0.00000001369483     0.00000006242123     0.00000021014932     0.00000006979557     0.00000033575378
   60     0.00000001141469     0.00000002358684     0.00000010255576     0.00000004194187     0.00000035529185
   61     0.00000000453515     0.00000004007152     0.00000006663648     0.00000004467932     0.00000038633969
   62     0.00000003373967     0.00000033410220     0.00000041763189     0.00000024778234     0.00000217973578
   63     0.00000057296871     0.00000242240178     0.00000634510885     0.00000289082962     0.00005474942805
   64     0.00000010336141     0.00000087270774     0.00000117606879     0.00000084407903     0.00000674032098
   65     0.00000006821896     0.00000037500734     0.00000066494815     0.00000026845515     0.00000476240813
   66     0.01510983963461     0.00125380205212     0.00296100079745     0.00119464395079     0.00037006703435
   67     0.01498835017707     0.00125756350677     0.00278953724101     0.00127082013648     0.00032883742167
   68     0.02381924289833     0.00191003495784     0.00055439501139     0.00109299871219     0.00008321797254

                21                  22                  23                  24                  25

    1     0.00001140591627     0.00004187235023     0.00044744944045     0.00016403996846     0.00001324143827
    2     0.00001166149119     0.00003217960143     0.00030564254231     0.00018860045635     0.00000943977648
    3     0.00004875734728     0.00004679895915     0.00036670069756     0.00023709670452     0.00001443956342
    4     0.00035337735859     0.00053285258293     0.00602713859730     0.00107098346670     0.00009492071719
    5     0.00018051013777     0.00132903896120     0.02036054937001     0.00871153407280     0.00038493180432
    6     0.00002176260234     0.00013399459278     0.00181870404397     0.00173523316827     0.00019077328507
    7     0.00002161271044     0.00000745481369     0.00005991506443     0.00002503365991     0.00000241275202
    8     0.00000837680913     0.00000271637619     0.00001378257202     0.00001501891898     0.00000188860047
    9     0.00000460209090     0.00000130456451     0.00000391611143     0.00000240250579     0.00000033349755
   10     0.00001510897115     0.00000366137821     0.00000308484603     0.00000266659509     0.00000044173356
   11     0.00006127864089     0.00001130707006     0.00001407020534     0.00000200928143     0.00000076837825
   12     0.00013083961390     0.00002344948661     0.00010954348277     0.00001123616496     0.00000277584978
   13     0.00030000658100     0.00005514771874     0.00001296009063     0.00000271257794     0.00000176203325
   14     0.00274236776716     0.00035141200253     0.00011330274795     0.00001224061509     0.00002479693130
   15     0.00573524093109     0.00030366630677     0.00034262807852     0.00003554664812     0.00018245218284
   16     0.00276022659867     0.00035227288403     0.00014200101852     0.00002100866131     0.00002740094043
   17     0.03116199778861     0.00323644368811     0.00117995598754     0.00016235443993     0.00028687046459
   18     0.08609135519577     0.01456560371028     0.00375259050280     0.00038680201569     0.00039195462748
   19     0.02243836172184     0.00201938054380     0.00118918700433     0.00012589143121     0.00024754913406
   20     1.31319909913986     0.10291852853462     0.04188001629672     0.00351144276870     0.00348129633471
   21     0.00000000000000     0.97475950267093     0.10403115021411     0.01444585061022     0.01130833796884
   22     0.97475950267093     0.00000000000000     1.40197047866880     0.12709412102090     0.12382049026128
   23     0.10403115021411     1.40197047866880     0.00000000000000     1.45542867636477     0.12635076469995
   24     0.01444585061022     0.12709412102090     1.45542867636477     0.00000000000000     1.40570331945739
   25     0.01130833796884     0.12382049026128     0.12635076469995     1.40570331945739     0.00000000000000
   26     0.01486140393863     0.12656069313380     0.12957231418034     0.12568355908838     1.39278520729753
   27     0.11143921406305     1.38177696295379     0.12424203640787     0.13066507140625     0.12692272428940
   28     0.00073389016849     0.00895076490682     0.01434415024805     0.11068437675267     1.01558271085775
   29     0.00039407061257     0.00425459273148     0.00196040204314     0.02095123273383     0.08784969984254
   30     0.00008919758409     0.00095287863405     0.00085736368424     0.00422767480150     0.02043881122268
   31     0.00007005240271     0.00124657187323     0.00183154224607     0.00373983797144     0.01791561671718
   32     0.00005018942756     0.00059803133898     0.00104665432110     0.00232391424129     0.00408668791121
   33     0.00000836440294     0.00009927083612     0.00023953916699     0.00061124299117     0.00109323219716
   34     0.00008679935003     0.00190524828031     0.00878698445412     0.02166321319126     0.02170156992531
   35     0.00009127990996     0.00103141253185     0.00183160514389     0.01431227551218     0.02169746943559
   36     2.17145340559384     0.13605466860314     0.02570036233962     0.00327459723852     0.00649195259985
[...]
   15     0.00000045008219     0.00000010129291     0.00000110543941     0.00000003185395     0.00000001823380
   16     0.00000010062927     0.00000002960324     0.00000051976568     0.00000001369483     0.00000001141469
   17     0.00000061971316     0.00000018327935     0.00000328285164     0.00000006242123     0.00000002358684
   18     0.00000203467357     0.00000042670975     0.00000618234861     0.00000021014932     0.00000010255576
   19     0.00000094177863     0.00000020727100     0.00000332620539     0.00000006979557     0.00000004194187
   20     0.00000655261307     0.00000224110595     0.00002608354821     0.00000033575378     0.00000035529185
   21     0.00002452084449     0.00000607471376     0.00006226933213     0.00000183000101     0.00000084574644
   22     0.00019076410215     0.00008599738875     0.00122955762045     0.00001031749359     0.00001019063158
   23     0.00011979195419     0.00010692276338     0.00176624521338     0.00002111017522     0.00002392051950
   24     0.00045028406638     0.00018193734768     0.00285144700287     0.00007759401297     0.00003835392115
   25     0.00134530808371     0.00061899383310     0.01100832637585     0.00016806572366     0.00009587217795
   26     0.00079323222941     0.00087681715412     0.02114416565691     0.00008632189803     0.00007381689691
   27     0.00031076707599     0.00023617202173     0.00755685478197     0.00002212793199     0.00002937594343
   28     0.01198932261826     0.00101463369280     0.00569670847868     0.00062622107936     0.00011386814107
   29     0.06402744505409     0.01205041120558     0.01187892531586     0.00291961730801     0.00064066223533
   30     0.79804221815897     0.05730459685110     0.04537709899383     0.01237451525505     0.00383350162787
   31     0.04913669279982     0.84655756904384     0.81729286504013     0.01631637875939     0.02027794420522
   32     0.01327856736839     0.05251268670011     0.05788770748329     0.06835847944756     0.06282132754938
   33     0.01404153344181     0.02246321150328     0.01143527246499     0.91039799127902     0.91985552523471
   34     0.00778354100345     0.01446832450220     0.01954397329081     0.01640542837500     0.01260917030861
   35     0.02106313078061     0.00198504460414     0.00700851581117     0.01228464413812     0.00167679457388
   36     0.00001136018881     0.00000280036456     0.00003052471802     0.00000056482294     0.00000058256649
   37     0.00000005178800     0.00000000804639     0.00000008578934     0.00000000774805     0.00000000574088
   38     0.00000000825447     0.00000000319359     0.00000002103443     0.00000000431105     0.00000000435499
   39     0.00000000399951     0.00000001014857     0.00000001891607     0.00000000178782     0.00000000093629
   40     0.00000027714002     0.00000008987904     0.00000082095843     0.00000003274573     0.00000002263349
   41     0.00000311191004     0.00000007691475     0.00000281911161     0.00000046579620     0.00000010751017
   42     0.00000000069214     0.00000000040948     0.00000000268717     0.00000000065974     0.00000000042859
   43     0.00000000009873     0.00000000049419     0.00000000065060     0.00000000024302     0.00000000009608
   44     0.00000000177418     0.00000000050268     0.00000000573329     0.00000000051665     0.00000000005134
   45     0.00000001454978     0.00000000640618     0.00000004099756     0.00000000155722     0.00000000099734
   46     0.00000006993308     0.00000002202989     0.00000127147614     0.00000000797422     0.00000000317691
   47     0.00000014463959     0.00000006207331     0.00000046249798     0.00000002208265     0.00000000619857
   48     0.00000111550284     0.00000083584944     0.00001251705253     0.00000028693418     0.00000009150792
   49     0.00000915681258     0.00000321210328     0.00004862694920     0.00000202587231     0.00000116270025
   50     0.00010421337777     0.00002026917007     0.00015440607497     0.00002932429390     0.00000548098778
   51     0.00013317341992     0.00025003259122     0.00418450391445     0.00004214592415     0.00002090723349
   52     0.00004151513245     0.00002268211113     0.00061659114546     0.00000190552856     0.00000227972569
   53     0.00115800141124     0.00009396253562     0.00082136411633     0.00006313838293     0.00001963107976
   54     0.00052315426290     0.00034363315184     0.00032683013134     0.00006513256249     0.00002128623702
   55     0.02150176564397     0.00565841264568     0.00782686226938     0.00048304162290     0.00012997727242
   56     0.00000000000000     0.00930138335930     0.01672298355110     0.00688688044251     0.00146774031603
   57     0.00930138335930     0.00000000000000     0.02035188352669     0.00314171866070     0.00719026854217
   58     0.01672298355110     0.02035188352669     0.00000000000000     0.00091157706747     0.00100964895518
   59     0.00688688044251     0.00314171866070     0.00091157706747     0.00000000000000     0.03484431522439
   60     0.00146774031603     0.00719026854217     0.00100964895518     0.03484431522439     0.00000000000000
   61     0.00059153020290     0.00118176977949     0.00068822247036     0.03491004664018     0.03772756772147
   62     0.00040749873289     0.00124479211626     0.00092775562753     0.00299984949541     0.00113448175207
   63     0.00078502843039     0.00097981348035     0.00507670560374     0.00095016738637     0.00066619657823
   64     0.00536689531929     0.00038682077736     0.00087170956308     0.00672333340864     0.00057219288191
   65     0.00084260815805     0.00043946196835     0.00037660958863     0.00045410844037     0.00022643628826
   66     0.00000001923200     0.00000000412898     0.00000003813618     0.00000000103660     0.00000000034329
   67     0.00000002358086     0.00000000526611     0.00000007316096     0.00000000145975     0.00000000071982
   68     0.00000000063229     0.00000000027114     0.00000000702943     0.00000000036905     0.00000000023315

                61                  62                  63                  64                  65

    1     0.00000004383677     0.00000061745573     0.00000271189570     0.00000015087724     0.00001197253699
    2     0.00000002119840     0.00000059759567     0.00000277343250     0.00000004986914     0.00000424237712
    3     0.00000005465110     0.00000045975526     0.00000246357789     0.00000009568854     0.00000202521643
    4     0.00000006190302     0.00000057709629     0.00000752744037     0.00000062496838     0.00000198652561
    5     0.00000021417277     0.00000393264165     0.00004373606740     0.00000166448933     0.00001502156441
    6     0.00000013706742     0.00000286172014     0.00002607144243     0.00000473818834     0.00001910497339
    7     0.00000001568817     0.00000004070593     0.00000036199408     0.00000005202384     0.00000058347704
    8     0.00000000170121     0.00000007355230     0.00000019761803     0.00000001644235     0.00000013905988
    9     0.00000000105225     0.00000001005766     0.00000004227624     0.00000000572461     0.00000002298317
   10     0.00000000068492     0.00000003044129     0.00000012109916     0.00000000543313     0.00000006052523
   11     0.00000000382638     0.00000000845553     0.00000010041026     0.00000001326062     0.00000002914133
   12     0.00000000885931     0.00000003535480     0.00000065345216     0.00000002971887     0.00000011466549
   13     0.00000000137605     0.00000001431947     0.00000005871047     0.00000001073856     0.00000001380138
   14     0.00000000840942     0.00000003271141     0.00000032281535     0.00000013914063     0.00000003566331
   15     0.00000001362342     0.00000011086568     0.00000155482484     0.00000051494633     0.00000006347091
   16     0.00000000453515     0.00000003373967     0.00000057296871     0.00000010336141     0.00000006821896
   17     0.00000004007152     0.00000033410220     0.00000242240178     0.00000087270774     0.00000037500734
   18     0.00000006663648     0.00000041763189     0.00000634510885     0.00000117606879     0.00000066494815
   19     0.00000004467932     0.00000024778234     0.00000289082962     0.00000084407903     0.00000026845515
   20     0.00000038633969     0.00000217973578     0.00005474942805     0.00000674032098     0.00000476240813
   21     0.00000102141825     0.00000777827830     0.00009305630400     0.00002758918740     0.00001916765043
   22     0.00001340543593     0.00011925531651     0.00220438122594     0.00024405131908     0.00019418657241
   23     0.00003434758359     0.00025829843516     0.00798338238344     0.00031008300050     0.00044461129044
   24     0.00006549435207     0.00072336179786     0.01947579970883     0.00083812489417     0.00586213040467
   25     0.00010113693091     0.00078192445939     0.01505934796041     0.00143033288921     0.00612859661108
   26     0.00004808290121     0.00027629476809     0.00521197019880     0.00055529377662     0.00055543868667
   27     0.00002337993567     0.00010642026129     0.00226068532740     0.00018657983214     0.00020844028117
   28     0.00011511914070     0.00109291983523     0.00681415213340     0.01175493848953     0.02107393479986
   29     0.00061708844731     0.01128022752146     0.01200997985574     0.06310798347089     0.05390590834150
   30     0.00168547352239     0.00219070516120     0.00726296228807     0.02086078784597     0.01266454194754
   31     0.01266748039120     0.01383300076401     0.01926265657729     0.00775844222348     0.00228101476552
   32     0.06304993980628     0.05487028264696     0.05884077909177     0.01318368767341     0.01110305295286
   33     0.91996703407072     0.02113433439250     0.01239242644233     0.01385798044924     0.00147421474266
   34     0.01937508274335     0.86508846269575     0.77886174795554     0.04782458375398     0.05753126453681
   35     0.00376610643411     0.05817785263216     0.04401821502039     0.79829753441883     0.86870438781732
   36     0.00000057940884     0.00000457214294     0.00003844964370     0.00001442812417     0.00001246170643
   37     0.00000000257340     0.00000000723667     0.00000010470151     0.00000003667779     0.00000000926003
   38     0.00000000524739     0.00000003327450     0.00000016609047     0.00000003039136     0.00000023647431
   39     0.00000000152821     0.00000005014618     0.00000034648730     0.00000000772229     0.00000022192169
   40     0.00000000606511     0.00000009154987     0.00000127697678     0.00000013173733     0.00000020417054
   41     0.00000013660821     0.00000186798743     0.00001184520435     0.00000568989247     0.00000563838256
   42     0.00000000032937     0.00000000333576     0.00000001159556     0.00000000069014     0.00000001198052
   43     0.00000000005086     0.00000000040417     0.00000001195834     0.00000000056597     0.00000000119647
   44     0.00000000029820     0.00000000087541     0.00000000554723     0.00000000149683     0.00000000388811
   45     0.00000000029067     0.00000000240413     0.00000007805074     0.00000000390097     0.00000000891605
   46     0.00000000471430     0.00000004881064     0.00000079616431     0.00000011466142     0.00000013701994
   47     0.00000002713242     0.00000007232722     0.00000076212777     0.00000022817044     0.00000004711718
   48     0.00000020497712     0.00000087013323     0.00002108977932     0.00000125284397     0.00000242672846
   49     0.00000378148613     0.00002630267027     0.00059137861268     0.00004329408037     0.00002640132649
   50     0.00001420766860     0.00011905033788     0.00325822007779     0.00009643480002     0.00255100037535
   51     0.00001131326433     0.00002247406020     0.00043157582426     0.00013421811589     0.00007189688596
   52     0.00000107263271     0.00000442348878     0.00006882663637     0.00001324901952     0.00002097249928
   53     0.00002106333686     0.00030433838399     0.00041315693483     0.00054541612715     0.00107798134675
   54     0.00002075056991     0.00010926369563     0.00098918438543     0.00115255165500     0.00635593097220
   55     0.00022297580366     0.00038811684631     0.00042279662239     0.00081401196834     0.00116103453228
   56     0.00059153020290     0.00040749873289     0.00078502843039     0.00536689531929     0.00084260815805
   57     0.00118176977949     0.00124479211626     0.00097981348035     0.00038682077736     0.00043946196835
   58     0.00068822247036     0.00092775562753     0.00507670560374     0.00087170956308     0.00037660958863
   59     0.03491004664018     0.00299984949541     0.00095016738637     0.00672333340864     0.00045410844037
   60     0.03772756772147     0.00113448175207     0.00066619657823     0.00057219288191     0.00022643628826
   61     0.00000000000000     0.00666001341746     0.00105416717013     0.00148679766884     0.00012283101481
   62     0.00666001341746     0.00000000000000     0.01950625739671     0.00893977992202     0.00567358934850
   63     0.00105416717013     0.01950625739671     0.00000000000000     0.02051909129866     0.00855053257479
   64     0.00148679766884     0.00893977992202     0.02051909129866     0.00000000000000     0.02081912449041
   65     0.00012283101481     0.00567358934850     0.00855053257479     0.02081912449041     0.00000000000000
   66     0.00000000050864     0.00000000376738     0.00000004710075     0.00000002246962     0.00000000624902
   67     0.00000000062332     0.00000000366644     0.00000009039698     0.00000002144285     0.00000000334264
   68     0.00000000005977     0.00000000036094     0.00000000722009     0.00000000175559     0.00000000102182

                66                  67                  68

    1     0.00000074635272     0.00000104568563     0.00000025686771
    2     0.00000189140746     0.00000283225361     0.00000067386377
    3     0.00001117210299     0.00001002227266     0.00000374745079
    4     0.00000842543782     0.00000843717363     0.00000789854333
    5     0.00000055383293     0.00000077370663     0.00000047792375
    6     0.00000035950332     0.00000118960172     0.00000015794665
    7     0.00004295043918     0.00004579017557     0.00001438262122
    8     0.00007432703917     0.00011064321497     0.00000573897178
    9     0.00004187195920     0.00004210089557     0.00000436560550
   10     0.00024628691953     0.00031844879399     0.00003319858309
   11     0.00075437480007     0.00095046490726     0.00023266622241
   12     0.00025744600057     0.00029750250046     0.00006205654522
   13     0.00903488331679     0.01016954738632     0.00200372130815
   14     0.01634346047121     0.01666561255044     0.00893899076733
   15     0.05728972082974     0.05872259219864     0.05982188179743
   16     0.01510983963461     0.01498835017707     0.02381924289833
   17     0.00125380205212     0.00125756350677     0.00191003495784
   18     0.00296100079745     0.00278953724101     0.00055439501139
   19     0.00119464395079     0.00127082013648     0.00109299871219
   20     0.00037006703435     0.00032883742167     0.00008321797254
   21     0.00021372690544     0.00020153099432     0.00003069675295
   22     0.00001119718776     0.00001265706082     0.00000649930083
   23     0.00001416783125     0.00001286486372     0.00000266658980
   24     0.00000140950754     0.00000149879610     0.00000032493424
   25     0.00000776927329     0.00000719583420     0.00000031270626
   26     0.00000127974203     0.00000143633416     0.00000028417875
   27     0.00001260053024     0.00001313490603     0.00000155316716
   28     0.00000053355146     0.00000050305366     0.00000005191046
   29     0.00000051021656     0.00000044767199     0.00000001524113
   30     0.00000007063576     0.00000004311586     0.00000000703666
   31     0.00000003430367     0.00000003150436     0.00000000608402
   32     0.00000000821372     0.00000001523195     0.00000000301606
   33     0.00000000354239     0.00000000575358     0.00000000076916
   34     0.00000004796539     0.00000004348266     0.00000000697264
   35     0.00000007296954     0.00000004449232     0.00000001003418
   36     0.00012432145452     0.00012341930869     0.00001633361853
   37     0.91894934227213     0.91921946664224     0.92059968826675
   38     0.00000008643787     0.00000009502923     0.00000003836126
   39     0.00000025834739     0.00000029350314     0.00000009983214
   40     0.00000682024186     0.00000762166506     0.00000733873065
   41     0.00000005214678     0.00000006791325     0.00000004031342
   42     0.00000325026707     0.00000438388391     0.00000045789123
   43     0.00000279360140     0.00000308654078     0.00000063661710
   44     0.00482518485475     0.00423889100584     0.00103815783275
   45     0.00124826229732     0.00122558564222     0.00769469652355
   46     0.00020572158733     0.00021708347449     0.00012821533133
   47     0.00018038424678     0.00018518914851     0.00035010141091
   48     0.00003745897922     0.00004312233983     0.00003899367687
   49     0.00000381035603     0.00000286169693     0.00000129639957
   50     0.00000005373771     0.00000008583180     0.00000004589258
   51     0.00000017610428     0.00000013717357     0.00000007025341
   52     0.00000094591559     0.00000081701748     0.00000052095065
   53     0.00000006495566     0.00000004847096     0.00000000977042
   54     0.00000005762794     0.00000004326416     0.00000000945624
   55     0.00000000904710     0.00000000400587     0.00000000095671
   56     0.00000001923200     0.00000002358086     0.00000000063229
   57     0.00000000412898     0.00000000526611     0.00000000027114
   58     0.00000003813618     0.00000007316096     0.00000000702943
   59     0.00000000103660     0.00000000145975     0.00000000036905
   60     0.00000000034329     0.00000000071982     0.00000000023315
   61     0.00000000050864     0.00000000062332     0.00000000005977
   62     0.00000000376738     0.00000000366644     0.00000000036094
   63     0.00000004710075     0.00000009039698     0.00000000722009
   64     0.00000002246962     0.00000002144285     0.00000000175559
   65     0.00000000624902     0.00000000334264     0.00000000102182
   66     0.00000000000000     0.03545678182190     0.03898168082171
   67     0.03545678182190     0.00000000000000     0.03921644535191
   68     0.03898168082171     0.03921644535191     0.00000000000000



  Atomic Valences: 

 #  #
 Irrep: 1
      1:  4.3914349
      2:  4.4220071
      3:  4.6033591
      4:  4.5811090
      5:  3.9151331
      6:  4.5446552
      7:  4.7429482
      8:  4.3679188
      9:  4.5226276
     10:  3.8659942
     11:  5.0041473
     12:  3.9616919
     13:  4.0372943
     14:  4.6635871
     15:  4.6242786
     16:  4.4372436
     17:  4.4027838
     18:  4.6675834
     19:  4.4248933
     20:  4.0767136
     21:  4.9954546
     22:  4.6121597
     23:  4.4617012
     24:  4.4806415
     25:  4.7194880
     26:  4.4776405
     27:  4.4350872
     28:  4.5053383
     29:  4.2461738
     30:  4.5593927
     31:  4.5743627
     32:  4.2187775
     33:  4.2825814
     34:  4.5680424
     35:  4.5588247
     36:  2.7614555
     37:  4.1496897
     38:  1.0980501
     39:  1.1010675
     40:  1.1124934
     41:  1.0916144
     42:  1.1092672
     43:  1.0859997
     44:  1.1755691
     45:  1.0999126
     46:  1.1071319
     47:  1.1342417
     48:  1.1868572
     49:  1.1169906
     50:  1.1092469
     51:  1.1082359
     52:  1.0988194
     53:  1.1074779
     54:  1.1100808
     55:  1.0981022
     56:  1.0484720
     57:  1.0610882
     58:  1.0827588
     59:  1.1325834
     60:  1.1071431
     61:  1.1062504
     62:  1.0784294
     63:  1.0562454
     64:  1.0487627
     65:  1.0910044
     66:  1.1052889
     67:  1.1081793
     68:  1.1067074


    Psi4 stopped on: Tuesday, 14 April 2020 01:10PM
    Psi4 wall time for execution: 0:25:20.02

*** Psi4 exiting successfully. Buy a developer a beer!
