
    -----------------------------------------------------------------------
          Psi4: An Open-Source Ab Initio Electronic Structure Package
                               Psi4 1.3.2 release

                         Git: Rev {HEAD} ecbda83 


    R. M. Parrish, L. A. Burns, D. G. A. Smith, A. C. Simmonett,
    A. E. DePrince III, E. G. Hohenstein, U. Bozkaya, A. Yu. Sokolov,
    R. Di Remigio, R. M. Richard, J. F. Gonthier, A. M. James,
    H. R. McAlexander, A. Kumar, M. Saitow, X. Wang, B. P. Pritchard,
    P. Verma, H. F. Schaefer III, K. Patkowski, R. A. King, E. F. Valeev,
    F. A. Evangelista, J. M. Turney, T. D. Crawford, and C. D. Sherrill,
    J. Chem. Theory Comput. 13(7) pp 3185--3197 (2017).
    (doi: 10.1021/acs.jctc.7b00174)


                         Additional Contributions by
    P. Kraus, H. Kruse, M. H. Lechner, M. C. Schieber, R. A. Shaw,
    A. Alenaizan, R. Galvelis, Z. L. Glick, S. Lehtola, and J. P. Misiewicz

    -----------------------------------------------------------------------


    Psi4 started on: Friday, 24 April 2020 11:59AM

    Process ID: 17464
    Host:       node54.bme.utexas.edu
    PSIDATADIR: /home/bdw2292/miniconda3/envs/p4env/share/psi4
    Memory:     500.0 MiB
    Threads:    1
    
  ==> Input File <==

--------------------------------------------------------------------------
molecule { 
0 1
 C   -0.225909    4.279985    0.954456
 C   -1.608474    4.051395    0.918410
 C   -2.099020    2.743869    0.735598
 C   -1.117954    1.728571    0.617796
 N    0.206375    1.926442    0.646495
 C    0.636973    3.187022    0.811530
 C   -3.565393    2.393064    0.681998
 C   -4.626387    3.274903    0.945766
 C   -5.910843    2.720281    0.879931
 N   -6.166670    1.447908    0.580834
 C   -5.090504    0.677630    0.322996
 N   -3.830499    1.113410    0.362326
 N   -5.358984   -0.642329   -0.000001
 C   -4.513139   -1.789698   -0.225316
 C   -5.058190   -3.105590   -0.123365
 C   -4.177799   -4.184514   -0.314892
 C   -2.813909   -4.042058   -0.598072
 C   -2.298895   -2.748813   -0.734221
 C   -3.157420   -1.653932   -0.549760
 N   -0.939046   -2.412457   -1.031229
 C    0.210600   -3.168482   -1.053753
 C    1.535074   -2.430207   -1.152855
 C    1.738070   -1.110015   -0.716743
 C    2.976730   -0.487508   -0.886166
 C    4.087935   -1.166410   -1.415022
 C    3.873864   -2.500509   -1.822877
 C    2.633777   -3.128344   -1.680088
 C    5.470343   -0.534630   -1.614764
 N    6.131993    0.440747   -0.728311
 C    6.552971   -0.034095    0.612869
 C    5.629622    0.338201    1.799923
 N    5.331046    1.789214    1.887162
 C    6.361591    2.637408    2.498295
 C    4.779007    2.226723    0.584951
 C    5.672479    1.847773   -0.626056
 O    0.186722   -4.389258   -1.007237
 C   -6.515617   -3.379261    0.207694
 H    0.174817    5.280028    1.091536
 H   -2.279250    4.901160    1.019307
 H   -1.413828    0.688870    0.519895
 H    1.718245    3.313572    0.839182
 H   -4.505804    4.317371    1.213839
 H   -6.802663    3.313206    1.080744
 H   -6.352546   -0.806107    0.061036
 H   -4.560800   -5.200783   -0.231254
 H   -2.163425   -4.899336   -0.719101
 H   -2.766752   -0.657456   -0.670234
 H   -0.786284   -1.423946   -1.168784
 H    0.922492   -0.554674   -0.259702
 H    3.043291    0.562677   -0.630727
 H    4.691735   -3.072587   -2.260614
 H    2.497522   -4.161692   -1.989717
 H    6.180668   -1.372567   -1.675917
 H    5.433704   -0.033668   -2.593824
 H    6.710895   -1.490861    0.590848
 H    7.861897    0.527760    0.871878
 H    6.045740   -0.018566    2.769477
 H    4.295727   -0.372565    1.594021
 H    7.271491    2.649442    1.887753
 H    6.611651    2.266374    3.499024
 H    5.992865    3.664349    2.603243
 H    4.614831    3.560142    0.608303
 H    3.927571    1.861235    0.509369
 H    6.956469    2.685814   -0.479753
 H    5.107018    2.227165   -1.759420
 H   -7.201841   -3.001751   -0.563914
 H   -6.801096   -2.907912    1.152291
 H   -6.730240   -4.445574    0.316215
}
memory 20GB
set_num_threads(6)
psi4_io.set_default_path("/scratch/bdw2292")
set freeze_core True
E, wfn = energy('mp2/6-311+G*',return_wfn=True)
oeprop(wfn,"WIBERG_LOWDIN_INDICES")
clean()
--------------------------------------------------------------------------

  Memory set to  18.626 GiB by Python driver.
  Threads set to 6 by Python driver.
    SCF Algorithm Type (re)set to DF.

*** tstart() called on node54.bme.utexas.edu
*** at Fri Apr 24 11:59:43 2020

   => Loading Basis Set <=

    Name: 6-311+G*
    Role: ORBITAL
    Keyword: BASIS
    atoms 1-4, 6-9, 11, 14-19, 21-28, 30-31, 33-35, 37 entry C          line   130 file /home/bdw2292/miniconda3/envs/p4env/share/psi4/basis/6-311pgs.gbs 
    atoms 5, 10, 12-13, 20, 29, 32                     entry N          line   151 file /home/bdw2292/miniconda3/envs/p4env/share/psi4/basis/6-311pgs.gbs 
    atoms 36                                           entry O          line   172 file /home/bdw2292/miniconda3/envs/p4env/share/psi4/basis/6-311pgs.gbs 
    atoms 38-68                                        entry H          line    47 file /home/bdw2292/miniconda3/envs/p4env/share/psi4/basis/6-311pgs.gbs 


         ---------------------------------------------------------
                                   SCF
               by Justin Turney, Rob Parrish, Andy Simmonett
                          and Daniel G. A. Smith
                              RHF Reference
                        6 Threads,  19073 MiB Core
         ---------------------------------------------------------

  ==> Geometry <==

    Molecular point group: c1
    Full point group: C1

    Geometry (in Angstrom), charge = 0, multiplicity = 1:

       Center              X                  Y                   Z               Mass       
    ------------   -----------------  -----------------  -----------------  -----------------
         C           -0.162565902072     4.384885934023     0.946514604331    12.000000000000
         C           -1.545130902072     4.156295934023     0.910468604331    12.000000000000
         C           -2.035676902072     2.848769934023     0.727656604331    12.000000000000
         C           -1.054610902072     1.833471934023     0.609854604331    12.000000000000
         N            0.269718097928     2.031342934023     0.638553604331    14.003074004430
         C            0.700316097928     3.291922934023     0.803588604331    12.000000000000
         C           -3.502049902072     2.497964934023     0.674056604331    12.000000000000
         C           -4.563043902072     3.379803934023     0.937824604331    12.000000000000
         C           -5.847499902072     2.825181934023     0.871989604331    12.000000000000
         N           -6.103326902072     1.552808934023     0.572892604331    14.003074004430
         C           -5.027160902072     0.782530934023     0.315054604331    12.000000000000
         N           -3.767155902072     1.218310934023     0.354384604331    14.003074004430
         N           -5.295640902072    -0.537428065977    -0.007942395669    14.003074004430
         C           -4.449795902072    -1.684797065977    -0.233257395669    12.000000000000
         C           -4.994846902072    -3.000689065977    -0.131306395669    12.000000000000
         C           -4.114455902072    -4.079613065977    -0.322833395669    12.000000000000
         C           -2.750565902072    -3.937157065977    -0.606013395669    12.000000000000
         C           -2.235551902072    -2.643912065977    -0.742162395669    12.000000000000
         C           -3.094076902072    -1.549031065977    -0.557701395669    12.000000000000
         N           -0.875702902072    -2.307556065977    -1.039170395669    14.003074004430
         C            0.273943097928    -3.063581065977    -1.061694395669    12.000000000000
         C            1.598417097928    -2.325306065977    -1.160796395669    12.000000000000
         C            1.801413097928    -1.005114065977    -0.724684395669    12.000000000000
         C            3.040073097928    -0.382607065977    -0.894107395669    12.000000000000
         C            4.151278097928    -1.061509065977    -1.422963395669    12.000000000000
         C            3.937207097928    -2.395608065977    -1.830818395669    12.000000000000
         C            2.697120097928    -3.023443065977    -1.688029395669    12.000000000000
         C            5.533686097928    -0.429729065977    -1.622705395669    12.000000000000
         N            6.195336097928     0.545647934023    -0.736252395669    14.003074004430
         C            6.616314097928     0.070805934023     0.604927604331    12.000000000000
         C            5.692965097928     0.443101934023     1.791981604331    12.000000000000
         N            5.394389097928     1.894114934023     1.879220604331    14.003074004430
         C            6.424934097928     2.742308934023     2.490353604331    12.000000000000
         C            4.842350097928     2.331623934023     0.577009604331    12.000000000000
         C            5.735822097928     1.952673934023    -0.633997395669    12.000000000000
         O            0.250065097928    -4.284357065977    -1.015178395669    15.994914619570
         C           -6.452273902072    -3.274360065977     0.199752604331    12.000000000000
         H            0.238160097928     5.384928934023     1.083594604331     1.007825032230
         H           -2.215906902072     5.006060934023     1.011365604331     1.007825032230
         H           -1.350484902072     0.793770934023     0.511953604331     1.007825032230
         H            1.781588097928     3.418472934023     0.831240604331     1.007825032230
         H           -4.442460902072     4.422271934023     1.205897604331     1.007825032230
         H           -6.739319902072     3.418106934023     1.072802604331     1.007825032230
         H           -6.289202902072    -0.701206065977     0.053094604331     1.007825032230
         H           -4.497456902072    -5.095882065977    -0.239195395669     1.007825032230
         H           -2.100081902072    -4.794435065977    -0.727042395669     1.007825032230
         H           -2.703408902072    -0.552555065977    -0.678175395669     1.007825032230
         H           -0.722940902072    -1.319045065977    -1.176725395669     1.007825032230
         H            0.985835097928    -0.449773065977    -0.267643395669     1.007825032230
         H            3.106634097928     0.667577934023    -0.638668395669     1.007825032230
         H            4.755078097928    -2.967686065977    -2.268555395669     1.007825032230
         H            2.560865097928    -4.056791065977    -1.997658395669     1.007825032230
         H            6.244011097928    -1.267666065977    -1.683858395669     1.007825032230
         H            5.497047097928     0.071232934023    -2.601765395669     1.007825032230
         H            6.774238097928    -1.385960065977     0.582906604331     1.007825032230
         H            7.925240097928     0.632660934023     0.863936604331     1.007825032230
         H            6.109083097928     0.086334934023     2.761535604331     1.007825032230
         H            4.359070097928    -0.267664065977     1.586079604331     1.007825032230
         H            7.334834097928     2.754342934023     1.879811604331     1.007825032230
         H            6.674994097928     2.371274934023     3.491082604331     1.007825032230
         H            6.056208097928     3.769249934023     2.595301604331     1.007825032230
         H            4.678174097928     3.665042934023     0.600361604331     1.007825032230
         H            3.990914097928     1.966135934023     0.501427604331     1.007825032230
         H            7.019812097928     2.790714934023    -0.487694395669     1.007825032230
         H            5.170361097928     2.332065934023    -1.767361395669     1.007825032230
         H           -7.138497902072    -2.896850065977    -0.571855395669     1.007825032230
         H           -6.737752902072    -2.803011065977     1.144349604331     1.007825032230
         H           -6.666896902072    -4.340673065977     0.308273604331     1.007825032230

  Running in c1 symmetry.

  Rotational constants: A =      0.00459  B =      0.00186  C =      0.00138 [cm^-1]
  Rotational constants: A =    137.49573  B =     55.84096  C =     41.43030 [MHz]
  Nuclear repulsion = 3735.627452842611092

  Charge       = 0
  Multiplicity = 1
  Electrons    = 262
  Nalpha       = 131
  Nbeta        = 131

  ==> Algorithm <==

  SCF Algorithm Type is DF.
  DIIS enabled.
  MOM disabled.
  Fractional occupation disabled.
  Guess Type is SAD.
  Energy threshold   = 1.00e-08
  Density threshold  = 1.00e-08
  Integral threshold = 0.00e+00

  ==> Primary Basis <==

  Basis Set: 6-311+G*
    Blend: 6-311+G*
    Number of shells: 463
    Number of basis function: 907
    Number of Cartesian functions: 944
    Spherical Harmonics?: true
    Max angular momentum: 2

   => Loading Basis Set <=

    Name: (6-311+G* AUX)
    Role: JKFIT
    Keyword: DF_BASIS_SCF
    atoms 1-4, 6-9, 11, 14-19, 21-28, 30-31, 33-35, 37 entry C          line   200 file /home/bdw2292/miniconda3/envs/p4env/share/psi4/basis/heavy-aug-cc-pvtz-jkfit.gbs 
    atoms 5, 10, 12-13, 20, 29, 32                     entry N          line   262 file /home/bdw2292/miniconda3/envs/p4env/share/psi4/basis/heavy-aug-cc-pvtz-jkfit.gbs 
    atoms 36                                           entry O          line   324 file /home/bdw2292/miniconda3/envs/p4env/share/psi4/basis/heavy-aug-cc-pvtz-jkfit.gbs 
    atoms 38-68                                        entry H          line   116 file /home/bdw2292/miniconda3/envs/p4env/share/psi4/basis/heavy-aug-cc-pvtz-jkfit.gbs 

  ==> Pre-Iterations <==

   -------------------------------------------------------
    Irrep   Nso     Nmo     Nalpha   Nbeta   Ndocc  Nsocc
   -------------------------------------------------------
     A        907     907       0       0       0       0
   -------------------------------------------------------
    Total     907     907     131     131     131       0
   -------------------------------------------------------

  ==> Integral Setup <==

  ==> DiskDFJK: Density-Fitted J/K Matrices <==

    J tasked:                  Yes
    K tasked:                  Yes
    wK tasked:                  No
    OpenMP threads:              6
    Integrals threads:           6
    Memory [MiB]:            14305
    Algorithm:                Core
    Integral Cache:           NONE
    Schwarz Cutoff:          1E-12
    Fitting Condition:       1E-10

   => Auxiliary Basis Set <=

  Basis Set: (6-311+G* AUX)
    Blend: HEAVY-AUG-CC-PVTZ-JKFIT
    Number of shells: 1420
    Number of basis function: 4778
    Number of Cartesian functions: 5932
    Spherical Harmonics?: true
    Max angular momentum: 4

  Minimum eigenvalue in the overlap matrix is 1.2605026499E-07.
  Using Symmetric Orthogonalization.

  SCF Guess: Superposition of Atomic Densities via on-the-fly atomic UHF.

  ==> Iterations <==

                           Total Energy        Delta E     RMS |[F,P]|

   @DF-RHF iter SAD: -1571.04390355366058   -1.57104e+03   0.00000e+00 
   @DF-RHF iter   1: -1571.25381976624794   -2.09916e-01   1.37519e-03 DIIS
   @DF-RHF iter   2: -1572.02263287792107   -7.68813e-01   7.18771e-04 DIIS
   @DF-RHF iter   3: -1572.20973055929881   -1.87098e-01   1.83739e-04 DIIS
   @DF-RHF iter   4: -1572.22627353590929   -1.65430e-02   7.27468e-05 DIIS
   @DF-RHF iter   5: -1572.22871055430187   -2.43702e-03   1.47083e-05 DIIS
   @DF-RHF iter   6: -1572.22885754856907   -1.46994e-04   6.79879e-06 DIIS
   @DF-RHF iter   7: -1572.22889251847209   -3.49699e-05   2.28728e-06 DIIS
   @DF-RHF iter   8: -1572.22889814024302   -5.62177e-06   8.99022e-07 DIIS
   @DF-RHF iter   9: -1572.22889906719433   -9.26951e-07   3.67121e-07 DIIS
   @DF-RHF iter  10: -1572.22889925088452   -1.83690e-07   1.60341e-07 DIIS
   @DF-RHF iter  11: -1572.22889928869381   -3.78093e-08   7.69684e-08 DIIS
   @DF-RHF iter  12: -1572.22889929868597   -9.99216e-09   3.08418e-08 DIIS
   @DF-RHF iter  13: -1572.22889930035308   -1.66710e-09   1.34310e-08 DIIS
   @DF-RHF iter  14: -1572.22889930077417   -4.21096e-10   6.17796e-09 DIIS
  Energy and wave function converged.


  ==> Post-Iterations <==

    Orbital Energies [Eh]
    ---------------------

    Doubly Occupied:                                                      

       1A    -20.519092     2A    -15.604175     3A    -15.600987  
       4A    -15.586995     5A    -15.581664     6A    -15.573608  
       7A    -15.567929     8A    -15.561455     9A    -11.374542  
      10A    -11.363549    11A    -11.337359    12A    -11.335424  
      13A    -11.334563    14A    -11.314333    15A    -11.308747  
      16A    -11.301666    17A    -11.301325    18A    -11.300886  
      19A    -11.292585    20A    -11.290250    21A    -11.280458  
      22A    -11.280417    23A    -11.278659    24A    -11.266213  
      25A    -11.260614    26A    -11.254192    27A    -11.253211  
      28A    -11.252336    29A    -11.252154    30A    -11.247998  
      31A    -11.246895    32A    -11.244069    33A    -11.242607  
      34A    -11.240021    35A    -11.233863    36A    -11.231058  
      37A    -11.225136    38A     -1.384547    39A     -1.345066  
      40A     -1.278882    41A     -1.251930    42A     -1.250661  
      43A     -1.241449    44A     -1.209553    45A     -1.207441  
      46A     -1.160995    47A     -1.139705    48A     -1.116315  
      49A     -1.075490    50A     -1.059773    51A     -1.048653  
      52A     -1.038010    53A     -1.021730    54A     -1.011303  
      55A     -1.007918    56A     -0.982747    57A     -0.950536  
      58A     -0.933322    59A     -0.926733    60A     -0.901041  
      61A     -0.873052    62A     -0.866928    63A     -0.858387  
      64A     -0.842983    65A     -0.839292    66A     -0.836247  
      67A     -0.826683    68A     -0.808124    69A     -0.779032  
      70A     -0.754997    71A     -0.740235    72A     -0.732127  
      73A     -0.729608    74A     -0.722296    75A     -0.698330  
      76A     -0.683180    77A     -0.671514    78A     -0.666044  
      79A     -0.657884    80A     -0.652631    81A     -0.651285  
      82A     -0.641906    83A     -0.636660    84A     -0.633297  
      85A     -0.631796    86A     -0.624553    87A     -0.619066  
      88A     -0.612269    89A     -0.607900    90A     -0.603899  
      91A     -0.601646    92A     -0.596836    93A     -0.592872  
      94A     -0.591213    95A     -0.586603    96A     -0.584052  
      97A     -0.580854    98A     -0.576103    99A     -0.566255  
     100A     -0.561569   101A     -0.549559   102A     -0.546647  
     103A     -0.545220   104A     -0.533466   105A     -0.524543  
     106A     -0.522483   107A     -0.513966   108A     -0.509060  
     109A     -0.507768   110A     -0.505943   111A     -0.497631  
     112A     -0.494525   113A     -0.484888   114A     -0.478361  
     115A     -0.452051   116A     -0.451185   117A     -0.443234  
     118A     -0.441051   119A     -0.427219   120A     -0.425156  
     121A     -0.414109   122A     -0.412037   123A     -0.400286  
     124A     -0.384438   125A     -0.373283   126A     -0.346066  
     127A     -0.342169   128A     -0.338898   129A     -0.322548  
     130A     -0.313494   131A     -0.289939  

    Virtual:                                                              

     132A      0.042534   133A      0.047212   134A      0.056536  
     135A      0.063578   136A      0.066570   137A      0.068881  
     138A      0.072277   139A      0.072850   140A      0.075483  
     141A      0.079551   142A      0.082003   143A      0.083989  
     144A      0.085229   145A      0.087869   146A      0.089780  
     147A      0.093912   148A      0.096773   149A      0.098007  
     150A      0.101519   151A      0.102610   152A      0.105339  
     153A      0.107353   154A      0.109098   155A      0.112815  
     156A      0.113275   157A      0.114077   158A      0.116375  
     159A      0.121130   160A      0.123141   161A      0.127206  
     162A      0.128351   163A      0.129511   164A      0.134096  
     165A      0.136622   166A      0.138319   167A      0.140265  
     168A      0.141777   169A      0.145787   170A      0.148084  
     171A      0.150866   172A      0.152249   173A      0.154494  
     174A      0.156713   175A      0.162151   176A      0.163363  
     177A      0.165395   178A      0.166424   179A      0.167369  
     180A      0.171801   181A      0.173203   182A      0.177330  
     183A      0.179925   184A      0.181852   185A      0.185549  
     186A      0.189858   187A      0.191952   188A      0.194322  
     189A      0.195572   190A      0.198332   191A      0.199886  
     192A      0.204386   193A      0.206574   194A      0.209307  
     195A      0.213091   196A      0.213377   197A      0.218216  
     198A      0.219396   199A      0.223391   200A      0.226372  
     201A      0.227896   202A      0.230565   203A      0.232343  
     204A      0.233601   205A      0.234239   206A      0.238490  
     207A      0.240304   208A      0.245296   209A      0.248372  
     210A      0.253126   211A      0.253567   212A      0.253930  
     213A      0.255668   214A      0.259515   215A      0.260160  
     216A      0.261635   217A      0.264282   218A      0.267360  
     219A      0.269087   220A      0.271763   221A      0.275474  
     222A      0.276687   223A      0.278254   224A      0.280790  
     225A      0.283026   226A      0.285186   227A      0.286623  
     228A      0.290000   229A      0.291684   230A      0.292342  
     231A      0.296121   232A      0.297083   233A      0.300017  
     234A      0.303061   235A      0.305616   236A      0.306694  
     237A      0.310484   238A      0.312144   239A      0.314073  
     240A      0.316146   241A      0.317931   242A      0.320066  
     243A      0.321438   244A      0.321584   245A      0.324867  
     246A      0.326165   247A      0.328537   248A      0.328882  
     249A      0.333493   250A      0.334527   251A      0.335057  
     252A      0.338888   253A      0.341210   254A      0.342802  
     255A      0.344653   256A      0.346305   257A      0.349951  
     258A      0.350468   259A      0.351556   260A      0.354466  
     261A      0.355886   262A      0.357405   263A      0.360002  
     264A      0.361981   265A      0.363689   266A      0.366255  
     267A      0.367073   268A      0.369280   269A      0.370701  
     270A      0.372395   271A      0.374403   272A      0.375205  
     273A      0.378661   274A      0.382075   275A      0.384098  
     276A      0.386346   277A      0.387954   278A      0.388985  
     279A      0.391200   280A      0.393018   281A      0.394602  
     282A      0.396131   283A      0.397608   284A      0.399638  
     285A      0.401285   286A      0.403326   287A      0.403903  
     288A      0.406781   289A      0.411516   290A      0.412689  
     291A      0.414133   292A      0.414456   293A      0.416799  
     294A      0.419267   295A      0.420145   296A      0.424681  
     297A      0.427069   298A      0.430254   299A      0.431777  
     300A      0.432860   301A      0.435754   302A      0.437673  
     303A      0.441471   304A      0.445235   305A      0.446647  
     306A      0.450699   307A      0.451411   308A      0.455657  
     309A      0.456964   310A      0.459412   311A      0.460722  
     312A      0.463204   313A      0.468524   314A      0.471705  
     315A      0.473085   316A      0.476402   317A      0.477267  
     318A      0.483949   319A      0.484923   320A      0.493343  
     321A      0.494027   322A      0.496846   323A      0.502194  
     324A      0.503672   325A      0.505556   326A      0.510400  
     327A      0.511720   328A      0.514638   329A      0.521143  
     330A      0.525018   331A      0.525788   332A      0.527152  
     333A      0.534133   334A      0.536445   335A      0.540287  
     336A      0.542301   337A      0.544298   338A      0.547377  
     339A      0.554002   340A      0.555595   341A      0.556030  
     342A      0.561407   343A      0.573931   344A      0.577403  
     345A      0.580673   346A      0.589678   347A      0.595914  
     348A      0.596370   349A      0.599034   350A      0.601586  
     351A      0.606482   352A      0.613280   353A      0.618902  
     354A      0.619661   355A      0.627104   356A      0.634474  
     357A      0.643352   358A      0.656208   359A      0.657810  
     360A      0.663954   361A      0.667449   362A      0.676513  
     363A      0.678359   364A      0.693745   365A      0.696121  
     366A      0.698575   367A      0.705578   368A      0.710991  
     369A      0.713275   370A      0.717495   371A      0.719336  
     372A      0.723866   373A      0.729081   374A      0.732694  
     375A      0.739032   376A      0.739734   377A      0.744313  
     378A      0.750759   379A      0.753793   380A      0.756876  
     381A      0.759610   382A      0.763114   383A      0.765010  
     384A      0.768590   385A      0.770454   386A      0.773511  
     387A      0.779755   388A      0.786363   389A      0.792002  
     390A      0.799651   391A      0.801130   392A      0.805669  
     393A      0.809150   394A      0.809306   395A      0.816195  
     396A      0.820037   397A      0.824655   398A      0.825864  
     399A      0.831820   400A      0.833263   401A      0.836852  
     402A      0.840223   403A      0.842328   404A      0.844341  
     405A      0.851049   406A      0.857541   407A      0.860137  
     408A      0.863787   409A      0.865396   410A      0.870674  
     411A      0.874547   412A      0.877313   413A      0.880780  
     414A      0.883041   415A      0.885110   416A      0.885996  
     417A      0.895032   418A      0.898980   419A      0.902038  
     420A      0.904591   421A      0.909542   422A      0.910558  
     423A      0.911650   424A      0.917735   425A      0.922031  
     426A      0.923611   427A      0.924210   428A      0.926660  
     429A      0.927644   430A      0.930100   431A      0.933062  
     432A      0.935519   433A      0.938174   434A      0.941913  
     435A      0.949082   436A      0.949894   437A      0.950758  
     438A      0.952780   439A      0.956288   440A      0.962314  
     441A      0.964938   442A      0.969435   443A      0.973315  
     444A      0.974949   445A      0.984439   446A      0.986400  
     447A      0.990844   448A      0.995940   449A      0.997394  
     450A      0.998922   451A      1.008038   452A      1.009389  
     453A      1.017283   454A      1.021928   455A      1.024205  
     456A      1.036217   457A      1.038771   458A      1.051172  
     459A      1.057441   460A      1.059424   461A      1.062918  
     462A      1.066696   463A      1.069240   464A      1.073783  
     465A      1.076880   466A      1.081362   467A      1.085085  
     468A      1.092841   469A      1.100180   470A      1.101521  
     471A      1.109180   472A      1.114862   473A      1.118937  
     474A      1.129817   475A      1.132140   476A      1.132795  
     477A      1.137404   478A      1.140135   479A      1.144674  
     480A      1.147094   481A      1.148614   482A      1.154157  
     483A      1.159234   484A      1.163777   485A      1.166795  
     486A      1.170458   487A      1.176500   488A      1.177662  
     489A      1.182850   490A      1.184214   491A      1.186572  
     492A      1.191089   493A      1.192772   494A      1.200386  
     495A      1.207696   496A      1.210284   497A      1.211907  
     498A      1.219272   499A      1.226541   500A      1.231462  
     501A      1.233400   502A      1.238785   503A      1.243182  
     504A      1.245440   505A      1.256326   506A      1.256445  
     507A      1.265439   508A      1.270568   509A      1.272574  
     510A      1.280062   511A      1.285783   512A      1.286767  
     513A      1.289597   514A      1.294281   515A      1.299206  
     516A      1.303149   517A      1.308284   518A      1.317252  
     519A      1.321450   520A      1.331653   521A      1.335255  
     522A      1.342840   523A      1.344278   524A      1.357024  
     525A      1.361993   526A      1.368195   527A      1.377056  
     528A      1.384356   529A      1.388259   530A      1.396521  
     531A      1.417150   532A      1.423154   533A      1.428364  
     534A      1.435348   535A      1.437708   536A      1.445763  
     537A      1.452467   538A      1.455502   539A      1.457732  
     540A      1.465692   541A      1.472658   542A      1.483335  
     543A      1.489168   544A      1.491671   545A      1.502852  
     546A      1.507350   547A      1.514393   548A      1.522571  
     549A      1.532980   550A      1.537603   551A      1.549228  
     552A      1.558333   553A      1.567769   554A      1.579913  
     555A      1.585661   556A      1.588138   557A      1.591765  
     558A      1.603574   559A      1.605884   560A      1.613038  
     561A      1.628506   562A      1.633622   563A      1.645788  
     564A      1.656731   565A      1.666470   566A      1.678522  
     567A      1.689566   568A      1.707774   569A      1.718166  
     570A      1.732552   571A      1.748496   572A      1.754375  
     573A      1.758409   574A      1.772068   575A      1.780554  
     576A      1.788790   577A      1.798832   578A      1.802164  
     579A      1.805807   580A      1.811196   581A      1.818644  
     582A      1.823177   583A      1.824018   584A      1.832868  
     585A      1.840618   586A      1.845981   587A      1.849409  
     588A      1.857071   589A      1.858855   590A      1.863515  
     591A      1.866659   592A      1.873043   593A      1.875384  
     594A      1.876975   595A      1.882704   596A      1.885826  
     597A      1.890429   598A      1.901299   599A      1.920177  
     600A      1.922083   601A      1.925842   602A      1.932834  
     603A      1.939809   604A      1.960225   605A      1.962521  
     606A      1.968734   607A      1.971711   608A      1.996483  
     609A      2.000288   610A      2.009621   611A      2.018473  
     612A      2.029775   613A      2.033726   614A      2.043349  
     615A      2.046368   616A      2.060455   617A      2.068140  
     618A      2.069586   619A      2.078460   620A      2.087677  
     621A      2.090231   622A      2.091628   623A      2.102051  
     624A      2.108248   625A      2.117098   626A      2.119738  
     627A      2.126901   628A      2.139219   629A      2.148924  
     630A      2.157904   631A      2.163088   632A      2.173670  
     633A      2.181240   634A      2.185222   635A      2.194906  
     636A      2.200937   637A      2.205297   638A      2.211988  
     639A      2.217381   640A      2.219066   641A      2.226734  
     642A      2.236250   643A      2.239396   644A      2.241611  
     645A      2.244935   646A      2.246451   647A      2.255904  
     648A      2.258607   649A      2.262188   650A      2.268967  
     651A      2.274534   652A      2.285788   653A      2.293183  
     654A      2.301990   655A      2.316205   656A      2.322410  
     657A      2.375108   658A      2.380116   659A      2.382679  
     660A      2.389854   661A      2.395338   662A      2.414961  
     663A      2.433389   664A      2.442897   665A      2.452783  
     666A      2.455251   667A      2.496199   668A      2.503039  
     669A      2.506640   670A      2.511056   671A      2.539640  
     672A      2.547742   673A      2.552433   674A      2.575834  
     675A      2.603679   676A      2.621479   677A      2.637546  
     678A      2.643161   679A      2.649019   680A      2.654147  
     681A      2.659413   682A      2.661348   683A      2.663378  
     684A      2.668218   685A      2.676105   686A      2.680180  
     687A      2.687636   688A      2.690140   689A      2.694832  
     690A      2.703628   691A      2.720102   692A      2.726785  
     693A      2.743786   694A      2.769455   695A      2.772740  
     696A      2.780469   697A      2.787741   698A      2.789582  
     699A      2.798270   700A      2.813010   701A      2.826479  
     702A      2.834159   703A      2.840158   704A      2.860691  
     705A      2.872753   706A      2.879410   707A      2.886907  
     708A      2.891035   709A      2.892162   710A      2.905180  
     711A      2.910095   712A      2.925108   713A      2.927227  
     714A      2.933808   715A      2.940371   716A      2.957615  
     717A      2.959626   718A      2.964890   719A      2.980688  
     720A      2.988155   721A      2.999764   722A      3.004684  
     723A      3.016581   724A      3.019477   725A      3.031752  
     726A      3.035311   727A      3.042448   728A      3.045759  
     729A      3.065532   730A      3.066959   731A      3.083106  
     732A      3.085703   733A      3.088895   734A      3.100226  
     735A      3.101935   736A      3.109068   737A      3.135140  
     738A      3.149126   739A      3.150204   740A      3.162113  
     741A      3.165971   742A      3.169578   743A      3.177245  
     744A      3.191946   745A      3.196252   746A      3.208529  
     747A      3.223992   748A      3.224971   749A      3.236312  
     750A      3.240466   751A      3.243379   752A      3.255799  
     753A      3.263009   754A      3.271332   755A      3.277881  
     756A      3.293795   757A      3.301101   758A      3.310353  
     759A      3.314108   760A      3.320935   761A      3.338238  
     762A      3.343489   763A      3.343919   764A      3.351092  
     765A      3.364247   766A      3.368501   767A      3.374719  
     768A      3.384349   769A      3.386248   770A      3.394196  
     771A      3.400340   772A      3.423330   773A      3.432443  
     774A      3.454085   775A      3.473450   776A      3.492159  
     777A      3.504514   778A      3.528909   779A      3.531356  
     780A      3.560821   781A      3.568479   782A      3.571809  
     783A      3.578730   784A      3.585926   785A      3.598316  
     786A      3.618758   787A      3.633520   788A      3.637817  
     789A      3.655231   790A      3.661474   791A      3.686520  
     792A      3.689269   793A      3.701068   794A      3.704502  
     795A      3.713143   796A      3.728495   797A      3.732662  
     798A      3.754130   799A      3.761092   800A      3.766674  
     801A      3.771550   802A      3.773722   803A      3.779178  
     804A      3.785665   805A      3.792468   806A      3.810569  
     807A      3.812724   808A      3.817295   809A      3.825863  
     810A      3.833620   811A      3.858335   812A      3.864292  
     813A      3.872042   814A      3.894310   815A      3.899155  
     816A      3.917476   817A      3.932320   818A      3.950466  
     819A      3.962138   820A      4.005014   821A      4.026059  
     822A      4.029584   823A      4.049623   824A      4.068628  
     825A      4.087916   826A      4.106457   827A      4.125002  
     828A      4.159304   829A      4.168040   830A      4.185720  
     831A      4.224566   832A      4.292535   833A      4.337989  
     834A      4.364214   835A      4.379037   836A      4.392660  
     837A      4.406608   838A      4.413385   839A      4.415355  
     840A      4.420468   841A      4.440940   842A      4.467174  
     843A      4.481519   844A      4.483990   845A      4.493299  
     846A      4.573396   847A      4.595032   848A      4.632878  
     849A      4.692947   850A      4.761081   851A      4.850972  
     852A      4.874926   853A      4.952871   854A      4.990751  
     855A      5.018092   856A      5.054397   857A      5.096344  
     858A      5.185785   859A      5.206506   860A      5.218968  
     861A      5.242243   862A      5.283243   863A      5.340915  
     864A      5.583957   865A      5.645546   866A      5.686143  
     867A      5.767731   868A      5.826965   869A      5.852904  
     870A      6.379338   871A     24.536916   872A     24.590459  
     873A     24.635501   874A     24.679957   875A     24.700907  
     876A     24.726508   877A     24.794080   878A     24.805662  
     879A     24.810890   880A     24.870532   881A     24.886023  
     882A     24.981361   883A     24.999988   884A     25.010877  
     885A     25.020460   886A     25.023004   887A     25.041027  
     888A     25.058106   889A     25.060843   890A     25.069969  
     891A     25.132887   892A     25.150924   893A     25.171168  
     894A     25.182111   895A     25.194135   896A     25.201613  
     897A     25.205038   898A     25.274807   899A     25.278517  
     900A     36.903974   901A     36.930404   902A     36.970486  
     903A     36.997688   904A     37.047564   905A     37.097628  
     906A     37.140939   907A     51.758461  

    Final Occupation by Irrep:
              A 
    DOCC [   131 ]

  @DF-RHF Final Energy: -1572.22889930077417

   => Energetics <=

    Nuclear Repulsion Energy =           3735.6274528426110919
    One-Electron Energy =               -9568.8801850811069016
    Two-Electron Energy =                4261.0238329377216360
    Total Energy =                      -1572.2288993007741738

Computation Completed


Properties will be evaluated at   0.000000,   0.000000,   0.000000 [a0]

Properties computed using the SCF density matrix

  Nuclear Dipole Moment: [e a0]
     X:    37.1913      Y:     9.9517      Z:     6.5327

  Electronic Dipole Moment: [e a0]
     X:   -37.7102      Y:    -7.2799      Z:    -6.1776

  Dipole Moment: [e a0]
     X:    -0.5190      Y:     2.6717      Z:     0.3551     Total:     2.7447

  Dipole Moment: [D]
     X:    -1.3191      Y:     6.7909      Z:     0.9026     Total:     6.9764


*** tstop() called on node54.bme.utexas.edu at Fri Apr 24 12:14:47 2020
Module time:
	user time   =    3980.63 seconds =      66.34 minutes
	system time =     210.85 seconds =       3.51 minutes
	total time  =        904 seconds =      15.07 minutes
Total time:
	user time   =    3980.63 seconds =      66.34 minutes
	system time =     210.85 seconds =       3.51 minutes
	total time  =        904 seconds =      15.07 minutes

*** tstart() called on node54.bme.utexas.edu
*** at Fri Apr 24 12:14:47 2020


  //>>>>>>>>>>>>>>>>>>>>>>>>>>>>>>>>>>>//
  //               DFMP2               //
  //<<<<<<<<<<<<<<<<<<<<<<<<<<<<<<<<<<<//

   => Loading Basis Set <=

    Name: (6-311+G* AUX)
    Role: RIFIT
    Keyword: DF_BASIS_MP2
    atoms 1-4, 6-9, 11, 14-19, 21-28, 30-31, 33-35, 37 entry C          line   148 file /home/bdw2292/miniconda3/envs/p4env/share/psi4/basis/heavy-aug-cc-pvtz-ri.gbs 
    atoms 5, 10, 12-13, 20, 29, 32                     entry N          line   206 file /home/bdw2292/miniconda3/envs/p4env/share/psi4/basis/heavy-aug-cc-pvtz-ri.gbs 
    atoms 36                                           entry O          line   264 file /home/bdw2292/miniconda3/envs/p4env/share/psi4/basis/heavy-aug-cc-pvtz-ri.gbs 
    atoms 38-68                                        entry H          line    44 file /home/bdw2292/miniconda3/envs/p4env/share/psi4/basis/heavy-aug-cc-pvtz-ri.gbs 

	 --------------------------------------------------------
	                          DF-MP2                         
	      2nd-Order Density-Fitted Moller-Plesset Theory     
	              RMP2 Wavefunction,   6 Threads             
	                                                         
	        Rob Parrish, Justin Turney, Andy Simmonett,      
	           Ed Hohenstein, and C. David Sherrill          
	 --------------------------------------------------------

   => Auxiliary Basis Set <=

  Basis Set: (6-311+G* AUX)
    Blend: HEAVY-AUG-CC-PVTZ-RI
    Number of shells: 1346
    Number of basis function: 4852
    Number of Cartesian functions: 6117
    Spherical Harmonics?: true
    Max angular momentum: 4

	 --------------------------------------------------------
	                 NBF =   907, NAUX =  4852
	 --------------------------------------------------------
	   CLASS    FOCC     OCC    AOCC    AVIR     VIR    FVIR
	   PAIRS      37     131      94     776     776       0
	 --------------------------------------------------------

	-----------------------------------------------------------
	 ==================> DF-MP2 Energies <==================== 
	-----------------------------------------------------------
	 Reference Energy          =   -1572.2288993007741738 [Eh]
	 Singles Energy            =      -0.0000000000000000 [Eh]
	 Same-Spin Energy          =      -1.4488234400134452 [Eh]
	 Opposite-Spin Energy      =      -3.8946452731148007 [Eh]
	 Correlation Energy        =      -5.3434687131282459 [Eh]
	 Total Energy              =   -1577.5723680139024054 [Eh]
	-----------------------------------------------------------
	 ================> DF-SCS-MP2 Energies <================== 
	-----------------------------------------------------------
	 SCS Same-Spin Scale       =       0.3333333333333333 [-]
	 SCS Opposite-Spin Scale   =       1.2000000000000000 [-]
	 SCS Same-Spin Energy      =      -0.4829411466711484 [Eh]
	 SCS Opposite-Spin Energy  =      -4.6735743277377608 [Eh]
	 SCS Correlation Energy    =      -5.1565154744089092 [Eh]
	 SCS Total Energy          =   -1577.3854147751831078 [Eh]
	-----------------------------------------------------------


*** tstop() called on node54.bme.utexas.edu at Fri Apr 24 12:21:39 2020
Module time:
	user time   =    1978.24 seconds =      32.97 minutes
	system time =      68.23 seconds =       1.14 minutes
	total time  =        412 seconds =       6.87 minutes
Total time:
	user time   =    5958.88 seconds =      99.31 minutes
	system time =     279.08 seconds =       4.65 minutes
	total time  =       1316 seconds =      21.93 minutes


Properties will be evaluated at   0.000000,   0.000000,   0.000000 [a0]
OEProp: No title given, name of density matrix used for the following properties is 'SCF density'


  Wiberg Bond Indices using Orthogonal Lowdin Orbitals:

  Irrep: 1 Size: 68 x 68

                 1                   2                   3                   4                   5

    1     0.00000000000000     1.50927125877206     0.12961099448559     0.14760006246578     0.12904661725158
    2     1.50927125877206     0.00000000000000     1.42442025010457     0.13176524071939     0.12485871618417
    3     0.12961099448559     1.42442025010457     0.00000000000000     1.38232542541645     0.12212432532527
    4     0.14760006246578     0.13176524071939     1.38232542541645     0.00000000000000     1.68149437605737
    5     0.12904661725158     0.12485871618417     0.12212432532527     1.68149437605737     0.00000000000000
    6     1.50965208539045     0.14394754915700     0.13994917303963     0.15772944781838     1.64577171787129
    7     0.01544529390414     0.10542518620536     1.02676717248061     0.10670999637110     0.01453152694582
    8     0.00397427661156     0.04545968368436     0.10050715736097     0.02493392699941     0.00236249408174
    9     0.00044923743640     0.00509642177815     0.01544522376831     0.00435167766162     0.00073678429464
   10     0.00044808063426     0.00555521428279     0.00600557694988     0.00624815950333     0.00035010992026
   11     0.00095000333125     0.00351633220108     0.01844328654005     0.00743961953205     0.00049800151886
   12     0.00300313123657     0.02260269930280     0.12106948967152     0.06539135715267     0.00432122843314
   13     0.00018353579406     0.00053463546447     0.00172580312606     0.00098711500142     0.00009792586122
   14     0.00004517119594     0.00012470400502     0.00065389907628     0.00159500059057     0.00012954723928
   15     0.00001359133601     0.00003107228888     0.00009243077204     0.00019236901794     0.00002033365031
   16     0.00000380103347     0.00000945988639     0.00006127842144     0.00033668623272     0.00001673460601
   17     0.00001405907688     0.00002380279163     0.00007417580292     0.00034081935049     0.00004929145522
   18     0.00003848808011     0.00007269109130     0.00035080067065     0.00229187633660     0.00024180381877
   19     0.00021268205321     0.00030425465347     0.00232235347326     0.01214919017479     0.00065811567277
   20     0.00006870661141     0.00008395468952     0.00038894257222     0.00373697503919     0.00066976215138
   21     0.00001880275115     0.00001990104971     0.00006907362490     0.00053219333641     0.00027127423402
   22     0.00006745554518     0.00004680330399     0.00007074325222     0.00077337146496     0.00196275472849
   23     0.00068664075522     0.00043969590593     0.00061762819085     0.00903528821410     0.02867679561881
   24     0.00028111944865     0.00025714120365     0.00035454770098     0.00167977193987     0.01286451561950
   25     0.00001829242248     0.00001495563554     0.00002487563706     0.00016512540289     0.00065524663058
   26     0.00001510287180     0.00000796138385     0.00001561533981     0.00018056066404     0.00044885182782
   27     0.00001559292408     0.00000761369800     0.00001972035677     0.00021491762645     0.00057139257213
   28     0.00000832146183     0.00000311203481     0.00000422800225     0.00003078974709     0.00007564382607
   29     0.00002786212496     0.00000294453632     0.00000229103919     0.00001006527021     0.00002933272798
   30     0.00002279118109     0.00000308089860     0.00000264014955     0.00001023460140     0.00004132266789
   31     0.00003533203858     0.00001749285138     0.00001614677187     0.00002112464262     0.00014466134584
   32     0.00012509139483     0.00003232193488     0.00002970145336     0.00002993250137     0.00024245471328
   33     0.00003895960616     0.00000932000138     0.00001080263248     0.00001261021162     0.00004758160006
   34     0.00100237446970     0.00025568890743     0.00025382269779     0.00032474661211     0.00186669372023
   35     0.00013492747616     0.00003579882729     0.00002586061367     0.00005077210693     0.00035086984256
   36     0.00000261284116     0.00000331157509     0.00001703477455     0.00016759096983     0.00005757476225
   37     0.00000370800191     0.00001094334483     0.00004894300338     0.00005727517532     0.00000453123783
   38     0.84205436447453     0.05672788711698     0.00962341939947     0.00273611948798     0.00788922834732
   39     0.05349183215699     0.82974123867080     0.05229031616579     0.00961381596238     0.00126784931984
   40     0.00206824086951     0.00817913992040     0.04934205480678     0.80873826228389     0.06250121670779
   41     0.05445494834656     0.00946136983179     0.00250824974456     0.01273922417113     0.06462565410343
   42     0.00071301017444     0.01037625480176     0.01110387315283     0.00057165304998     0.00016089554254
   43     0.00003816948368     0.00020578004784     0.00109234546410     0.00026141941955     0.00006342308912
   44     0.00001346089827     0.00005061438616     0.00023631390600     0.00004340140759     0.00000602140386
   45     0.00000062173187     0.00000184772349     0.00000893934162     0.00001940434186     0.00000186956026
   46     0.00000121181542     0.00000226088827     0.00000720280932     0.00002343990295     0.00000762137892
   47     0.00005435140007     0.00007607701433     0.00138600553352     0.00540211315236     0.00028393237237
   48     0.00003603181666     0.00002687031794     0.00010749951537     0.00124148181218     0.00033380889673
   49     0.00028197508126     0.00010419942437     0.00020738539695     0.00482439649338     0.01102831974222
   50     0.00002246335103     0.00002129281475     0.00005143629450     0.00017438924961     0.00148554458189
   51     0.00000166387759     0.00000096597191     0.00000316417196     0.00002140863862     0.00002981959959
   52     0.00000229082743     0.00000107504116     0.00000282350543     0.00000924123530     0.00004514038706
   53     0.00000347181410     0.00000035842188     0.00000090945945     0.00000946598359     0.00000689322481
   54     0.00000125868509     0.00000049746090     0.00000127390539     0.00000418531437     0.00001842506375
   55     0.00000280050441     0.00000050121813     0.00000066911694     0.00000139443784     0.00000580071534
   56     0.00001579367450     0.00000121645200     0.00000101650582     0.00000380872307     0.00001031855960
   57     0.00000095869707     0.00000033998313     0.00000017682769     0.00000052880798     0.00000313605179
   58     0.00000549070301     0.00000216500708     0.00000332910475     0.00000694597812     0.00009668370321
   59     0.00000417188151     0.00000079676244     0.00000077170383     0.00000328180007     0.00000729849355
   60     0.00000127737181     0.00000020983969     0.00000015774534     0.00000040820038     0.00000037478274
   61     0.00000418689135     0.00000070836304     0.00000070705527     0.00000091831707     0.00000573233808
   62     0.00026563958777     0.00001757544986     0.00000478963812     0.00002302092664     0.00010253677678
   63     0.00017294409541     0.00005675313892     0.00001459718368     0.00004436667448     0.00052956021658
   64     0.00001256766590     0.00000372826277     0.00000204363393     0.00002543027805     0.00019558393284
   65     0.00000301285347     0.00000161404469     0.00000271730104     0.00000282939075     0.00002461983597
   66     0.00000072013236     0.00000144398098     0.00001001422993     0.00000854282292     0.00000064550497
   67     0.00000079096762     0.00000145450574     0.00000628493300     0.00000983576705     0.00000046104760
   68     0.00000034083762     0.00000078754390     0.00000412075141     0.00000877492110     0.00000043340011

                 6                   7                   8                   9                  10

    1     1.50965208539045     0.01544529390414     0.00397427661156     0.00044923743640     0.00044808063426
    2     0.14394754915700     0.10542518620536     0.04545968368436     0.00509642177815     0.00555521428279
    3     0.13994917303963     1.02676717248061     0.10050715736097     0.01544522376831     0.00600557694988
    4     0.15772944781838     0.10670999637110     0.02493392699941     0.00435167766162     0.00624815950333
    5     1.64577171787129     0.01453152694582     0.00236249408174     0.00073678429464     0.00035010992026
    6     0.00000000000000     0.01030995101176     0.00728082271518     0.00128499087643     0.00343347494156
    7     0.01030995101176     0.00000000000000     1.40979260300343     0.15009332535373     0.11307524095951
    8     0.00728082271518     1.40979260300343     0.00000000000000     1.47490685600934     0.13547315846135
    9     0.00128499087643     0.15009332535373     1.47490685600934     0.00000000000000     1.68181553331891
   10     0.00343347494156     0.11307524095951     0.13547315846135     1.68181553331891     0.00000000000000
   11     0.00091382024123     0.14243335534070     0.11678485247215     0.15490061809207     1.51558803844445
   12     0.00632174567366     1.53556297666901     0.12940990861137     0.11390735029610     0.11148305941806
   13     0.00008690521505     0.01991461135556     0.02215674390052     0.02526505581157     0.16515236493067
   14     0.00006156268861     0.00315471788823     0.00264077387486     0.00344203735545     0.01743409469900
   15     0.00000926400256     0.00056086128451     0.00153028585592     0.00099961932796     0.00331573321877
   16     0.00000607150785     0.00020169507992     0.00021380027956     0.00018834090171     0.00053166403840
   17     0.00000863646480     0.00028391706424     0.00136709033960     0.00046481107657     0.00131818622008
   18     0.00005963494888     0.00062925570324     0.00029716480982     0.00017107893702     0.00047133802804
   19     0.00024810894140     0.00635845020317     0.00341739553917     0.00169283244595     0.00460539849159
   20     0.00009117300398     0.00014640425739     0.00003544296427     0.00002395750777     0.00007010699276
   21     0.00004023969026     0.00002867829946     0.00001120399447     0.00000770091634     0.00001945080362
   22     0.00021062712943     0.00001301014476     0.00000509041381     0.00000265095036     0.00000500508917
   23     0.00287477333792     0.00010171584725     0.00002839498781     0.00000856622472     0.00000573262807
   24     0.00270691815224     0.00004237660423     0.00002484245067     0.00000421888569     0.00000388124785
   25     0.00023148409252     0.00000413426194     0.00000256029574     0.00000051180447     0.00000072801479
   26     0.00013549809423     0.00000295749501     0.00000088332023     0.00000043186373     0.00000051866515
   27     0.00012572609097     0.00000497966350     0.00000192442693     0.00000093227761     0.00000142116036
   28     0.00007680072502     0.00000119538919     0.00000046561715     0.00000012056447     0.00000009415493
   29     0.00020845619791     0.00000087817288     0.00000038920539     0.00000006787534     0.00000005101447
   30     0.00015070209842     0.00000070881336     0.00000040068126     0.00000005931251     0.00000005012948
   31     0.00026759856766     0.00000188564643     0.00000148550649     0.00000028206479     0.00000056751361
   32     0.00082530459146     0.00000576486040     0.00000303047002     0.00000070614210     0.00000155961726
   33     0.00025842537514     0.00000254395664     0.00000122796102     0.00000037715215     0.00000045304275
   34     0.01248715838099     0.00002934203979     0.00002496275784     0.00000362071019     0.00000840334080
   35     0.00124917864913     0.00000559281466     0.00000329191890     0.00000053207869     0.00000094542690
   36     0.00001130506599     0.00001447311962     0.00000971059678     0.00000556372399     0.00001340771204
   37     0.00000337141149     0.00018354990762     0.00016753898273     0.00016237886474     0.00083581535163
   38     0.05965590688592     0.00093036857907     0.00017483028898     0.00003513852627     0.00001752349618
   39     0.00968991357898     0.01300740477443     0.01075956505800     0.00073397840510     0.00018665299191
   40     0.01196724246738     0.01217432509784     0.00074491794533     0.00019990072554     0.00023322257410
   41     0.83471148486985     0.00033500633618     0.00007883023884     0.00002452387565     0.00001147790401
   42     0.00020600243825     0.05548451849409     0.82757453219337     0.05774474073562     0.00715076289958
   43     0.00003433371213     0.00944181812457     0.05380097231690     0.83805481522418     0.06623693784901
   44     0.00000451690689     0.00114607053005     0.00061741627956     0.00197757528707     0.01816946538851
   45     0.00000068702188     0.00001872448142     0.00000867573724     0.00002414841745     0.00005269132120
   46     0.00000155354593     0.00001814138716     0.00000632660117     0.00000522323700     0.00001288447808
   47     0.00008581355058     0.00280208256583     0.00041812259975     0.00023558116889     0.00021997442083
   48     0.00003226136348     0.00004423411771     0.00001020405202     0.00000275038255     0.00001165813986
   49     0.00116737728160     0.00002821156457     0.00000780150175     0.00000200268308     0.00000189751471
   50     0.00100411349050     0.00000564371918     0.00000367007888     0.00000048241329     0.00000075979360
   51     0.00000562508342     0.00000040692937     0.00000021112132     0.00000005540346     0.00000004831896
   52     0.00001358846522     0.00000125693550     0.00000023545250     0.00000010190255     0.00000013849438
   53     0.00001661889929     0.00000009264251     0.00000012314780     0.00000002069406     0.00000001163933
   54     0.00000706384224     0.00000036382440     0.00000008642452     0.00000004572990     0.00000001395214
   55     0.00001111108196     0.00000029166534     0.00000006821598     0.00000003189848     0.00000000653262
   56     0.00009405525514     0.00000028261558     0.00000022565200     0.00000001501215     0.00000001417946
   57     0.00001182863300     0.00000008206971     0.00000003525049     0.00000000455523     0.00000000276249
   58     0.00002568344860     0.00000050964642     0.00000020049975     0.00000006990022     0.00000003075757
   59     0.00003149272227     0.00000013873885     0.00000005595713     0.00000001291062     0.00000001226354
   60     0.00000456104320     0.00000013070209     0.00000003814436     0.00000002184424     0.00000000349349
   61     0.00002974355638     0.00000039471426     0.00000015997396     0.00000010331262     0.00000002225779
   62     0.00263544500960     0.00000278409572     0.00000084050888     0.00000009803790     0.00000006519380
   63     0.00227228810339     0.00000311716094     0.00000102089365     0.00000021999448     0.00000010325877
   64     0.00026213736062     0.00000198713449     0.00000077480600     0.00000015459146     0.00000004750699
   65     0.00001933582592     0.00000016086329     0.00000027884729     0.00000006562629     0.00000013327620
   66     0.00000027491460     0.00003166013166     0.00005670081022     0.00001851170629     0.00009839919044
   67     0.00000041710683     0.00002883912425     0.00009997267203     0.00001674951276     0.00016514455119
   68     0.00000021020904     0.00001437964127     0.00000550221328     0.00000377187421     0.00003353861514

                11                  12                  13                  14                  15

    1     0.00095000333125     0.00300313123657     0.00018353579406     0.00004517119594     0.00001359133601
    2     0.00351633220108     0.02260269930280     0.00053463546447     0.00012470400502     0.00003107228888
    3     0.01844328654005     0.12106948967152     0.00172580312606     0.00065389907628     0.00009243077204
    4     0.00743961953205     0.06539135715267     0.00098711500142     0.00159500059057     0.00019236901794
    5     0.00049800151886     0.00432122843314     0.00009792586122     0.00012954723928     0.00002033365031
    6     0.00091382024123     0.00632174567366     0.00008690521505     0.00006156268861     0.00000926400256
    7     0.14243335534070     1.53556297666901     0.01991461135556     0.00315471788823     0.00056086128451
    8     0.11678485247215     0.12940990861137     0.02215674390052     0.00264077387486     0.00153028585592
    9     0.15490061809207     0.11390735029610     0.02526505581157     0.00344203735545     0.00099961932796
   10     1.51558803844445     0.11148305941806     0.16515236493067     0.01743409469900     0.00331573321877
   11     0.00000000000000     1.53745448290747     1.30089790894269     0.08524697637639     0.01835504266270
   12     1.53745448290747     0.00000000000000     0.14477935978648     0.03091870902695     0.00374257391909
   13     1.30089790894269     0.14477935978648     0.00000000000000     1.14809971634629     0.10844913424963
   14     0.08524697637639     0.03091870902695     1.14809971634629     0.00000000000000     1.32686216628376
   15     0.01835504266270     0.00374257391909     0.10844913424963     1.32686216628376     0.00000000000000
   16     0.00256371820236     0.00132442279096     0.01506600550360     0.12881509602626     1.46713703763195
   17     0.00432307719572     0.00263208050394     0.01279317174339     0.12384111730014     0.12835358446003
   18     0.00269856011846     0.00535170763597     0.01375775666919     0.12569816795821     0.12162756354724
   19     0.03040148407558     0.05903442370393     0.11410720467468     1.42795442310189     0.12221874530400
   20     0.00039363769099     0.00111473261071     0.00140915107052     0.01594611567221     0.01201672025879
   21     0.00008166321974     0.00015351968902     0.00033818744718     0.00292994983145     0.00582134625435
   22     0.00001773180372     0.00002744905791     0.00006644136829     0.00041004611987     0.00035891021801
   23     0.00001995402402     0.00012023388010     0.00001962248495     0.00014418125501     0.00037642643859
   24     0.00000426758455     0.00001855321894     0.00000459057502     0.00001953584795     0.00003997609585
   25     0.00000129106199     0.00000307828081     0.00000243362215     0.00002884246143     0.00018594753611
   26     0.00000116281387     0.00000140425988     0.00000314876227     0.00002411820664     0.00004106622308
   27     0.00000515650672     0.00000660610130     0.00001652653384     0.00011959009804     0.00036110541683
   28     0.00000028497471     0.00000064918646     0.00000042955372     0.00000338825706     0.00001083357681
   29     0.00000012464018     0.00000026241927     0.00000007470041     0.00000106405326     0.00000373547928
   30     0.00000011753613     0.00000025228915     0.00000005710416     0.00000048290541     0.00000141006685
   31     0.00000029676880     0.00000159420976     0.00000009275766     0.00000066731899     0.00000107294502
   32     0.00000042946104     0.00000248731738     0.00000006779941     0.00000020521521     0.00000018820445
   33     0.00000022291748     0.00000067734738     0.00000003732569     0.00000013971209     0.00000006741401
   34     0.00000261752312     0.00001421094237     0.00000049828807     0.00000061899825     0.00000045670752
   35     0.00000045821498     0.00000185691037     0.00000011798153     0.00000044417489     0.00000077890156
   36     0.00005202703680     0.00006892391726     0.00017401554800     0.00110617980080     0.00342171504301
   37     0.00425921500232     0.00095409935249     0.04240635661990     0.10140546620191     1.11529897352746
   38     0.00007168852307     0.00024868322317     0.00001170000245     0.00000756007408     0.00000089346338
   39     0.00014443709503     0.00037067615203     0.00005058712421     0.00002278025519     0.00000441062548
   40     0.00185593081386     0.01799447485466     0.00022441913302     0.00083522204461     0.00008292479051
   41     0.00002481744350     0.00009251883893     0.00000414767904     0.00000373261607     0.00000070224668
   42     0.00285602550170     0.00761014873792     0.00030700612054     0.00004509420461     0.00001457161923
   43     0.01303105380986     0.00139522598351     0.00080427252108     0.00029450810510     0.00004413509956
   44     0.04486484998825     0.00617712815972     0.79251885163862     0.03747634246979     0.00961205987466
   45     0.00033145048254     0.00004193428632     0.00088572611848     0.00939178785523     0.05406505202369
   46     0.00003946693715     0.00009675206671     0.00014368975004     0.00215952690635     0.00828935545020
   47     0.00726439803959     0.02523616181156     0.01191168681433     0.05070785969263     0.00745853209599
   48     0.00006468225405     0.00045173261267     0.00007791192532     0.00123528351092     0.00034404369230
   49     0.00000381290698     0.00003324801256     0.00000309841485     0.00001374813610     0.00006918699803
   50     0.00000063673096     0.00000324360828     0.00000033904031     0.00000149882819     0.00000062069095
   51     0.00000015836656     0.00000009823093     0.00000054483723     0.00000321910786     0.00000309078030
   52     0.00000060964460     0.00000063685434     0.00000124140337     0.00001208533163     0.00000779918376
   53     0.00000003641083     0.00000004703144     0.00000008190854     0.00000058083030     0.00000260982595
   54     0.00000004266246     0.00000006693143     0.00000007440668     0.00000128333397     0.00000796037592
   55     0.00000002373061     0.00000006438561     0.00000000804661     0.00000003965318     0.00000006068468
   56     0.00000004100217     0.00000006676622     0.00000000741426     0.00000010494165     0.00000010323244
   57     0.00000000368921     0.00000001269906     0.00000000331262     0.00000001611020     0.00000004676922
   58     0.00000008078473     0.00000040261757     0.00000002828751     0.00000034251300     0.00000020780123
   59     0.00000004942140     0.00000007057360     0.00000000452278     0.00000001080721     0.00000001088187
   60     0.00000000337221     0.00000000965738     0.00000000189853     0.00000002383683     0.00000001058005
   61     0.00000002205701     0.00000003877966     0.00000000659726     0.00000003362924     0.00000000146494
   62     0.00000014591721     0.00000053971360     0.00000001661666     0.00000002291278     0.00000001035352
   63     0.00000013189366     0.00000079980551     0.00000002459104     0.00000007717133     0.00000006779468
   64     0.00000011253738     0.00000029879100     0.00000002363954     0.00000006576681     0.00000031993102
   65     0.00000002290998     0.00000020306274     0.00000001664226     0.00000002679921     0.00000003796379
   66     0.00056699950942     0.00017791354380     0.00658233245006     0.01380616468792     0.04154891870734
   67     0.00084950888990     0.00022802944305     0.00852334388098     0.01384281141640     0.04194664599269
   68     0.00019396679195     0.00006200545807     0.00161471441537     0.00683275455783     0.04511014218097

                16                  17                  18                  19                  20

    1     0.00000380103347     0.00001405907688     0.00003848808011     0.00021268205321     0.00006870661141
    2     0.00000945988639     0.00002380279163     0.00007269109130     0.00030425465347     0.00008395468952
    3     0.00006127842144     0.00007417580292     0.00035080067065     0.00232235347326     0.00038894257222
    4     0.00033668623272     0.00034081935049     0.00229187633660     0.01214919017479     0.00373697503919
    5     0.00001673460601     0.00004929145522     0.00024180381877     0.00065811567277     0.00066976215138
    6     0.00000607150785     0.00000863646480     0.00005963494888     0.00024810894140     0.00009117300398
    7     0.00020169507992     0.00028391706424     0.00062925570324     0.00635845020317     0.00014640425739
    8     0.00021380027956     0.00136709033960     0.00029716480982     0.00341739553917     0.00003544296427
    9     0.00018834090171     0.00046481107657     0.00017107893702     0.00169283244595     0.00002395750777
   10     0.00053166403840     0.00131818622008     0.00047133802804     0.00460539849159     0.00007010699276
   11     0.00256371820236     0.00432307719572     0.00269856011846     0.03040148407558     0.00039363769099
   12     0.00132442279096     0.00263208050394     0.00535170763597     0.05903442370393     0.00111473261071
   13     0.01506600550360     0.01279317174339     0.01375775666919     0.11410720467468     0.00140915107052
   14     0.12881509602626     0.12384111730014     0.12569816795821     1.42795442310189     0.01594611567221
   15     1.46713703763195     0.12835358446003     0.12162756354724     0.12221874530400     0.01201672025879
   16     0.00000000000000     1.48995334155290     0.13702334109083     0.13245052192147     0.01459984185169
   17     1.48995334155290     0.00000000000000     1.42404722020539     0.12548126319061     0.10819966748389
   18     0.13702334109083     1.42404722020539     0.00000000000000     1.38800414877716     1.15166366325286
   19     0.13245052192147     0.12548126319061     1.38800414877716     0.00000000000000     0.13140410592038
   20     0.01459984185169     0.10819966748389     1.15166366325286     0.13140410592038     0.00000000000000
   21     0.00301271862742     0.03291336376819     0.08887065550785     0.02374558042382     1.34126076778383
   22     0.00042321855740     0.00358452165990     0.01521442564379     0.00231941230025     0.10593139030946
   23     0.00019227480581     0.00138428903065     0.00443612185305     0.00154809028993     0.04664734129983
   24     0.00003140653898     0.00020746033146     0.00047002678811     0.00016044031955     0.00390691477739
   25     0.00003209679627     0.00031032581276     0.00043615014247     0.00027196721363     0.00371961222675
   26     0.00002835752155     0.00016885939182     0.00056596096227     0.00013111274167     0.00279108104999
   27     0.00013011959314     0.00102821194414     0.00245739121523     0.00079933755299     0.01854699882863
   28     0.00000363286614     0.00002757434424     0.00005091252769     0.00002299323218     0.00030410182406
   29     0.00000098489771     0.00000732895295     0.00001425507415     0.00000687605712     0.00007289045541
   30     0.00000053863778     0.00000344230551     0.00000633753417     0.00000284308969     0.00003469091288
   31     0.00000071999694     0.00000383156768     0.00000806140321     0.00000424400035     0.00003146655804
   32     0.00000024824350     0.00000084866542     0.00000288645154     0.00000157070722     0.00000593367638
   33     0.00000009343343     0.00000026484223     0.00000070417922     0.00000060539248     0.00000187205651
   34     0.00000063363606     0.00000234051054     0.00000508487014     0.00000271625804     0.00001731215852
   35     0.00000053515049     0.00000270164936     0.00000621363101     0.00000255833860     0.00002729900695
   36     0.00364759157702     0.05054465544345     0.03265356895964     0.00555237800275     0.19649907865623
   37     0.12244414790405     0.01588281769211     0.00767068591357     0.01537778630058     0.00081647306490
   38     0.00000056776491     0.00000094035920     0.00000741381964     0.00002547133895     0.00000705513246
   39     0.00000167522194     0.00000220030622     0.00000512369013     0.00002954723153     0.00000652601782
   40     0.00017528087625     0.00014913543474     0.00147507023266     0.00614268417850     0.00149816024165
   41     0.00000061147618     0.00000103553809     0.00000281833368     0.00001283400364     0.00000573501146
   42     0.00000567666526     0.00000557487770     0.00002459731994     0.00012715729716     0.00000793309758
   43     0.00001102884018     0.00000529485227     0.00001347607567     0.00007249964330     0.00000123695273
   44     0.00065951377596     0.00028029520959     0.00076174549368     0.00652556533661     0.00018479415184
   45     0.83162558555851     0.05593675795760     0.00975857990446     0.00229811930101     0.00072570206607
   46     0.05502034201665     0.81175048315487     0.05440581277166     0.00891591892398     0.01067590446941
   47     0.00223363025111     0.00805613475682     0.05132752923071     0.78976408499780     0.01951368563592
   48     0.00072440444186     0.00605849072138     0.03920214376549     0.01529822361920     0.79793164693866
   49     0.00003134371342     0.00023550303648     0.00118932908562     0.00047613100485     0.01283465508107
   50     0.00000185284057     0.00000967546350     0.00001997176541     0.00000632774880     0.00010331788902
   51     0.00000260315773     0.00001671485388     0.00005572095982     0.00001751486202     0.00023888040413
   52     0.00002247149581     0.00010522239945     0.00012973231565     0.00004527236075     0.00052842512902
   53     0.00000073393607     0.00000581147359     0.00000909481496     0.00000478777430     0.00005825262068
   54     0.00000129991582     0.00001157132435     0.00001749024303     0.00001094552031     0.00014360743783
   55     0.00000002902828     0.00000019045600     0.00000046212102     0.00000014169330     0.00000252860791
   56     0.00000010591622     0.00000058102495     0.00000119963304     0.00000060194992     0.00000202796791
   57     0.00000001488671     0.00000010208588     0.00000015468464     0.00000014607404     0.00000104236717
   58     0.00000040549443     0.00000171210327     0.00000484992740     0.00000247227357     0.00001593755554
   59     0.00000001065800     0.00000003029623     0.00000006343282     0.00000004563376     0.00000019381519
   60     0.00000000841163     0.00000005012778     0.00000006847523     0.00000005809018     0.00000022046862
   61     0.00000000297721     0.00000000991799     0.00000004402269     0.00000004013415     0.00000012147229
   62     0.00000001262106     0.00000006855509     0.00000011204383     0.00000009845050     0.00000026265716
   63     0.00000012482013     0.00000045372734     0.00000117146491     0.00000061105961     0.00000503319488
   64     0.00000016006023     0.00000078228765     0.00000149399848     0.00000075179248     0.00000400771133
   65     0.00000005660078     0.00000029859767     0.00000089416804     0.00000018538395     0.00000383557719
   66     0.01307364097074     0.00085510133532     0.00295240630563     0.00079583631618     0.00038490541310
   67     0.01243226275702     0.00082354364207     0.00257219441959     0.00087248388430     0.00031532455419
   68     0.01948256692292     0.00142342658720     0.00034881843884     0.00073223601366     0.00006956906343

                21                  22                  23                  24                  25

    1     0.00001880275115     0.00006745554518     0.00068664075522     0.00028111944865     0.00001829242248
    2     0.00001990104971     0.00004680330399     0.00043969590593     0.00025714120365     0.00001495563554
    3     0.00006907362490     0.00007074325222     0.00061762819085     0.00035454770098     0.00002487563706
    4     0.00053219333641     0.00077337146496     0.00903528821410     0.00167977193987     0.00016512540289
    5     0.00027127423402     0.00196275472849     0.02867679561881     0.01286451561950     0.00065524663058
    6     0.00004023969026     0.00021062712943     0.00287477333792     0.00270691815224     0.00023148409252
    7     0.00002867829946     0.00001301014476     0.00010171584725     0.00004237660423     0.00000413426194
    8     0.00001120399447     0.00000509041381     0.00002839498781     0.00002484245067     0.00000256029574
    9     0.00000770091634     0.00000265095036     0.00000856622472     0.00000421888569     0.00000051180447
   10     0.00001945080362     0.00000500508917     0.00000573262807     0.00000388124785     0.00000072801479
   11     0.00008166321974     0.00001773180372     0.00001995402402     0.00000426758455     0.00000129106199
   12     0.00015351968902     0.00002744905791     0.00012023388010     0.00001855321894     0.00000307828081
   13     0.00033818744718     0.00006644136829     0.00001962248495     0.00000459057502     0.00000243362215
   14     0.00292994983145     0.00041004611987     0.00014418125501     0.00001953584795     0.00002884246143
   15     0.00582134625435     0.00035891021801     0.00037642643859     0.00003997609585     0.00018594753611
   16     0.00301271862742     0.00042321855740     0.00019227480581     0.00003140653898     0.00003209679627
   17     0.03291336376819     0.00358452165990     0.00138428903065     0.00020746033146     0.00031032581276
   18     0.08887065550785     0.01521442564379     0.00443612185305     0.00047002678811     0.00043615014247
   19     0.02374558042382     0.00231941230025     0.00154809028993     0.00016044031955     0.00027196721363
   20     1.34126076778383     0.10593139030946     0.04664734129983     0.00390691477739     0.00371961222675
   21     0.00000000000000     0.98363767035470     0.10675809161402     0.01533661526969     0.01180393806507
   22     0.98363767035470     0.00000000000000     1.42581620000048     0.13212504027444     0.12509879123786
   23     0.10675809161402     1.42581620000048     0.00000000000000     1.50140125657198     0.13024935918980
   24     0.01533661526969     0.13212504027444     1.50140125657198     0.00000000000000     1.43185327601926
   25     0.01180393806507     0.12509879123786     0.13024935918980     1.43185327601926     0.00000000000000
   26     0.01578873050651     0.13002094314082     0.13793984738106     0.13056459452389     1.42441836974598
   27     0.11415522384816     1.40571112963431     0.12819196617874     0.13778142477253     0.13024149413174
   28     0.00083849406525     0.00831811716883     0.01556356814366     0.10378002704726     1.05730322254319
   29     0.00020300736576     0.00179384945998     0.00198761205035     0.02316294741457     0.08442644897054
   30     0.00010960435397     0.00093816145803     0.00137794628629     0.01085442827358     0.02635476117152
   31     0.00009807409975     0.00115458601635     0.00752864473743     0.02505621530119     0.01903992759853
   32     0.00002452662564     0.00020255241067     0.00109881775089     0.00440467314251     0.00257849237702
   33     0.00000846450838     0.00005650942015     0.00032926164869     0.00128637979801     0.00087947470566
   34     0.00008873836585     0.00055637126871     0.00298244595547     0.02504115704647     0.00743071420978
   35     0.00009466924577     0.00060309476784     0.00160715592977     0.01855633637301     0.01955714891659
   36     2.17612553189344     0.13763915119038     0.02646833489358     0.00352031486686     0.00668578083895
   37     0.00034456451481     0.00004548902507     0.00003102814110     0.00000431234334     0.00000975636565
   38     0.00000282078629     0.00000581560319     0.00003455192419     0.00000993166802     0.00000111208166
   39     0.00000131167108     0.00000270631512     0.00002435950897     0.00001548966054     0.00000224535671
   40     0.00022770093455     0.00014063035889     0.00109525962306     0.00009478369760     0.00002272384525
   41     0.00000191742320     0.00001010022949     0.00009986111258     0.00022653245749     0.00001363119942
   42     0.00000201830645     0.00000090630981     0.00000831917066     0.00000254277676     0.00000012569403
   43     0.00000091112422     0.00000038326618     0.00000195218998     0.00000102714531     0.00000005482058
   44     0.00004635910265     0.00001129186308     0.00000354831414     0.00000076448877     0.00000060998756
   45     0.00017336075577     0.00004133550399     0.00003847683880     0.00000552075811     0.00000178734994
   46     0.00698467002287     0.00040316998140     0.00010912698887     0.00003556480433     0.00001798172685
   47     0.00167884111478     0.00017093369551     0.00023371118995     0.00001220088590     0.00000691160504
   48     0.04561134017340     0.01113835097726     0.01075233415554     0.00100643708362     0.00033858278356
   49     0.01281662921557     0.05311644883567     0.81061173567596     0.05365328381817     0.00837624794921
   50     0.00087744801948     0.00871523728074     0.05498450105673     0.80951060201404     0.05186658030153
   51     0.00094760923516     0.00928209471912     0.00234861950041     0.00979204443020     0.05375869012126
   52     0.01585561827379     0.05233901273744     0.00910165826149     0.00218609017576     0.00874960536170
   53     0.00013142284453     0.00092123385186     0.00077159471360     0.00721863473091     0.04356385231851
   54     0.00032842074243     0.00311404186008     0.00076903339408     0.01363569246315     0.04178412203537
   55     0.00000705875851     0.00003684476667     0.00008912987835     0.00130964388662     0.00770079086909
   56     0.00002655202566     0.00010659972745     0.00048119965948     0.00102977559633     0.00141356208877
   57     0.00000288445560     0.00003447830072     0.00013610674677     0.00029954086888     0.00032804100469
   58     0.00004005652567     0.00074218523076     0.00504511287872     0.01793077334910     0.00970752866184
   59     0.00000061686259     0.00000317429983     0.00001515142017     0.00006901477584     0.00006019239845
   60     0.00000079545077     0.00000892485919     0.00003550825640     0.00010157100667     0.00006590740226
   61     0.00000045619116     0.00000269945109     0.00001173096271     0.00007202413388     0.00002818023976
[...]
   15     0.00000010323244     0.00000004676922     0.00000020780123     0.00000001088187     0.00000001058005
   16     0.00000010591622     0.00000001488671     0.00000040549443     0.00000001065800     0.00000000841163
   17     0.00000058102495     0.00000010208588     0.00000171210327     0.00000003029623     0.00000005012778
   18     0.00000119963304     0.00000015468464     0.00000484992740     0.00000006343282     0.00000006847523
   19     0.00000060194992     0.00000014607404     0.00000247227357     0.00000004563376     0.00000005809018
   20     0.00000202796791     0.00000104236717     0.00001593755554     0.00000019381519     0.00000022046862
   21     0.00002655202566     0.00000288445560     0.00004005652567     0.00000061686259     0.00000079545077
   22     0.00010659972745     0.00003447830072     0.00074218523076     0.00000317429983     0.00000892485919
   23     0.00048119965948     0.00013610674677     0.00504511287872     0.00001515142017     0.00003550825640
   24     0.00102977559633     0.00029954086888     0.01793077334910     0.00006901477584     0.00010157100667
   25     0.00141356208877     0.00032804100469     0.00970752866184     0.00006019239845     0.00006590740226
   26     0.00025401531454     0.00007814268574     0.00165887602648     0.00002532995434     0.00001944716688
   27     0.00007909277561     0.00002605895497     0.00079902728705     0.00000410882354     0.00000854275525
   28     0.01047260495029     0.00061279801078     0.00539828836242     0.00023670609097     0.00003797068194
   29     0.05898211988613     0.00739526775736     0.00989895517191     0.00143033601267     0.00011044051006
   30     0.78988226990591     0.04395268346313     0.04019120025405     0.00864779990918     0.00245831421392
   31     0.04132170672370     0.85612106408411     0.76279781544905     0.01283592111866     0.01410249725127
   32     0.01115329195082     0.04360584526062     0.05676228284437     0.04865066732847     0.04822969351202
   33     0.01289370348629     0.01448703736672     0.01292469503976     0.89254136496510     0.90345680087717
   34     0.00650041169553     0.01041299547037     0.01735816377455     0.01213857332377     0.01037615655571
   35     0.01658820464246     0.00124564176361     0.00701677760333     0.00845425316865     0.00097160621370
   36     0.00000592886369     0.00000234333640     0.00002036694988     0.00000044773488     0.00000053162981
   37     0.00000001642426     0.00000000423529     0.00000008256436     0.00000000236584     0.00000000221200
   38     0.00000014998011     0.00000007625905     0.00000049597622     0.00000002943408     0.00000001500342
   39     0.00000024010945     0.00000001148208     0.00000010540420     0.00000008524086     0.00000000842545
   40     0.00000007320921     0.00000003982416     0.00000013256659     0.00000003258516     0.00000001491767
   41     0.00000603330503     0.00000310461988     0.00000596406099     0.00000178898291     0.00000340506986
   42     0.00000000432283     0.00000000061177     0.00000000214719     0.00000000046894     0.00000000022485
   43     0.00000000224737     0.00000000023647     0.00000001210448     0.00000000179930     0.00000000030014
   44     0.00000000210674     0.00000000022006     0.00000000236926     0.00000000219536     0.00000000039658
   45     0.00000000835364     0.00000000046729     0.00000004800124     0.00000000164389     0.00000000047673
   46     0.00000015660418     0.00000000975707     0.00000022350897     0.00000000217729     0.00000000294500
   47     0.00000005148931     0.00000001002191     0.00000012452203     0.00000000753090     0.00000000050367
   48     0.00000115733509     0.00000012580956     0.00000843833227     0.00000004680701     0.00000007647251
   49     0.00000018359590     0.00000594648012     0.00010221819497     0.00000019510646     0.00000063528852
   50     0.00010981499379     0.00004718176543     0.00130432013108     0.00002017740283     0.00001001603640
   51     0.00004996406842     0.00000542496557     0.00000270235259     0.00000054523654     0.00000019063496
   52     0.00001187062593     0.00000123149709     0.00000282257729     0.00000044194912     0.00000013527759
   53     0.00054763792028     0.00003987771112     0.00011094718108     0.00002875762052     0.00000438340729
   54     0.00009711387143     0.00020397392169     0.00003408374381     0.00002878717508     0.00000767210145
   55     0.00820420391398     0.00183323204903     0.00469353060627     0.00011957456775     0.00003689785148
   56     0.00000000000000     0.00347725731122     0.02037054258026     0.00172545553031     0.00026753797685
   57     0.00347725731122     0.00000000000000     0.00640424071483     0.00077791891057     0.00142529246890
   58     0.02037054258026     0.00640424071483     0.00000000000000     0.00013028632926     0.00073366611845
   59     0.00172545553031     0.00077791891057     0.00013028632926     0.00000000000000     0.00748655733353
   60     0.00026753797685     0.00142529246890     0.00073366611845     0.00748655733353     0.00000000000000
   61     0.00009749060211     0.00049275478012     0.00016476581005     0.00744642728711     0.00930071184487
   62     0.00013172463916     0.00047085752905     0.00096083818321     0.00094126568906     0.00060950179717
   63     0.00010097769169     0.00034180179170     0.00127328063372     0.00006718522975     0.00012653596528
   64     0.00039053779817     0.00001766105395     0.00005926853195     0.00195732810737     0.00009347941215
   65     0.00018958899077     0.00034798615189     0.00001759762454     0.00013271141764     0.00019290193893
   66     0.00000000296444     0.00000000197842     0.00000000348602     0.00000000039228     0.00000000022159
   67     0.00000000792205     0.00000000140237     0.00000001603781     0.00000000116199     0.00000000055685
   68     0.00000000071763     0.00000000030143     0.00000000300796     0.00000000024889     0.00000000032561

                61                  62                  63                  64                  65

    1     0.00000418689135     0.00026563958777     0.00017294409541     0.00001256766590     0.00000301285347
    2     0.00000070836304     0.00001757544986     0.00005675313892     0.00000372826277     0.00000161404469
    3     0.00000070705527     0.00000478963812     0.00001459718368     0.00000204363393     0.00000271730104
    4     0.00000091831707     0.00002302092664     0.00004436667448     0.00002543027805     0.00000282939075
    5     0.00000573233808     0.00010253677678     0.00052956021658     0.00019558393284     0.00002461983597
    6     0.00002974355638     0.00263544500960     0.00227228810339     0.00026213736062     0.00001933582592
    7     0.00000039471426     0.00000278409572     0.00000311716094     0.00000198713449     0.00000016086329
    8     0.00000015997396     0.00000084050888     0.00000102089365     0.00000077480600     0.00000027884729
    9     0.00000010331262     0.00000009803790     0.00000021999448     0.00000015459146     0.00000006562629
   10     0.00000002225779     0.00000006519380     0.00000010325877     0.00000004750699     0.00000013327620
   11     0.00000002205701     0.00000014591721     0.00000013189366     0.00000011253738     0.00000002290998
   12     0.00000003877966     0.00000053971360     0.00000079980551     0.00000029879100     0.00000020306274
   13     0.00000000659726     0.00000001661666     0.00000002459104     0.00000002363954     0.00000001664226
   14     0.00000003362924     0.00000002291278     0.00000007717133     0.00000006576681     0.00000002679921
   15     0.00000000146494     0.00000001035352     0.00000006779468     0.00000031993102     0.00000003796379
   16     0.00000000297721     0.00000001262106     0.00000012482013     0.00000016006023     0.00000005660078
   17     0.00000000991799     0.00000006855509     0.00000045372734     0.00000078228765     0.00000029859767
   18     0.00000004402269     0.00000011204383     0.00000117146491     0.00000149399848     0.00000089416804
   19     0.00000004013415     0.00000009845050     0.00000061105961     0.00000075179248     0.00000018538395
   20     0.00000012147229     0.00000026265716     0.00000503319488     0.00000400771133     0.00000383557719
   21     0.00000045619116     0.00000331865057     0.00002320664405     0.00002108240853     0.00001753053173
   22     0.00000269945109     0.00001356403830     0.00014248845215     0.00009422479329     0.00004936173211
   23     0.00001173096271     0.00005591396637     0.00125836815556     0.00018760720370     0.00013392752781
   24     0.00007202413388     0.00037331123338     0.01021342480365     0.00049834963433     0.00462180628344
   25     0.00002818023976     0.00016786445123     0.00190795241962     0.00135715512965     0.00432300536266
   26     0.00000490220968     0.00007463185895     0.00015504250978     0.00042968945746     0.00025589925470
   27     0.00000357973116     0.00001891919805     0.00011220305817     0.00011120868103     0.00005926083135
   28     0.00004303072767     0.00068534628997     0.00205851358060     0.01193090765452     0.01925894025173
   29     0.00011912918462     0.00950619164003     0.00748452537399     0.06684056530598     0.04462487270311
   30     0.00098982095137     0.00110564359952     0.00433814578042     0.01735153524648     0.01229900465279
   31     0.01033924094460     0.01258338292269     0.01305246957857     0.00608006540832     0.00135121462880
   32     0.04818216901105     0.04231799336498     0.04667511374363     0.01136379203466     0.01047909530891
   33     0.90369419332514     0.01920028063793     0.00729274360768     0.01385126466049     0.00090605114764
   34     0.01541208464496     0.82981063572669     0.86539607976479     0.05160157757299     0.04613466954419
   35     0.00238588198729     0.04712818103669     0.03636633819762     0.78556776097793     0.82353561736255
   36     0.00000027985720     0.00000103757511     0.00001190332844     0.00000926086238     0.00000398450541
   37     0.00000000072833     0.00000000345632     0.00000001929331     0.00000005490798     0.00000000934000
   38     0.00000069100067     0.00000812986562     0.00000465995951     0.00000078548195     0.00000004594508
   39     0.00000015350190     0.00000485390217     0.00000474914871     0.00000026318028     0.00000027184166
   40     0.00000004129096     0.00000069927515     0.00000629537196     0.00000040598545     0.00000007038758
   41     0.00000652789833     0.00043141963500     0.00046732321606     0.00016552231961     0.00001642399693
   42     0.00000000453727     0.00000005770829     0.00000007569554     0.00000001571879     0.00000000377577
   43     0.00000000069085     0.00000000587795     0.00000003366244     0.00000000629728     0.00000000059269
   44     0.00000000056900     0.00000000439366     0.00000000293663     0.00000000044309     0.00000000273055
   45     0.00000000060428     0.00000000102023     0.00000001648751     0.00000000904424     0.00000000294584
   46     0.00000000067120     0.00000000749973     0.00000005406015     0.00000010305755     0.00000007897449
   47     0.00000000465546     0.00000004518079     0.00000016495933     0.00000000399116     0.00000001508697
   48     0.00000003433268     0.00000004504308     0.00000174127779     0.00000075822315     0.00000125567227
   49     0.00000017560873     0.00000573475706     0.00008816047323     0.00000058024220     0.00000574876024
   50     0.00006209655857     0.00047505591919     0.00495482253435     0.00029465524670     0.00074274926350
   51     0.00000038186922     0.00000519571193     0.00000803469126     0.00003989020126     0.00004479750836
   52     0.00000017036644     0.00000093939924     0.00001156557891     0.00001559803650     0.00000400332855
   53     0.00000688580457     0.00029590498037     0.00002545421377     0.00005985153282     0.00035487595488
   54     0.00000478020378     0.00005650693946     0.00002751103395     0.00068003053714     0.00157880038422
   55     0.00021085471164     0.00056737995622     0.00007034632164     0.00044565284183     0.00105242235013
   56     0.00009749060211     0.00013172463916     0.00010097769169     0.00039053779817     0.00018958899077
   57     0.00049275478012     0.00047085752905     0.00034180179170     0.00001766105395     0.00034798615189
   58     0.00016476581005     0.00096083818321     0.00127328063372     0.00005926853195     0.00001759762454
   59     0.00744642728711     0.00094126568906     0.00006718522975     0.00195732810737     0.00013271141764
   60     0.00930071184487     0.00060950179717     0.00012653596528     0.00009347941215     0.00019290193893
   61     0.00000000000000     0.00188513261623     0.00023788004518     0.00026970162746     0.00003268141628
   62     0.00188513261623     0.00000000000000     0.00936841932289     0.00617079158863     0.00172734193630
   63     0.00023788004518     0.00936841932289     0.00000000000000     0.00700050149414     0.00264262201444
   64     0.00026970162746     0.00617079158863     0.00700050149414     0.00000000000000     0.00651236420833
   65     0.00003268141628     0.00172734193630     0.00264262201444     0.00651236420833     0.00000000000000
   66     0.00000000040231     0.00000000038518     0.00000000154538     0.00000001084943     0.00000000198462
   67     0.00000000027689     0.00000000206319     0.00000000295354     0.00000001442001     0.00000000312264
   68     0.00000000013289     0.00000000055461     0.00000000292288     0.00000000358833     0.00000000188263

                66                  67                  68

    1     0.00000072013236     0.00000079096762     0.00000034083762
    2     0.00000144398098     0.00000145450574     0.00000078754390
    3     0.00001001422993     0.00000628493300     0.00000412075141
    4     0.00000854282292     0.00000983576705     0.00000877492110
    5     0.00000064550497     0.00000046104760     0.00000043340011
    6     0.00000027491460     0.00000041710683     0.00000021020904
    7     0.00003166013166     0.00002883912425     0.00001437964127
    8     0.00005670081022     0.00009997267203     0.00000550221328
    9     0.00001851170629     0.00001674951276     0.00000377187421
   10     0.00009839919044     0.00016514455119     0.00003353861514
   11     0.00056699950942     0.00084950888990     0.00019396679195
   12     0.00017791354380     0.00022802944305     0.00006200545807
   13     0.00658233245006     0.00852334388098     0.00161471441537
   14     0.01380616468792     0.01384281141640     0.00683275455783
   15     0.04154891870734     0.04194664599269     0.04511014218097
   16     0.01307364097074     0.01243226275702     0.01948256692292
   17     0.00085510133532     0.00082354364207     0.00142342658720
   18     0.00295240630563     0.00257219441959     0.00034881843884
   19     0.00079583631618     0.00087248388430     0.00073223601366
   20     0.00038490541310     0.00031532455419     0.00006956906343
   21     0.00021863629547     0.00018851812445     0.00002820942842
   22     0.00001068460500     0.00001352220809     0.00000773736455
   23     0.00001535024360     0.00001356489691     0.00000335280143
   24     0.00000144965110     0.00000182081525     0.00000041565244
   25     0.00000820425871     0.00000692669373     0.00000038665400
   26     0.00000168878615     0.00000140094961     0.00000039535635
   27     0.00001363443008     0.00001347532774     0.00000178026448
   28     0.00000044590131     0.00000041615467     0.00000007883703
   29     0.00000016620069     0.00000012798469     0.00000002083993
   30     0.00000006831176     0.00000003490431     0.00000000854971
   31     0.00000003411377     0.00000004246314     0.00000000668941
   32     0.00000000501821     0.00000001025368     0.00000000427627
   33     0.00000000219575     0.00000000749184     0.00000000161616
   34     0.00000001534843     0.00000003514916     0.00000001244378
   35     0.00000003144368     0.00000003245185     0.00000000856270
   36     0.00012159165829     0.00011728599090     0.00001437454271
   37     0.89925180646285     0.89794261684397     0.90350554760078
   38     0.00000007665754     0.00000008430947     0.00000001783107
   39     0.00000013654406     0.00000003253366     0.00000007276613
   40     0.00000126222666     0.00000625081218     0.00000343325123
   41     0.00000005079835     0.00000001197490     0.00000005035476
   42     0.00000021658239     0.00000092461864     0.00000008669222
   43     0.00000056765868     0.00000079397329     0.00000021656016
   44     0.00115336565423     0.00124117270625     0.00042030077881
   45     0.00009168593339     0.00011211238415     0.00218115907364
   46     0.00012977985411     0.00014411236577     0.00003020083702
   47     0.00007034019775     0.00007241230003     0.00025673161541
   48     0.00000603486177     0.00001065262465     0.00001778339121
   49     0.00000309758471     0.00000111307926     0.00000022129192
   50     0.00000003189758     0.00000003417549     0.00000003709159
   51     0.00000021463972     0.00000005799073     0.00000004200052
   52     0.00000060582579     0.00000017258233     0.00000018835603
   53     0.00000009944044     0.00000012972072     0.00000000924177
   54     0.00000037675063     0.00000026081527     0.00000000393868
   55     0.00000000154722     0.00000000240774     0.00000000084604
   56     0.00000000296444     0.00000000792205     0.00000000071763
   57     0.00000000197842     0.00000000140237     0.00000000030143
   58     0.00000000348602     0.00000001603781     0.00000000300796
   59     0.00000000039228     0.00000000116199     0.00000000024889
   60     0.00000000022159     0.00000000055685     0.00000000032561
   61     0.00000000040231     0.00000000027689     0.00000000013289
   62     0.00000000038518     0.00000000206319     0.00000000055461
   63     0.00000000154538     0.00000000295354     0.00000000292288
   64     0.00000001084943     0.00000001442001     0.00000000358833
   65     0.00000000198462     0.00000000312264     0.00000000188263
   66     0.00000000000000     0.00694632440870     0.00904198697934
   67     0.00694632440870     0.00000000000000     0.00924139631550
   68     0.00904198697934     0.00924139631550     0.00000000000000



  Atomic Valences: 

 #  #
 Irrep: 1
      1:  4.4062661
      2:  4.4393382
      3:  4.6219460
      4:  4.5974892
      5:  3.9270298
      6:  4.5730324
      7:  4.7573638
      8:  4.3772042
      9:  4.5345154
     10:  3.8658763
     11:  5.0204150
     12:  3.9610245
     13:  3.9621627
     14:  4.6855535
     15:  4.6500667
     16:  4.4559602
     17:  4.4153793
     18:  4.6916553
     19:  4.4451544
     20:  4.0079488
     21:  5.0118295
     22:  4.6259089
     23:  4.4851660
     24:  4.5217416
     25:  4.7196212
     26:  4.4543555
     27:  4.4403969
     28:  4.5470260
     29:  4.2839183
     30:  4.5841020
     31:  4.5989883
     32:  4.2218326
     33:  4.3008199
     34:  4.6431167
     35:  4.5756853
     36:  2.7514291
     37:  4.1577594
     38:  0.9887009
     39:  0.9886408
     40:  0.9911872
     41:  0.9919606
     42:  0.9879582
     43:  0.9887705
     44:  0.9340039
     45:  0.9903739
     46:  0.9825419
     47:  0.9933369
     48:  0.9473916
     49:  0.9930033
     50:  0.9969025
     51:  0.9893230
     52:  0.9825150
     53:  0.9967527
     54:  0.9892079
     55:  0.9842761
     56:  0.9871024
     57:  0.9946556
     58:  0.9848404
     59:  1.0060278
     60:  1.0002920
     61:  1.0015528
     62:  0.9902182
     63:  1.0264222
     64:  0.9919844
     65:  0.9837120
     66:  0.9980612
     67:  0.9988140
     68:  1.0006984


    Psi4 stopped on: Friday, 24 April 2020 12:21PM
    Psi4 wall time for execution: 0:21:57.28

*** Psi4 exiting successfully. Buy a developer a beer!
