
    -----------------------------------------------------------------------
          Psi4: An Open-Source Ab Initio Electronic Structure Package
                               Psi4 1.3.2 release

                         Git: Rev {HEAD} ecbda83 


    R. M. Parrish, L. A. Burns, D. G. A. Smith, A. C. Simmonett,
    A. E. DePrince III, E. G. Hohenstein, U. Bozkaya, A. Yu. Sokolov,
    R. Di Remigio, R. M. Richard, J. F. Gonthier, A. M. James,
    H. R. McAlexander, A. Kumar, M. Saitow, X. Wang, B. P. Pritchard,
    P. Verma, H. F. Schaefer III, K. Patkowski, R. A. King, E. F. Valeev,
    F. A. Evangelista, J. M. Turney, T. D. Crawford, and C. D. Sherrill,
    J. Chem. Theory Comput. 13(7) pp 3185--3197 (2017).
    (doi: 10.1021/acs.jctc.7b00174)


                         Additional Contributions by
    P. Kraus, H. Kruse, M. H. Lechner, M. C. Schieber, R. A. Shaw,
    A. Alenaizan, R. Galvelis, Z. L. Glick, S. Lehtola, and J. P. Misiewicz

    -----------------------------------------------------------------------


    Psi4 started on: Tuesday, 10 March 2020 10:58PM

    Process ID: 45037
    Host:       node45.bme.utexas.edu
    PSIDATADIR: /home/bdw2292/miniconda3/envs/p4env/share/psi4
    Memory:     500.0 MiB
    Threads:    1
    
  ==> Input File <==

--------------------------------------------------------------------------
molecule { 
0 1
 C   -1.913342    5.076227   -0.183976
 C   -3.209589    4.564240   -0.335294
 C   -3.437776    3.178762   -0.216009
 C   -2.296672    2.393242    0.082134
 N   -1.051775    2.861560    0.235927
 C   -0.872248    4.183877    0.096669
 C   -4.795405    2.538013   -0.373374
 C   -6.005375    3.220969   -0.574584
 C   -7.147170    2.416801   -0.665669
 N   -7.141732    1.088817   -0.589567
 C   -5.932359    0.514759   -0.418290
 N   -4.786045    1.192483   -0.310256
 N   -5.931308   -0.871579   -0.358861
 C   -4.904548   -1.846649   -0.081826
 C   -5.275874   -3.168705    0.309371
 C   -4.234899   -4.070915    0.587544
 C   -2.875824   -3.746380    0.502583
 C   -2.527568   -2.453761    0.097410
 C   -3.544933   -1.530292   -0.191198
 N   -1.195946   -1.944473   -0.041336
 C    0.020372   -2.475145    0.319212
 C    1.248322   -1.586637    0.232628
 C    1.213639   -0.187029    0.351788
 C    2.389707    0.561195    0.267593
 C    3.650637   -0.048013    0.102175
 C    3.666744   -1.451669   -0.016536
 C    2.495528   -2.209703    0.061182
 C    4.894338    0.846960    0.014197
 N    6.230339    0.304958   -0.310771
 C    7.236210    1.328829   -0.678601
 C    8.624156    0.775767   -1.084064
 N    9.237895   -0.113693   -0.073903
 C    9.973594    0.543174    1.012996
 C    8.239192   -1.127777    0.327321
 C    6.847240   -0.572575    0.720331
 O    0.134075   -3.634520    0.688088
 C   -6.717541   -3.623748    0.459069
 H   -1.713493    6.139339   -0.280008
 H   -4.014589    5.259584   -0.560093
 H   -2.401881    1.324279    0.229911
 H    0.148493    4.541060    0.223628
 H   -6.091899    4.298957   -0.634274
 H   -8.127804    2.870739   -0.806047
 H   -6.879540   -1.212063   -0.415103
 H   -4.480036   -5.084424    0.902241
 H   -2.104472   -4.468899    0.739183
 H   -3.285958   -0.532658   -0.506739
 H   -1.149933   -1.010145   -0.422130
 H    0.266097    0.323092    0.509916
 H    2.315669    1.645342    0.356990
 H    4.597279   -1.986855   -0.191799
 H    2.527891   -3.293594   -0.020471
 H    4.637082    1.589550   -0.757050
 H    5.013299    1.362316    0.980322
 H    6.717288    2.111462   -1.908509
 H    7.425921    2.287463    0.477384
 H    9.292340    1.516779   -1.357399
 H    8.344909   -0.120936   -2.365608
 H    9.300722    1.141616    1.637818
 H   10.748865    1.199686    0.601182
 H   10.468262   -0.206494    1.641177
 H    8.755979   -1.880300    1.414669
 H    8.020778   -2.062225   -0.870206
 H    7.080033    0.296161    2.026454
 H    6.245977   -1.284904    0.965807
 H   -7.255056   -3.576014   -0.498531
 H   -7.264591   -2.996027    1.176811
 H   -6.805889   -4.658720    0.817624
}
memory 20GB
set_num_threads(6)
psi4_io.set_default_path("/scratch/bdw2292")
set freeze_core True
E, wfn = energy('mp2/6-311++G**',return_wfn=True)
oeprop(wfn,"WIBERG_LOWDIN_INDICES")
clean()
--------------------------------------------------------------------------

  Memory set to  18.626 GiB by Python driver.
  Threads set to 6 by Python driver.
    SCF Algorithm Type (re)set to DF.

*** tstart() called on node45.bme.utexas.edu
*** at Tue Mar 10 22:58:51 2020

   => Loading Basis Set <=

    Name: 6-311++G**
    Role: ORBITAL
    Keyword: BASIS
    atoms 1-4, 6-9, 11, 14-19, 21-28, 30-31, 33-35, 37 entry C          line   119 file /home/bdw2292/miniconda3/envs/p4env/share/psi4/basis/6-311ppgss.gbs 
    atoms 5, 10, 12-13, 20, 29, 32                     entry N          line   140 file /home/bdw2292/miniconda3/envs/p4env/share/psi4/basis/6-311ppgss.gbs 
    atoms 36                                           entry O          line   161 file /home/bdw2292/miniconda3/envs/p4env/share/psi4/basis/6-311ppgss.gbs 
    atoms 38-68                                        entry H          line    42 file /home/bdw2292/miniconda3/envs/p4env/share/psi4/basis/6-311ppgss.gbs 


         ---------------------------------------------------------
                                   SCF
               by Justin Turney, Rob Parrish, Andy Simmonett
                          and Daniel G. A. Smith
                              RHF Reference
                        6 Threads,  19073 MiB Core
         ---------------------------------------------------------

  ==> Geometry <==

    Molecular point group: c1
    Full point group: C1

    Geometry (in Angstrom), charge = 0, multiplicity = 1:

       Center              X                  Y                   Z               Mass       
    ------------   -----------------  -----------------  -----------------  -----------------
         C           -1.762545998310     5.065657413761    -0.189140760904    12.000000000000
         C           -3.058792998310     4.553670413761    -0.340458760904    12.000000000000
         C           -3.286979998310     3.168192413761    -0.221173760904    12.000000000000
         C           -2.145875998310     2.382672413761     0.076969239096    12.000000000000
         N           -0.900978998310     2.850990413761     0.230762239096    14.003074004430
         C           -0.721451998310     4.173307413761     0.091504239096    12.000000000000
         C           -4.644608998310     2.527443413761    -0.378538760904    12.000000000000
         C           -5.854578998310     3.210399413761    -0.579748760904    12.000000000000
         C           -6.996373998310     2.406231413761    -0.670833760904    12.000000000000
         N           -6.990935998310     1.078247413761    -0.594731760904    14.003074004430
         C           -5.781562998310     0.504189413761    -0.423454760904    12.000000000000
         N           -4.635248998310     1.181913413761    -0.315420760904    14.003074004430
         N           -5.780511998310    -0.882148586239    -0.364025760904    14.003074004430
         C           -4.753751998310    -1.857218586239    -0.086990760904    12.000000000000
         C           -5.125077998310    -3.179274586239     0.304206239096    12.000000000000
         C           -4.084102998310    -4.081484586239     0.582379239096    12.000000000000
         C           -2.725027998310    -3.756949586239     0.497418239096    12.000000000000
         C           -2.376771998310    -2.464330586239     0.092245239096    12.000000000000
         C           -3.394136998310    -1.540861586239    -0.196362760904    12.000000000000
         N           -1.045149998310    -1.955042586239    -0.046500760904    14.003074004430
         C            0.171168001690    -2.485714586239     0.314047239096    12.000000000000
         C            1.399118001690    -1.597206586239     0.227463239096    12.000000000000
         C            1.364435001690    -0.197598586239     0.346623239096    12.000000000000
         C            2.540503001690     0.550625413761     0.262428239096    12.000000000000
         C            3.801433001690    -0.058582586239     0.097010239096    12.000000000000
         C            3.817540001690    -1.462238586239    -0.021700760904    12.000000000000
         C            2.646324001690    -2.220272586239     0.056017239096    12.000000000000
         C            5.045134001690     0.836390413761     0.009032239096    12.000000000000
         N            6.381135001690     0.294388413761    -0.315935760904    14.003074004430
         C            7.387006001690     1.318259413761    -0.683765760904    12.000000000000
         C            8.774952001690     0.765197413761    -1.089228760904    12.000000000000
         N            9.388691001690    -0.124262586239    -0.079067760904    14.003074004430
         C           10.124390001690     0.532604413761     1.007831239096    12.000000000000
         C            8.389988001690    -1.138346586239     0.322156239096    12.000000000000
         C            6.998036001690    -0.583144586239     0.715166239096    12.000000000000
         O            0.284871001690    -3.645089586239     0.682923239096    15.994914619570
         C           -6.566744998310    -3.634317586239     0.453904239096    12.000000000000
         H           -1.562696998310     6.128769413761    -0.285172760904     1.007825032230
         H           -3.863792998310     5.249014413761    -0.565257760904     1.007825032230
         H           -2.251084998310     1.313709413761     0.224746239096     1.007825032230
         H            0.299289001690     4.530490413761     0.218463239096     1.007825032230
         H           -5.941102998310     4.288387413761    -0.639438760904     1.007825032230
         H           -7.977007998310     2.860169413761    -0.811211760904     1.007825032230
         H           -6.728743998310    -1.222632586239    -0.420267760904     1.007825032230
         H           -4.329239998310    -5.094993586239     0.897076239096     1.007825032230
         H           -1.953675998310    -4.479468586239     0.734018239096     1.007825032230
         H           -3.135161998310    -0.543227586239    -0.511903760904     1.007825032230
         H           -0.999136998310    -1.020714586239    -0.427294760904     1.007825032230
         H            0.416893001690     0.312522413761     0.504751239096     1.007825032230
         H            2.466465001690     1.634772413761     0.351825239096     1.007825032230
         H            4.748075001690    -1.997424586239    -0.196963760904     1.007825032230
         H            2.678687001690    -3.304163586239    -0.025635760904     1.007825032230
         H            4.787878001690     1.578980413761    -0.762214760904     1.007825032230
         H            5.164095001690     1.351746413761     0.975157239096     1.007825032230
         H            6.868084001690     2.100892413761    -1.913673760904     1.007825032230
         H            7.576717001690     2.276893413761     0.472219239096     1.007825032230
         H            9.443136001690     1.506209413761    -1.362563760904     1.007825032230
         H            8.495705001690    -0.131505586239    -2.370772760904     1.007825032230
         H            9.451518001690     1.131046413761     1.632653239096     1.007825032230
         H           10.899661001690     1.189116413761     0.596017239096     1.007825032230
         H           10.619058001690    -0.217063586239     1.636012239096     1.007825032230
         H            8.906775001690    -1.890869586239     1.409504239096     1.007825032230
         H            8.171574001690    -2.072794586239    -0.875370760904     1.007825032230
         H            7.230829001690     0.285591413761     2.021289239096     1.007825032230
         H            6.396773001690    -1.295473586239     0.960642239096     1.007825032230
         H           -7.104259998310    -3.586583586239    -0.503695760904     1.007825032230
         H           -7.113794998310    -3.006596586239     1.171646239096     1.007825032230
         H           -6.655092998310    -4.669289586239     0.812459239096     1.007825032230

  Running in c1 symmetry.

  Rotational constants: A =      0.00549  B =      0.00126  C =      0.00104 [cm^-1]
  Rotational constants: A =    164.59962  B =     37.84970  C =     31.12360 [MHz]
  Nuclear repulsion = 3578.906103217867440

  Charge       = 0
  Multiplicity = 1
  Electrons    = 262
  Nalpha       = 131
  Nbeta        = 131

  ==> Algorithm <==

  SCF Algorithm Type is DF.
  DIIS enabled.
  MOM disabled.
  Fractional occupation disabled.
  Guess Type is SAD.
  Energy threshold   = 1.00e-08
  Density threshold  = 1.00e-08
  Integral threshold = 0.00e+00

  ==> Primary Basis <==

  Basis Set: 6-311++G**
    Blend: 6-311++G**
    Number of shells: 525
    Number of basis function: 1031
    Number of Cartesian functions: 1068
    Spherical Harmonics?: true
    Max angular momentum: 2

   => Loading Basis Set <=

    Name: (6-311++G** AUX)
    Role: JKFIT
    Keyword: DF_BASIS_SCF
    atoms 1-4, 6-9, 11, 14-19, 21-28, 30-31, 33-35, 37 entry C          line   162 file /home/bdw2292/miniconda3/envs/p4env/share/psi4/basis/aug-cc-pvtz-jkfit.gbs 
    atoms 5, 10, 12-13, 20, 29, 32                     entry N          line   224 file /home/bdw2292/miniconda3/envs/p4env/share/psi4/basis/aug-cc-pvtz-jkfit.gbs 
    atoms 36                                           entry O          line   286 file /home/bdw2292/miniconda3/envs/p4env/share/psi4/basis/aug-cc-pvtz-jkfit.gbs 
    atoms 38-68                                        entry H          line    70 file /home/bdw2292/miniconda3/envs/p4env/share/psi4/basis/aug-cc-pvtz-jkfit.gbs 

  ==> Pre-Iterations <==

   -------------------------------------------------------
    Irrep   Nso     Nmo     Nalpha   Nbeta   Ndocc  Nsocc
   -------------------------------------------------------
     A       1031    1031       0       0       0       0
   -------------------------------------------------------
    Total    1031    1031     131     131     131       0
   -------------------------------------------------------

  ==> Integral Setup <==

  ==> DiskDFJK: Density-Fitted J/K Matrices <==

    J tasked:                  Yes
    K tasked:                  Yes
    wK tasked:                  No
    OpenMP threads:              6
    Integrals threads:           6
    Memory [MiB]:            14305
    Algorithm:                Core
    Integral Cache:           NONE
    Schwarz Cutoff:          1E-12
    Fitting Condition:       1E-10

   => Auxiliary Basis Set <=

  Basis Set: (6-311++G** AUX)
    Blend: AUG-CC-PVTZ-JKFIT
    Number of shells: 1544
    Number of basis function: 5274
    Number of Cartesian functions: 6552
    Spherical Harmonics?: true
    Max angular momentum: 4

  Minimum eigenvalue in the overlap matrix is 7.6045566428E-08.
  Using Canonical Orthogonalization with cutoff of 1.0000000000E-07.
  Overall, 1 of 1031 possible MOs eliminated.

  SCF Guess: Superposition of Atomic Densities via on-the-fly atomic UHF.

  ==> Iterations <==

                           Total Energy        Delta E     RMS |[F,P]|

   @DF-RHF iter SAD: -1570.93000238415902   -1.57093e+03   0.00000e+00 
   @DF-RHF iter   1: -1571.21369604660254   -2.83694e-01   1.21603e-03 DIIS
   @DF-RHF iter   2: -1571.99231550773720   -7.78619e-01   6.47580e-04 DIIS
   @DF-RHF iter   3: -1572.19153420168573   -1.99219e-01   1.64493e-04 DIIS
   @DF-RHF iter   4: -1572.20928363288886   -1.77494e-02   6.57572e-05 DIIS
   @DF-RHF iter   5: -1572.21190180217855   -2.61817e-03   1.31222e-05 DIIS
   @DF-RHF iter   6: -1572.21205771713517   -1.55915e-04   6.24504e-06 DIIS
   @DF-RHF iter   7: -1572.21209497270365   -3.72556e-05   2.05870e-06 DIIS
   @DF-RHF iter   8: -1572.21210089426313   -5.92156e-06   8.23230e-07 DIIS
   @DF-RHF iter   9: -1572.21210186463190   -9.70369e-07   3.13405e-07 DIIS
   @DF-RHF iter  10: -1572.21210205077432   -1.86142e-07   1.37729e-07 DIIS
   @DF-RHF iter  11: -1572.21210208782873   -3.70544e-08   6.81894e-08 DIIS
   @DF-RHF iter  12: -1572.21210209831406   -1.04853e-08   2.79251e-08 DIIS
   @DF-RHF iter  13: -1572.21210210031586   -2.00180e-09   1.21622e-08 DIIS
   @DF-RHF iter  14: -1572.21210210056392   -2.48065e-10   5.79896e-09 DIIS
  Energy and wave function converged.


  ==> Post-Iterations <==

    Orbital Energies [Eh]
    ---------------------

    Doubly Occupied:                                                      

       1A    -20.517924     2A    -15.603506     3A    -15.600348  
       4A    -15.594576     5A    -15.587732     6A    -15.574385  
       7A    -15.572977     8A    -15.569198     9A    -11.375512  
      10A    -11.362161    11A    -11.352213    12A    -11.340951  
      13A    -11.334678    14A    -11.314306    15A    -11.312437  
      16A    -11.305865    17A    -11.301761    18A    -11.301006  
      19A    -11.300650    20A    -11.292123    21A    -11.289818  
      22A    -11.280826    23A    -11.280465    24A    -11.267070  
      25A    -11.266021    26A    -11.258546    27A    -11.253604  
      28A    -11.252667    29A    -11.252441    30A    -11.247197  
      31A    -11.246479    32A    -11.244769    33A    -11.242312  
      34A    -11.238977    35A    -11.234956    36A    -11.230305  
      37A    -11.223853    38A     -1.384198    39A     -1.344412  
      40A     -1.279114    41A     -1.259192    42A     -1.249591  
      43A     -1.240434    44A     -1.216409    45A     -1.209791  
      46A     -1.160872    47A     -1.138950    48A     -1.116044  
      49A     -1.075481    50A     -1.060511    51A     -1.048907  
      52A     -1.038250    53A     -1.020863    54A     -1.010143  
      55A     -1.007206    56A     -0.986762    57A     -0.947563  
      58A     -0.930699    59A     -0.926667    60A     -0.900891  
      61A     -0.879954    62A     -0.872847    63A     -0.858388  
      64A     -0.851506    65A     -0.843500    66A     -0.827894  
      67A     -0.818751    68A     -0.805450    69A     -0.777007  
      70A     -0.753935    71A     -0.739138    72A     -0.730409  
      73A     -0.721828    74A     -0.704562    75A     -0.697916  
      76A     -0.683134    77A     -0.679963    78A     -0.669086  
      79A     -0.659099    80A     -0.653786    81A     -0.651679  
      82A     -0.651096    83A     -0.642183    84A     -0.632113  
      85A     -0.630489    86A     -0.622690    87A     -0.619260  
      88A     -0.614144    89A     -0.609526    90A     -0.605149  
      91A     -0.601834    92A     -0.600601    93A     -0.595659  
      94A     -0.590231    95A     -0.585948    96A     -0.581825  
      97A     -0.578806    98A     -0.574572    99A     -0.561845  
     100A     -0.559883   101A     -0.547886   102A     -0.546436  
     103A     -0.544648   104A     -0.536085   105A     -0.522672  
     106A     -0.513661   107A     -0.508741   108A     -0.506595  
     109A     -0.504184   110A     -0.499834   111A     -0.495157  
     112A     -0.490646   113A     -0.484443   114A     -0.477839  
     115A     -0.465266   116A     -0.452140   117A     -0.443424  
     118A     -0.432689   119A     -0.426046   120A     -0.424326  
     121A     -0.414780   122A     -0.400587   123A     -0.385271  
     124A     -0.373629   125A     -0.367661   126A     -0.346366  
     127A     -0.343111   128A     -0.342976   129A     -0.333729  
     130A     -0.313662   131A     -0.289572  

    Virtual:                                                              

     132A      0.026362   133A      0.034628   134A      0.040318  
     135A      0.041471   136A      0.043656   137A      0.046980  
     138A      0.049351   139A      0.051521   140A      0.056409  
     141A      0.062379   142A      0.063691   143A      0.065871  
     144A      0.066535   145A      0.069668   146A      0.072062  
     147A      0.074197   148A      0.074673   149A      0.079414  
     150A      0.080806   151A      0.084767   152A      0.086237  
     153A      0.087464   154A      0.091572   155A      0.096350  
     156A      0.098809   157A      0.099850   158A      0.099960  
     159A      0.103401   160A      0.106206   161A      0.108919  
     162A      0.110320   163A      0.111554   164A      0.113306  
     165A      0.115106   166A      0.118616   167A      0.120230  
     168A      0.124437   169A      0.125135   170A      0.128749  
     171A      0.131708   172A      0.133612   173A      0.137601  
     174A      0.140063   175A      0.143275   176A      0.145595  
     177A      0.145984   178A      0.148634   179A      0.150675  
     180A      0.152117   181A      0.154597   182A      0.155395  
     183A      0.158041   184A      0.160527   185A      0.163908  
     186A      0.164792   187A      0.166823   188A      0.168246  
     189A      0.170584   190A      0.171732   191A      0.173361  
     192A      0.176625   193A      0.177814   194A      0.179806  
     195A      0.180679   196A      0.182965   197A      0.184093  
     198A      0.186001   199A      0.189230   200A      0.189908  
     201A      0.190964   202A      0.192085   203A      0.195588  
     204A      0.197055   205A      0.199493   206A      0.200403  
     207A      0.202195   208A      0.206152   209A      0.206975  
     210A      0.207661   211A      0.208402   212A      0.210441  
     213A      0.212229   214A      0.215857   215A      0.217218  
     216A      0.217413   217A      0.218650   218A      0.221110  
     219A      0.222695   220A      0.223837   221A      0.225214  
     222A      0.225946   223A      0.228683   224A      0.230072  
     225A      0.232538   226A      0.234305   227A      0.235339  
     228A      0.239123   229A      0.241769   230A      0.243435  
     231A      0.244046   232A      0.246497   233A      0.249490  
     234A      0.251223   235A      0.254005   236A      0.255257  
     237A      0.258654   238A      0.260850   239A      0.261168  
     240A      0.265873   241A      0.268760   242A      0.270869  
     243A      0.273136   244A      0.274611   245A      0.278219  
     246A      0.279194   247A      0.281303   248A      0.282994  
     249A      0.285525   250A      0.288161   251A      0.289791  
     252A      0.293434   253A      0.295358   254A      0.296652  
     255A      0.297663   256A      0.301898   257A      0.305481  
     258A      0.307035   259A      0.309385   260A      0.310347  
     261A      0.314578   262A      0.319358   263A      0.321651  
     264A      0.322349   265A      0.324374   266A      0.327450  
     267A      0.328459   268A      0.329860   269A      0.332349  
     270A      0.335105   271A      0.335788   272A      0.338331  
     273A      0.339791   274A      0.342427   275A      0.347700  
     276A      0.348111   277A      0.350960   278A      0.352352  
     279A      0.354040   280A      0.356692   281A      0.359248  
     282A      0.360720   283A      0.361699   284A      0.363767  
     285A      0.366741   286A      0.368985   287A      0.370268  
     288A      0.371025   289A      0.373401   290A      0.376068  
     291A      0.377210   292A      0.378248   293A      0.379855  
     294A      0.381857   295A      0.383198   296A      0.386327  
     297A      0.387776   298A      0.389119   299A      0.390647  
     300A      0.391960   301A      0.393920   302A      0.395716  
     303A      0.397756   304A      0.399617   305A      0.403623  
     306A      0.405189   307A      0.406518   308A      0.406599  
     309A      0.411001   310A      0.411478   311A      0.413098  
     312A      0.414796   313A      0.417611   314A      0.419082  
     315A      0.420711   316A      0.423783   317A      0.425857  
     318A      0.427518   319A      0.428845   320A      0.431733  
     321A      0.432450   322A      0.434968   323A      0.437608  
     324A      0.438789   325A      0.440314   326A      0.441514  
     327A      0.443338   328A      0.445500   329A      0.447602  
     330A      0.448130   331A      0.449366   332A      0.452123  
     333A      0.458549   334A      0.459092   335A      0.460140  
     336A      0.462574   337A      0.463742   338A      0.467868  
     339A      0.468935   340A      0.473695   341A      0.475462  
     342A      0.478212   343A      0.479764   344A      0.481760  
     345A      0.483461   346A      0.486761   347A      0.489813  
     348A      0.492212   349A      0.493947   350A      0.496613  
     351A      0.502584   352A      0.503459   353A      0.506858  
     354A      0.507433   355A      0.512854   356A      0.515669  
     357A      0.517278   358A      0.519580   359A      0.522595  
     360A      0.529922   361A      0.533859   362A      0.535653  
     363A      0.537154   364A      0.540243   365A      0.548187  
     366A      0.551141   367A      0.558935   368A      0.560418  
     369A      0.563055   370A      0.569386   371A      0.572097  
     372A      0.582467   373A      0.583957   374A      0.591543  
     375A      0.593541   376A      0.600490   377A      0.603541  
     378A      0.605118   379A      0.608044   380A      0.614872  
     381A      0.619434   382A      0.621024   383A      0.632081  
     384A      0.632763   385A      0.637368   386A      0.641952  
     387A      0.665437   388A      0.668935   389A      0.676087  
     390A      0.682798   391A      0.686558   392A      0.688977  
     393A      0.696182   394A      0.699779   395A      0.705392  
     396A      0.710042   397A      0.713154   398A      0.717250  
     399A      0.723258   400A      0.726864   401A      0.730572  
     402A      0.733792   403A      0.736255   404A      0.747540  
     405A      0.750309   406A      0.753203   407A      0.758928  
     408A      0.759720   409A      0.762835   410A      0.765285  
     411A      0.766493   412A      0.769756   413A      0.776377  
     414A      0.781610   415A      0.785490   416A      0.793182  
     417A      0.794233   418A      0.795994   419A      0.797117  
     420A      0.802259   421A      0.806891   422A      0.808114  
     423A      0.812307   424A      0.813170   425A      0.819680  
     426A      0.825965   427A      0.829539   428A      0.832599  
     429A      0.833547   430A      0.838528   431A      0.842962  
     432A      0.844909   433A      0.845954   434A      0.848894  
     435A      0.850004   436A      0.857717   437A      0.863710  
     438A      0.866693   439A      0.868750   440A      0.873144  
     441A      0.875059   442A      0.879090   443A      0.883327  
     444A      0.885113   445A      0.888511   446A      0.890566  
     447A      0.893011   448A      0.896979   449A      0.902779  
     450A      0.903883   451A      0.906976   452A      0.910760  
     453A      0.912148   454A      0.912516   455A      0.918833  
     456A      0.923474   457A      0.926023   458A      0.928696  
     459A      0.931685   460A      0.936462   461A      0.937619  
     462A      0.940142   463A      0.942420   464A      0.947102  
     465A      0.951268   466A      0.952585   467A      0.958693  
     468A      0.964683   469A      0.968244   470A      0.971231  
     471A      0.974205   472A      0.975552   473A      0.979283  
     474A      0.984251   475A      0.987803   476A      0.992936  
     477A      0.993837   478A      0.999873   479A      1.005560  
     480A      1.009540   481A      1.016696   482A      1.022041  
     483A      1.027962   484A      1.033262   485A      1.034713  
     486A      1.037762   487A      1.046342   488A      1.049878  
     489A      1.054973   490A      1.059247   491A      1.062988  
     492A      1.065426   493A      1.067068   494A      1.068660  
     495A      1.074330   496A      1.077876   497A      1.081604  
     498A      1.083299   499A      1.093984   500A      1.096698  
     501A      1.097328   502A      1.104205   503A      1.108215  
     504A      1.113524   505A      1.118986   506A      1.127244  
     507A      1.133394   508A      1.137715   509A      1.139009  
     510A      1.142607   511A      1.144079   512A      1.152898  
     513A      1.154124   514A      1.161827   515A      1.162636  
     516A      1.166748   517A      1.167971   518A      1.172469  
     519A      1.175091   520A      1.181259   521A      1.184099  
     522A      1.186702   523A      1.190349   524A      1.192472  
     525A      1.199698   526A      1.199716   527A      1.206811  
     528A      1.210682   529A      1.211518   530A      1.213616  
     531A      1.218241   532A      1.221293   533A      1.226514  
     534A      1.232411   535A      1.233087   536A      1.238113  
     537A      1.244030   538A      1.250366   539A      1.251357  
     540A      1.256405   541A      1.258749   542A      1.263976  
     543A      1.273318   544A      1.277015   545A      1.278251  
     546A      1.280038   547A      1.285723   548A      1.287401  
     549A      1.294493   550A      1.299365   551A      1.304413  
     552A      1.309276   553A      1.317581   554A      1.323547  
     555A      1.328471   556A      1.332295   557A      1.338345  
     558A      1.342793   559A      1.347008   560A      1.352821  
     561A      1.354090   562A      1.362611   563A      1.371213  
     564A      1.380585   565A      1.386757   566A      1.388764  
     567A      1.402219   568A      1.406658   569A      1.414122  
     570A      1.421123   571A      1.423831   572A      1.425721  
     573A      1.432879   574A      1.441417   575A      1.444927  
     576A      1.453446   577A      1.458022   578A      1.463724  
     579A      1.465641   580A      1.476423   581A      1.480094  
     582A      1.490483   583A      1.501284   584A      1.506262  
     585A      1.518844   586A      1.523882   587A      1.529876  
     588A      1.540295   589A      1.545073   590A      1.553528  
     591A      1.559060   592A      1.574140   593A      1.577883  
     594A      1.601336   595A      1.608263   596A      1.618749  
     597A      1.621248   598A      1.625471   599A      1.633140  
     600A      1.634666   601A      1.650166   602A      1.658393  
     603A      1.668489   604A      1.674949   605A      1.690719  
     606A      1.698803   607A      1.706794   608A      1.712415  
     609A      1.726338   610A      1.727598   611A      1.730819  
     612A      1.744564   613A      1.748085   614A      1.750124  
     615A      1.759227   616A      1.762500   617A      1.774772  
     618A      1.779077   619A      1.780153   620A      1.789585  
     621A      1.791847   622A      1.792917   623A      1.800038  
     624A      1.804887   625A      1.807103   626A      1.809469  
     627A      1.813108   628A      1.816773   629A      1.820172  
     630A      1.822382   631A      1.822960   632A      1.829718  
     633A      1.832619   634A      1.834355   635A      1.840524  
     636A      1.842904   637A      1.845039   638A      1.848715  
     639A      1.852726   640A      1.854772   641A      1.857586  
     642A      1.863845   643A      1.864104   644A      1.866265  
     645A      1.869655   646A      1.874840   647A      1.876840  
     648A      1.880522   649A      1.887390   650A      1.898815  
     651A      1.919738   652A      1.921847   653A      1.925490  
     654A      1.926614   655A      1.932167   656A      1.934828  
     657A      1.944239   658A      1.950086   659A      1.953880  
     660A      1.957284   661A      1.959364   662A      1.961276  
     663A      1.971696   664A      1.973801   665A      1.980047  
     666A      1.985660   667A      1.989885   668A      1.994376  
     669A      1.997637   670A      2.002218   671A      2.004633  
     672A      2.006897   673A      2.007774   674A      2.016769  
     675A      2.026894   676A      2.029780   677A      2.033509  
     678A      2.045033   679A      2.051174   680A      2.054758  
     681A      2.058100   682A      2.063402   683A      2.069524  
     684A      2.074152   685A      2.082516   686A      2.083562  
     687A      2.089602   688A      2.093005   689A      2.095092  
     690A      2.098145   691A      2.105286   692A      2.123955  
     693A      2.125980   694A      2.132767   695A      2.136502  
     696A      2.143849   697A      2.147109   698A      2.151915  
     699A      2.163271   700A      2.170630   701A      2.173254  
     702A      2.179667   703A      2.181815   704A      2.195036  
     705A      2.201617   706A      2.207350   707A      2.219390  
     708A      2.222233   709A      2.230069   710A      2.237150  
     711A      2.238462   712A      2.243661   713A      2.248427  
     714A      2.252322   715A      2.254693   716A      2.258333  
     717A      2.267661   718A      2.271160   719A      2.272488  
     720A      2.281334   721A      2.287588   722A      2.290673  
     723A      2.297593   724A      2.299942   725A      2.309355  
     726A      2.314040   727A      2.319603   728A      2.327949  
     729A      2.333103   730A      2.340075   731A      2.344287  
     732A      2.345125   733A      2.353002   734A      2.359131  
     735A      2.366173   736A      2.372964   737A      2.375105  
     738A      2.380643   739A      2.386602   740A      2.390687  
     741A      2.397350   742A      2.404711   743A      2.410620  
     744A      2.419302   745A      2.426679   746A      2.432939  
     747A      2.435320   748A      2.441201   749A      2.448501  
     750A      2.459295   751A      2.471209   752A      2.479442  
     753A      2.485737   754A      2.490703   755A      2.497146  
     756A      2.502349   757A      2.513057   758A      2.532991  
     759A      2.538094   760A      2.548151   761A      2.553080  
     762A      2.555944   763A      2.562234   764A      2.578375  
     765A      2.584935   766A      2.602472   767A      2.603711  
     768A      2.606572   769A      2.622102   770A      2.624359  
     771A      2.645030   772A      2.651657   773A      2.662064  
     774A      2.679990   775A      2.680627   776A      2.698040  
     777A      2.706847   778A      2.721747   779A      2.727327  
     780A      2.731415   781A      2.743398   782A      2.746567  
     783A      2.765985   784A      2.777080   785A      2.781962  
     786A      2.790009   787A      2.793276   788A      2.804438  
     789A      2.812549   790A      2.815496   791A      2.824131  
     792A      2.829353   793A      2.830249   794A      2.853971  
     795A      2.855241   796A      2.860214   797A      2.869010  
     798A      2.878732   799A      2.887202   800A      2.893346  
     801A      2.896937   802A      2.905929   803A      2.910860  
     804A      2.925812   805A      2.935830   806A      2.943051  
     807A      2.949244   808A      2.954394   809A      2.962315  
     810A      2.965771   811A      2.967799   812A      2.976181  
     813A      2.978809   814A      2.987860   815A      2.990057  
     816A      2.999119   817A      3.005798   818A      3.007339  
     819A      3.013155   820A      3.020576   821A      3.022637  
     822A      3.028075   823A      3.032199   824A      3.038216  
     825A      3.039850   826A      3.052965   827A      3.054116  
     828A      3.057851   829A      3.059062   830A      3.068189  
     831A      3.072501   832A      3.084771   833A      3.086105  
     834A      3.093355   835A      3.095276   836A      3.101172  
     837A      3.107320   838A      3.113596   839A      3.116486  
     840A      3.119515   841A      3.123017   842A      3.126165  
     843A      3.129731   844A      3.135654   845A      3.148771  
     846A      3.151319   847A      3.158661   848A      3.163518  
     849A      3.166587   850A      3.169822   851A      3.187825  
     852A      3.194665   853A      3.201278   854A      3.206688  
     855A      3.214480   856A      3.217629   857A      3.233437  
     858A      3.236898   859A      3.242780   860A      3.246624  
     861A      3.248752   862A      3.260217   863A      3.269242  
     864A      3.270712   865A      3.281286   866A      3.283237  
     867A      3.287577   868A      3.296550   869A      3.297276  
     870A      3.300463   871A      3.312193   872A      3.322330  
     873A      3.325243   874A      3.330772   875A      3.333195  
     876A      3.341809   877A      3.343617   878A      3.351146  
     879A      3.356140   880A      3.359653   881A      3.363606  
     882A      3.364786   883A      3.367174   884A      3.379541  
     885A      3.382427   886A      3.388559   887A      3.395734  
     888A      3.406007   889A      3.424065   890A      3.433289  
     891A      3.463233   892A      3.471169   893A      3.507554  
     894A      3.510130   895A      3.522093   896A      3.534871  
     897A      3.545491   898A      3.557005   899A      3.569580  
     900A      3.601631   901A      3.611432   902A      3.620644  
     903A      3.636421   904A      3.639878   905A      3.651143  
     906A      3.675482   907A      3.680733   908A      3.682356  
     909A      3.696840   910A      3.751976   911A      3.763782  
     912A      3.775848   913A      3.783396   914A      3.795803  
     915A      3.799515   916A      3.804580   917A      3.816964  
     918A      3.833455   919A      3.859191   920A      3.868159  
     921A      3.879933   922A      3.907895   923A      3.918787  
     924A      3.926865   925A      3.939849   926A      3.956622  
     927A      3.960276   928A      3.967241   929A      3.977442  
     930A      4.013419   931A      4.031810   932A      4.043571  
     933A      4.058609   934A      4.075745   935A      4.092673  
     936A      4.096147   937A      4.105544   938A      4.121110  
     939A      4.126431   940A      4.132310   941A      4.142831  
     942A      4.155831   943A      4.187746   944A      4.189610  
     945A      4.193782   946A      4.202118   947A      4.204162  
     948A      4.242905   949A      4.330872   950A      4.354782  
     951A      4.363570   952A      4.378688   953A      4.398014  
     954A      4.414051   955A      4.414796   956A      4.422889  
     957A      4.425172   958A      4.429367   959A      4.445273  
     960A      4.448989   961A      4.450915   962A      4.519704  
     963A      4.544348   964A      4.551255   965A      4.552911  
     966A      4.587666   967A      4.622873   968A      4.627064  
     969A      4.644686   970A      4.716173   971A      4.767960  
     972A      4.770537   973A      4.796875   974A      4.907961  
     975A      4.940450   976A      5.008659   977A      5.047944  
     978A      5.224525   979A      5.240525   980A      5.248025  
     981A      5.280813   982A      5.293515   983A      5.335243  
     984A      5.354799   985A      5.402554   986A      5.414787  
     987A      5.615903   988A      5.687780   989A      5.694781  
     990A      5.798587   991A      5.851412   992A      5.872891  
     993A      6.399371   994A     24.745744   995A     24.756165  
     996A     24.778840   997A     24.802070   998A     24.839495  
     999A     24.936121  1000A     24.991740  1001A     25.010819  
    1002A     25.013017  1003A     25.022028  1004A     25.069484  
    1005A     25.070569  1006A     25.090002  1007A     25.091795  
    1008A     25.101012  1009A     25.108319  1010A     25.115178  
    1011A     25.116998  1012A     25.130112  1013A     25.136141  
    1014A     25.170934  1015A     25.195144  1016A     25.203255  
    1017A     25.234522  1018A     25.245696  1019A     25.248696  
    1020A     25.253062  1021A     25.321797  1022A     25.329014  
    1023A     36.923791  1024A     36.964561  1025A     37.021966  
    1026A     37.073536  1027A     37.077836  1028A     37.132712  
    1029A     37.151394  1030A     51.766358  

    Final Occupation by Irrep:
              A 
    DOCC [   131 ]

  @DF-RHF Final Energy: -1572.21210210056392

   => Energetics <=

    Nuclear Repulsion Energy =           3578.9061032178674395
    One-Electron Energy =               -9255.3377944655567262
    Two-Electron Energy =                4104.2195891471255891
    Total Energy =                      -1572.2121021005641524

Computation Completed


Properties will be evaluated at   0.000000,   0.000000,   0.000000 [a0]

Properties computed using the SCF density matrix

  Nuclear Dipole Moment: [e a0]
     X:    51.5786      Y:     2.9805      Z:     2.7704

  Electronic Dipole Moment: [e a0]
     X:   -52.4610      Y:    -0.0256      Z:    -2.9108

  Dipole Moment: [e a0]
     X:    -0.8824      Y:     2.9548      Z:    -0.1405     Total:     3.0869

  Dipole Moment: [D]
     X:    -2.2428      Y:     7.5104      Z:    -0.3570     Total:     7.8462


*** tstop() called on node45.bme.utexas.edu at Tue Mar 10 23:12:26 2020
Module time:
	user time   =    4349.19 seconds =      72.49 minutes
	system time =      70.18 seconds =       1.17 minutes
	total time  =        815 seconds =      13.58 minutes
Total time:
	user time   =    4349.19 seconds =      72.49 minutes
	system time =      70.18 seconds =       1.17 minutes
	total time  =        815 seconds =      13.58 minutes

*** tstart() called on node45.bme.utexas.edu
*** at Tue Mar 10 23:12:26 2020


  //>>>>>>>>>>>>>>>>>>>>>>>>>>>>>>>>>>>//
  //               DFMP2               //
  //<<<<<<<<<<<<<<<<<<<<<<<<<<<<<<<<<<<//

   => Loading Basis Set <=

    Name: (6-311++G** AUX)
    Role: RIFIT
    Keyword: DF_BASIS_MP2
    atoms 1-4, 6-9, 11, 14-19, 21-28, 30-31, 33-35, 37 entry C          line   148 file /home/bdw2292/miniconda3/envs/p4env/share/psi4/basis/aug-cc-pvtz-ri.gbs 
    atoms 5, 10, 12-13, 20, 29, 32                     entry N          line   206 file /home/bdw2292/miniconda3/envs/p4env/share/psi4/basis/aug-cc-pvtz-ri.gbs 
    atoms 36                                           entry O          line   264 file /home/bdw2292/miniconda3/envs/p4env/share/psi4/basis/aug-cc-pvtz-ri.gbs 
    atoms 38-68                                        entry H          line    30 file /home/bdw2292/miniconda3/envs/p4env/share/psi4/basis/aug-cc-pvtz-ri.gbs 

	 --------------------------------------------------------
	                          DF-MP2                         
	      2nd-Order Density-Fitted Moller-Plesset Theory     
	              RMP2 Wavefunction,   6 Threads             
	                                                         
	        Rob Parrish, Justin Turney, Andy Simmonett,      
	           Ed Hohenstein, and C. David Sherrill          
	 --------------------------------------------------------

   => Auxiliary Basis Set <=

  Basis Set: (6-311++G** AUX)
    Blend: AUG-CC-PVTZ-RI
    Number of shells: 1470
    Number of basis function: 5348
    Number of Cartesian functions: 6737
    Spherical Harmonics?: true
    Max angular momentum: 4

	 --------------------------------------------------------
	                 NBF =  1031, NAUX =  5348
	 --------------------------------------------------------
	   CLASS    FOCC     OCC    AOCC    AVIR     VIR    FVIR
	   PAIRS      37     131      94     899     899       0
	 --------------------------------------------------------

	-----------------------------------------------------------
	 ==================> DF-MP2 Energies <==================== 
	-----------------------------------------------------------
	 Reference Energy          =   -1572.2121021005639250 [Eh]
	 Singles Energy            =      -0.0000000000000000 [Eh]
	 Same-Spin Energy          =      -1.4699153131821805 [Eh]
	 Opposite-Spin Energy      =      -4.0531390543028749 [Eh]
	 Correlation Energy        =      -5.5230543674850558 [Eh]
	 Total Energy              =   -1577.7351564680488991 [Eh]
	-----------------------------------------------------------
	 ================> DF-SCS-MP2 Energies <================== 
	-----------------------------------------------------------
	 SCS Same-Spin Scale       =       0.3333333333333333 [-]
	 SCS Opposite-Spin Scale   =       1.2000000000000000 [-]
	 SCS Same-Spin Energy      =      -0.4899717710607268 [Eh]
	 SCS Opposite-Spin Energy  =      -4.8637668651634494 [Eh]
	 SCS Correlation Energy    =      -5.3537386362241763 [Eh]
	 SCS Total Energy          =   -1577.5658407367880045 [Eh]
	-----------------------------------------------------------


*** tstop() called on node45.bme.utexas.edu at Tue Mar 10 23:20:20 2020
Module time:
	user time   =    2638.55 seconds =      43.98 minutes
	system time =      19.63 seconds =       0.33 minutes
	total time  =        474 seconds =       7.90 minutes
Total time:
	user time   =    6987.74 seconds =     116.46 minutes
	system time =      89.81 seconds =       1.50 minutes
	total time  =       1289 seconds =      21.48 minutes


Properties will be evaluated at   0.000000,   0.000000,   0.000000 [a0]
OEProp: No title given, name of density matrix used for the following properties is 'SCF density'


  Wiberg Bond Indices using Orthogonal Lowdin Orbitals:

  Irrep: 1 Size: 68 x 68

                 1                   2                   3                   4                   5

    1     0.00000000000000     1.46407479429428     0.12490665919947     0.14043577723058     0.12361654408722
    2     1.46407479429428     0.00000000000000     1.40181168064345     0.12879067898413     0.12142175991388
    3     0.12490665919947     1.40181168064345     0.00000000000000     1.36091850174600     0.11831145212585
    4     0.14043577723058     0.12879067898413     1.36091850174600     0.00000000000000     1.66221690650777
    5     0.12361654408722     0.12142175991388     0.11831145212585     1.66221690650777     0.00000000000000
    6     1.46642437514383     0.13811417605441     0.13571633251409     0.15381507755548     1.62612427629072
    7     0.01457290552355     0.10283821032303     1.01973024596418     0.10326146327273     0.01381304212367
    8     0.00352594831080     0.04126949484422     0.09771894501501     0.02378691070123     0.00216587070786
    9     0.00036106694407     0.00464375006312     0.01473918647956     0.00407954664228     0.00068097586816
   10     0.00040579937390     0.00536225181283     0.00574349482749     0.00603579495133     0.00032136191605
   11     0.00088334539159     0.00336200085619     0.01810943316493     0.00687092338484     0.00042844879433
   12     0.00279815455249     0.02219092789051     0.11989112371708     0.06216708508656     0.00409497827403
   13     0.00016886317311     0.00048501901321     0.00163544742977     0.00094379727010     0.00008868957684
   14     0.00003113808264     0.00009430179447     0.00056769218006     0.00131029587301     0.00011271379923
   15     0.00001061012630     0.00002288143147     0.00006722495358     0.00015030335116     0.00001594805486
   16     0.00000210962460     0.00000558990906     0.00004097742898     0.00025372421599     0.00001264124300
   17     0.00001265562087     0.00001973034741     0.00005554140315     0.00028219291973     0.00004221401010
   18     0.00002510487905     0.00005400503860     0.00028897784904     0.00183949964084     0.00022115423629
   19     0.00015784010182     0.00025383518501     0.00202215276052     0.01089168168666     0.00062847223735
   20     0.00004815656870     0.00007370278080     0.00033872462077     0.00325536766109     0.00061530483848
   21     0.00001109583951     0.00001251103282     0.00005437682546     0.00039044927820     0.00019621494785
   22     0.00004461329028     0.00003211665820     0.00005026891850     0.00055381331815     0.00141144124318
   23     0.00045484937615     0.00029941955975     0.00039305806564     0.00636657023257     0.02175824489120
   24     0.00017140314897     0.00016873171475     0.00023259848837     0.00111548812838     0.00934169217308
   25     0.00001343217254     0.00000906759592     0.00001474206313     0.00009631119427     0.00039901533522
   26     0.00000669923742     0.00000408479818     0.00000916211802     0.00013078726227     0.00034048807555
   27     0.00000781040831     0.00000378784263     0.00001089656657     0.00015461236747     0.00045093675146
   28     0.00000425959454     0.00000162206628     0.00000256320625     0.00001496652810     0.00006080185943
   29     0.00000081414377     0.00000023315104     0.00000039462987     0.00000575620888     0.00001058350756
   30     0.00000036786310     0.00000011248508     0.00000011962595     0.00000132533321     0.00000246463179
   31     0.00000016941191     0.00000003134452     0.00000007646444     0.00000043379430     0.00000052712124
   32     0.00000004507329     0.00000001819751     0.00000003434854     0.00000016199712     0.00000036638579
   33     0.00000000950704     0.00000000617161     0.00000000842935     0.00000004606840     0.00000009393277
   34     0.00000024852238     0.00000006570247     0.00000008986617     0.00000043784739     0.00000091561253
   35     0.00000054816082     0.00000018203982     0.00000024648887     0.00000165835892     0.00000403637826
   36     0.00000156061549     0.00000250785082     0.00001281298138     0.00012697479657     0.00003574586465
   37     0.00000212457108     0.00000737732073     0.00003214618492     0.00003702800109     0.00000310343555
   38     0.88618927809053     0.07921495293318     0.01174946019587     0.00636934047014     0.01068915155929
   39     0.07763093264614     0.87062635122613     0.07268587293111     0.01177946135355     0.00394577374701
   40     0.00566306396368     0.01054905373508     0.06941490761738     0.84981721791631     0.08666130814061
   41     0.07725284463288     0.01178950468946     0.00602559248627     0.01589606155477     0.08751843116383
   42     0.00106535720179     0.01403608454146     0.01423366864895     0.00134849961627     0.00028548741946
   43     0.00004408042254     0.00028044089452     0.00144644240366     0.00031530365038     0.00007707905132
   44     0.00002484335666     0.00008313509817     0.00035082650602     0.00009099506849     0.00000775478973
   45     0.00000033189233     0.00000101227246     0.00000658058731     0.00001865327484     0.00000163310906
   46     0.00000086701633     0.00000165628594     0.00000713574814     0.00002672250965     0.00000819373431
   47     0.00011776799031     0.00021149293439     0.00206262194667     0.00829249198547     0.00062766578832
   48     0.00009872166866     0.00007831795751     0.00021973708187     0.00250600283067     0.00074443480859
   49     0.00040792319546     0.00015247244339     0.00030530168201     0.00535593464248     0.01423173662097
   50     0.00007464392111     0.00006929235524     0.00010074295333     0.00026414114269     0.00248167953819
   51     0.00000062719691     0.00000045866266     0.00000139489100     0.00001231766927     0.00002516450270
   52     0.00000121450420     0.00000055138530     0.00000132546842     0.00000902776030     0.00003875415961
   53     0.00000224411649     0.00000130705478     0.00000140540054     0.00000253215257     0.00001171953371
   54     0.00000069357862     0.00000034752280     0.00000042362626     0.00000241544004     0.00000811770423
   55     0.00000006421982     0.00000003784881     0.00000000993881     0.00000011996611     0.00000031410013
   56     0.00000002990750     0.00000001320426     0.00000001301759     0.00000035559995     0.00000032078473
   57     0.00000000599342     0.00000000343848     0.00000000301775     0.00000003815375     0.00000007496798
   58     0.00000002725617     0.00000000815351     0.00000001019758     0.00000003521309     0.00000016811172
   59     0.00000000635432     0.00000000253708     0.00000000230272     0.00000002454881     0.00000003720253
   60     0.00000000163699     0.00000000056826     0.00000000294980     0.00000000732644     0.00000001829336
   61     0.00000000182606     0.00000000193872     0.00000000229506     0.00000000922615     0.00000003203980
   62     0.00000003984819     0.00000000493657     0.00000000663661     0.00000004549873     0.00000010394069
   63     0.00000001847952     0.00000000863740     0.00000000678786     0.00000004254501     0.00000019236264
   64     0.00000003951125     0.00000004897769     0.00000003461048     0.00000027317246     0.00000059260617
   65     0.00000008266591     0.00000006610422     0.00000012544569     0.00000090071066     0.00000166356255
   66     0.00000074891292     0.00000192757898     0.00001099899486     0.00000848337533     0.00000056453821
   67     0.00000112774229     0.00000287133420     0.00001024536156     0.00000873189084     0.00000074708380
   68     0.00000024639710     0.00000072871680     0.00000381643906     0.00000829482637     0.00000044932183

                 6                   7                   8                   9                  10

    1     1.46642437514383     0.01457290552355     0.00352594831080     0.00036106694407     0.00040579937390
    2     0.13811417605441     0.10283821032303     0.04126949484422     0.00464375006312     0.00536225181283
    3     0.13571633251409     1.01973024596418     0.09771894501501     0.01473918647956     0.00574349482749
    4     0.15381507755548     0.10326146327273     0.02378691070123     0.00407954664228     0.00603579495133
    5     1.62612427629072     0.01381304212367     0.00216587070786     0.00068097586816     0.00032136191605
    6     0.00000000000000     0.00963055190986     0.00681819440144     0.00119123503182     0.00335277954193
    7     0.00963055190986     0.00000000000000     1.38974392922903     0.14705742347455     0.11215505074607
    8     0.00681819440144     1.38974392922903     0.00000000000000     1.43147873648108     0.13069605119687
    9     0.00119123503182     0.14705742347455     1.43147873648108     0.00000000000000     1.66356245819439
   10     0.00335277954193     0.11215505074607     0.13069605119687     1.66356245819439     0.00000000000000
   11     0.00084902136038     0.14158254255650     0.11306182608307     0.15272188886028     1.50663545248066
   12     0.00602486536402     1.53041110103156     0.12610666601459     0.11104879693861     0.10990484929959
   13     0.00007363709596     0.01929072999516     0.02049889466087     0.02419629144258     0.15914174013025
   14     0.00004369137805     0.00289752818368     0.00247056505585     0.00325757557053     0.01681087723201
   15     0.00000563216209     0.00050243564265     0.00143199067889     0.00093558906719     0.00311166397690
   16     0.00000400020812     0.00016709623517     0.00019236182579     0.00016368712054     0.00047085517134
   17     0.00000731880271     0.00024872657444     0.00127255726887     0.00044332755739     0.00124419887503
   18     0.00004271908837     0.00055419791519     0.00026302257923     0.00014180468529     0.00040581346632
   19     0.00019461231997     0.00570991091318     0.00308309208290     0.00153202879539     0.00428162102172
   20     0.00007645638845     0.00013565207132     0.00002952357848     0.00001827441944     0.00005957535762
   21     0.00002250620567     0.00002233646941     0.00000833273163     0.00000475754634     0.00001555603861
   22     0.00014050116460     0.00000793814373     0.00000255038577     0.00000121327968     0.00000328920270
   23     0.00191399713983     0.00006265644045     0.00001486122808     0.00000404940902     0.00000304616725
   24     0.00181855338294     0.00002519090496     0.00001434234334     0.00000223783890     0.00000242625925
   25     0.00019285585256     0.00000260926603     0.00000175230344     0.00000026974122     0.00000049437376
   26     0.00010732562867     0.00000140736617     0.00000049978464     0.00000015003012     0.00000024566994
   27     0.00009848219738     0.00000256612230     0.00000115750006     0.00000042679390     0.00000089903497
   28     0.00002762106494     0.00000092581771     0.00000023951002     0.00000005948436     0.00000004365889
   29     0.00000365976713     0.00000018133195     0.00000004275206     0.00000001513666     0.00000000950932
   30     0.00000111073874     0.00000007501781     0.00000004989188     0.00000000462985     0.00000000886948
   31     0.00000039608302     0.00000003941826     0.00000004208051     0.00000000306479     0.00000001027523
   32     0.00000013973712     0.00000001807850     0.00000000746747     0.00000000150721     0.00000000337811
   33     0.00000004545013     0.00000000434683     0.00000000195108     0.00000000082060     0.00000000142713
   34     0.00000049454057     0.00000003244318     0.00000001485439     0.00000000348717     0.00000000648533
   35     0.00000270577954     0.00000008368855     0.00000003074686     0.00000000789272     0.00000000756350
   36     0.00000694221487     0.00001113653146     0.00000865524255     0.00000429676356     0.00001163161044
   37     0.00000193207649     0.00014375912579     0.00013808514027     0.00013502075331     0.00074900218502
   38     0.08246407080332     0.00128168241633     0.00024434067772     0.00003854691150     0.00002518224110
   39     0.01171425713121     0.01609775413953     0.01467907598265     0.00113224242465     0.00039348145292
   40     0.01470678680711     0.01560387738285     0.00166610505990     0.00039617705178     0.00061790826073
   41     0.87916630643333     0.00053784610184     0.00026393399019     0.00005181655167     0.00010408977154
   42     0.00047789588327     0.07578569162092     0.87626204467919     0.08040623416258     0.01040313067059
   43     0.00004338763312     0.01180958338115     0.07623096677610     0.87541086265930     0.08898735226912
   44     0.00001154846362     0.00205866496366     0.00200851976920     0.00363359582549     0.03107327716086
   45     0.00000038491276     0.00001836663940     0.00000868591139     0.00002328830067     0.00005297797114
   46     0.00000116031232     0.00002285865214     0.00004081932893     0.00001640715731     0.00005084155619
   47     0.00020636158077     0.00417542570053     0.00092244849804     0.00042777163534     0.00076138416869
   48     0.00009526400474     0.00009122468798     0.00002678529115     0.00000979736869     0.00002039565435
   49     0.00141607004230     0.00005417816201     0.00001306159122     0.00000339033646     0.00000276020404
   50     0.00116563973504     0.00001011039930     0.00000440112242     0.00000071269381     0.00000049243527
   51     0.00000493650296     0.00000009632477     0.00000007169517     0.00000001635286     0.00000003316835
   52     0.00001024166251     0.00000047896617     0.00000013860843     0.00000006898883     0.00000014823168
   53     0.00000935926458     0.00000024019947     0.00000011876404     0.00000001537206     0.00000006475315
   54     0.00000498888345     0.00000012834887     0.00000002979336     0.00000000826653     0.00000001241813
   55     0.00000033877265     0.00000001306461     0.00000000643683     0.00000000239731     0.00000000144864
   56     0.00000016899181     0.00000000853798     0.00000000731073     0.00000000134117     0.00000000185307
   57     0.00000003158190     0.00000000128262     0.00000000125074     0.00000000025002     0.00000000028609
   58     0.00000005859435     0.00000000727887     0.00000000100615     0.00000000055977     0.00000000054538
   59     0.00000001798129     0.00000000079439     0.00000000064751     0.00000000015875     0.00000000027669
   60     0.00000000913187     0.00000000105025     0.00000000057381     0.00000000017589     0.00000000036318
   61     0.00000001130342     0.00000000097888     0.00000000058908     0.00000000018840     0.00000000025586
   62     0.00000007639438     0.00000000407483     0.00000000796550     0.00000000054819     0.00000000063790
   63     0.00000011641696     0.00000000276470     0.00000000232721     0.00000000142187     0.00000000062755
   64     0.00000048988067     0.00000001920702     0.00000000336797     0.00000000088939     0.00000000075640
   65     0.00000105142073     0.00000001406397     0.00000000911874     0.00000000264292     0.00000000397039
   66     0.00000038630727     0.00004263951264     0.00007325315914     0.00004146897212     0.00024102044895
   67     0.00000135871808     0.00004643064435     0.00011212857753     0.00004286253975     0.00032900085950
   68     0.00000016611661     0.00001416771753     0.00000593407269     0.00000436717523     0.00003356280435

                11                  12                  13                  14                  15

    1     0.00088334539159     0.00279815455249     0.00016886317311     0.00003113808264     0.00001061012630
    2     0.00336200085619     0.02219092789051     0.00048501901321     0.00009430179447     0.00002288143147
    3     0.01810943316493     0.11989112371708     0.00163544742977     0.00056769218006     0.00006722495358
    4     0.00687092338484     0.06216708508656     0.00094379727010     0.00131029587301     0.00015030335116
    5     0.00042844879433     0.00409497827403     0.00008868957684     0.00011271379923     0.00001594805486
    6     0.00084902136038     0.00602486536402     0.00007363709596     0.00004369137805     0.00000563216209
    7     0.14158254255650     1.53041110103156     0.01929072999516     0.00289752818368     0.00050243564265
    8     0.11306182608307     0.12610666601459     0.02049889466087     0.00247056505585     0.00143199067889
    9     0.15272188886028     0.11104879693861     0.02419629144258     0.00325757557053     0.00093558906719
   10     1.50663545248066     0.10990484929959     0.15914174013025     0.01681087723201     0.00311166397690
   11     0.00000000000000     1.53323600117502     1.26938163278079     0.08236256161082     0.01793186051995
   12     1.53323600117502     0.00000000000000     0.14154543515787     0.02946753216426     0.00348730730958
   13     1.26938163278079     0.14154543515787     0.00000000000000     1.12525730716606     0.10565511019750
   14     0.08236256161082     0.02946753216426     1.12525730716606     0.00000000000000     1.31652050184216
   15     0.01793186051995     0.00348730730958     0.10565511019750     1.31652050184216     0.00000000000000
   16     0.00239278476248     0.00117450388054     0.01431882103134     0.12595583688596     1.44172007358732
   17     0.00415483967745     0.00246890499608     0.01180430084719     0.11956229221085     0.12428851346136
   18     0.00243979861964     0.00486295029884     0.01322069899093     0.12291064606861     0.12009132444304
   19     0.02857812006392     0.05523070464414     0.11081924852308     1.40376514761966     0.11920939690680
   20     0.00034641774958     0.00112624329964     0.00133351623622     0.01516946639305     0.01133936022776
   21     0.00006230984000     0.00013383739981     0.00030439583017     0.00277170898403     0.00570644090502
   22     0.00001133714846     0.00002569619405     0.00005663114803     0.00035538677121     0.00030786327903
   23     0.00001417515513     0.00011363530775     0.00001276152701     0.00011074787149     0.00032735458554
   24     0.00000205006772     0.00001059124526     0.00000262658885     0.00001203805476     0.00003377262684
   25     0.00000077732428     0.00000254612230     0.00000176406514     0.00002430419598     0.00018326916796
   26     0.00000055524503     0.00000080258345     0.00000242188479     0.00001788563148     0.00003696874308
   27     0.00000334547979     0.00000451331482     0.00001315186767     0.00010134917874     0.00034087103784
   28     0.00000015536339     0.00000046028717     0.00000022921992     0.00000190746069     0.00000953684801
   29     0.00000005388588     0.00000014645196     0.00000005989301     0.00000035623080     0.00000077065721
   30     0.00000003326976     0.00000002832096     0.00000001888589     0.00000013247250     0.00000036734120
   31     0.00000001751541     0.00000001416728     0.00000000600207     0.00000004086289     0.00000012522378
   32     0.00000000782702     0.00000001579029     0.00000000529769     0.00000002123692     0.00000009841294
   33     0.00000000366769     0.00000000634547     0.00000000293688     0.00000001062662     0.00000003263149
   34     0.00000001471471     0.00000003583308     0.00000001230772     0.00000007101045     0.00000012977612
   35     0.00000002766343     0.00000010068032     0.00000005705347     0.00000032003375     0.00000113104193
   36     0.00004177212861     0.00005603090695     0.00015358809535     0.00105080681040     0.00335285773418
   37     0.00364634588189     0.00077999461574     0.03785209211501     0.09650334945846     1.06075174210053
   38     0.00009022605589     0.00031358357050     0.00001633782519     0.00000687028289     0.00000081093882
   39     0.00028605903508     0.00108787823910     0.00006653983801     0.00002564441014     0.00000406657607
   40     0.00279422751860     0.02565192183669     0.00043037872341     0.00124098714325     0.00016783666141
   41     0.00004308425335     0.00025221285201     0.00000556789347     0.00000396817557     0.00000056761765
   42     0.00572835875686     0.01069877534097     0.00103683900111     0.00011987337397     0.00006438743072
   43     0.01580702354202     0.00400396521830     0.00133798099892     0.00038178875317     0.00006179492573
   44     0.07346138167822     0.01150507205295     0.93477420241812     0.05953781028383     0.01494727784491
   45     0.00036824786645     0.00006320879149     0.00115912989447     0.01143546943349     0.07482714987039
   46     0.00014786744420     0.00015450451092     0.00050839185433     0.00524530225802     0.01051361379393
   47     0.00971415555616     0.03774400388555     0.01605095240114     0.07336992841009     0.00966055387617
   48     0.00012269493293     0.00069621188801     0.00017722763581     0.00208450621846     0.00112193863341
   49     0.00000994397253     0.00006113312206     0.00000495808048     0.00003842687596     0.00008910406899
   50     0.00000066926761     0.00000260842090     0.00000032158132     0.00000126530185     0.00000121099233
   51     0.00000007481338     0.00000016086768     0.00000049579563     0.00000260743656     0.00000293909209
   52     0.00000069049714     0.00000062934873     0.00000247319378     0.00001648681322     0.00002001041897
   53     0.00000003820477     0.00000007310747     0.00000007477562     0.00000086312221     0.00000616844955
   54     0.00000002716666     0.00000007009161     0.00000006780865     0.00000101277108     0.00000761725649
   55     0.00000000382552     0.00000000521664     0.00000000324118     0.00000004321080     0.00000019989722
   56     0.00000000389869     0.00000000822007     0.00000000636556     0.00000003116820     0.00000008808072
   57     0.00000000109250     0.00000000213219     0.00000000053546     0.00000000351630     0.00000000370618
   58     0.00000000148811     0.00000000419159     0.00000000136109     0.00000001111993     0.00000004470363
   59     0.00000000059662     0.00000000207736     0.00000000077796     0.00000000346643     0.00000002379744
   60     0.00000000061561     0.00000000171764     0.00000000056332     0.00000000128705     0.00000000321587
   61     0.00000000035336     0.00000000074811     0.00000000043997     0.00000000159383     0.00000000544777
   62     0.00000000287917     0.00000000195139     0.00000000087598     0.00000000348267     0.00000000831852
   63     0.00000000173267     0.00000000505690     0.00000000407804     0.00000001652740     0.00000002718930
   64     0.00000000240611     0.00000000799482     0.00000000333101     0.00000004431759     0.00000013651833
   65     0.00000000757889     0.00000000895472     0.00000002314947     0.00000017777467     0.00000084824404
   66     0.00074295386818     0.00025592893257     0.00896411440173     0.01649088625825     0.05836708249114
   67     0.00097887740161     0.00030157004546     0.01039685193962     0.01665509827807     0.05825408351469
   68     0.00023340286502     0.00006188719244     0.00200654467962     0.00894676009290     0.05942825812192

                16                  17                  18                  19                  20

    1     0.00000210962460     0.00001265562087     0.00002510487905     0.00015784010182     0.00004815656870
    2     0.00000558990906     0.00001973034741     0.00005400503860     0.00025383518501     0.00007370278080
    3     0.00004097742898     0.00005554140315     0.00028897784904     0.00202215276052     0.00033872462077
    4     0.00025372421599     0.00028219291973     0.00183949964084     0.01089168168666     0.00325536766109
    5     0.00001264124300     0.00004221401010     0.00022115423629     0.00062847223735     0.00061530483848
    6     0.00000400020812     0.00000731880271     0.00004271908837     0.00019461231997     0.00007645638845
    7     0.00016709623517     0.00024872657444     0.00055419791519     0.00570991091318     0.00013565207132
    8     0.00019236182579     0.00127255726887     0.00026302257923     0.00308309208290     0.00002952357848
    9     0.00016368712054     0.00044332755739     0.00014180468529     0.00153202879539     0.00001827441944
   10     0.00047085517134     0.00124419887503     0.00040581346632     0.00428162102172     0.00005957535762
   11     0.00239278476248     0.00415483967745     0.00243979861964     0.02857812006392     0.00034641774958
   12     0.00117450388054     0.00246890499608     0.00486295029884     0.05523070464414     0.00112624329964
   13     0.01431882103134     0.01180430084719     0.01322069899093     0.11081924852308     0.00133351623622
   14     0.12595583688596     0.11956229221085     0.12291064606861     1.40376514761966     0.01516946639305
   15     1.44172007358732     0.12428851346136     0.12009132444304     0.11920939690680     0.01133936022776
   16     0.00000000000000     1.44450086342993     0.13309893846135     0.12557534031575     0.01360453543803
   17     1.44450086342993     0.00000000000000     1.39942877270128     0.12153795565250     0.10433745709235
   18     0.13309893846135     1.39942877270128     0.00000000000000     1.36172905273833     1.12543715899868
   19     0.12557534031575     0.12153795565250     1.36172905273833     0.00000000000000     0.12447902940541
   20     0.01360453543803     0.10433745709235     1.12543715899868     0.12447902940541     0.00000000000000
   21     0.00278523839633     0.03122353828176     0.08634105389437     0.02251205165633     1.31314886070517
   22     0.00035348843758     0.00324797900628     0.01449236910415     0.00203176914834     0.10198331778233
   23     0.00014069746069     0.00115168311601     0.00366769809542     0.00116119716127     0.04075841238091
   24     0.00002052193804     0.00015654490002     0.00036980962079     0.00012161429375     0.00334165190694
   25     0.00002804085328     0.00028421282574     0.00038276040956     0.00024515915590     0.00346292698235
   26     0.00002262466438     0.00013138425070     0.00049134417140     0.00010296479800     0.00250747555778
   27     0.00010019216766     0.00093300159352     0.00229474647165     0.00070836583152     0.01760289777437
   28     0.00000244876448     0.00001973971451     0.00003306288423     0.00001586160125     0.00022558149730
   29     0.00000053415873     0.00000347964084     0.00000879799076     0.00000221127381     0.00004510447579
   30     0.00000032887846     0.00000115309468     0.00000238246994     0.00000070540191     0.00001108253829
   31     0.00000015968856     0.00000031877491     0.00000068087201     0.00000028078954     0.00000248469265
   32     0.00000007027097     0.00000020109230     0.00000026054669     0.00000014685856     0.00000162095701
   33     0.00000003571153     0.00000007581874     0.00000011947934     0.00000005527825     0.00000044470079
   34     0.00000012430718     0.00000038664874     0.00000092144945     0.00000034362681     0.00000485562559
   35     0.00000056270174     0.00000303667922     0.00000522040852     0.00000213730465     0.00003308463164
   36     0.00363483611417     0.05066064680867     0.03258417465278     0.00515909668408     0.19171478627305
   37     0.11550415431698     0.01437474735232     0.00736117026700     0.01395164132432     0.00072171024568
   38     0.00000031745377     0.00000069112660     0.00000505094396     0.00002243565610     0.00000539072359
   39     0.00000163912365     0.00000181407257     0.00000631214285     0.00003825341049     0.00000791011357
   40     0.00021243470406     0.00024503902116     0.00189861495023     0.00903184413811     0.00239054231878
   41     0.00000041834903     0.00000070761188     0.00000281182100     0.00001415422734     0.00000614804840
   42     0.00001089656796     0.00004616788092     0.00002979371509     0.00019872368270     0.00000687634431
   43     0.00001581199461     0.00001206162916     0.00001524311595     0.00010704683302     0.00000174299963
   44     0.00151958090160     0.00107625468378     0.00130559046379     0.01047280290514     0.00024263291855
   45     0.87153500496181     0.07904462226575     0.01176210538949     0.00564825799403     0.00102817897871
   46     0.07714548721279     0.85922684562324     0.07548262132849     0.01120453063032     0.01450925502969
   47     0.00564566850296     0.01016260973194     0.07123927344784     0.83762025982659     0.02406099913511
   48     0.00137003798194     0.01013564010335     0.06253641913881     0.02166410756817     0.93755717420023
   49     0.00005045788182     0.00033538574039     0.00142171231415     0.00058557674112     0.01541037465521
   50     0.00000195488107     0.00001324286727     0.00002925173883     0.00000832167370     0.00019580395613
   51     0.00000230782466     0.00001651757926     0.00006326694544     0.00001586543985     0.00027148300898
   52     0.00002793433533     0.00018917396563     0.00026571767858     0.00007333352595     0.00158597799003
   53     0.00000115870354     0.00000917490964     0.00001292158278     0.00000835032724     0.00010685164693
   54     0.00000105452250     0.00001170556349     0.00001304121849     0.00000923540276     0.00010620493235
   55     0.00000006010278     0.00000026782700     0.00000044243891     0.00000018995733     0.00000246643539
   56     0.00000005396992     0.00000027928929     0.00000058829261     0.00000013537491     0.00000222141768
   57     0.00000001848471     0.00000003326025     0.00000008383574     0.00000001879128     0.00000024395130
   58     0.00000003570875     0.00000012359438     0.00000016111312     0.00000008304661     0.00000064372889
   59     0.00000000940595     0.00000003655485     0.00000004509543     0.00000002686576     0.00000029602406
   60     0.00000000281076     0.00000000782332     0.00000001417767     0.00000000400698     0.00000006275975
   61     0.00000000551955     0.00000000804723     0.00000001539815     0.00000000824876     0.00000006445489
   62     0.00000000654332     0.00000002725534     0.00000005265307     0.00000001366835     0.00000023162853
   63     0.00000003517559     0.00000006325822     0.00000022727875     0.00000009241376     0.00000116715006
   64     0.00000014625082     0.00000028516543     0.00000039410692     0.00000016650526     0.00000205437080
   65     0.00000021009167     0.00000182816434     0.00000258966420     0.00000142169918     0.00001969833986
   66     0.01534860952715     0.00127026618162     0.00299840858582     0.00120543270925     0.00037560172933
   67     0.01489951967624     0.00125892562424     0.00276242987560     0.00125968441244     0.00032741674893
   68     0.02376015299078     0.00189234307732     0.00055250101294     0.00108478219974     0.00008351579764

                21                  22                  23                  24                  25

    1     0.00001109583951     0.00004461329028     0.00045484937615     0.00017140314897     0.00001343217254
    2     0.00001251103282     0.00003211665820     0.00029941955975     0.00016873171475     0.00000906759592
    3     0.00005437682546     0.00005026891850     0.00039305806564     0.00023259848837     0.00001474206313
    4     0.00039044927820     0.00055381331815     0.00636657023257     0.00111548812838     0.00009631119427
    5     0.00019621494785     0.00141144124318     0.02175824489120     0.00934169217308     0.00039901533522
    6     0.00002250620567     0.00014050116460     0.00191399713983     0.00181855338294     0.00019285585256
    7     0.00002233646941     0.00000793814373     0.00006265644045     0.00002519090496     0.00000260926603
    8     0.00000833273163     0.00000255038577     0.00001486122808     0.00001434234334     0.00000175230344
    9     0.00000475754634     0.00000121327968     0.00000404940902     0.00000223783890     0.00000026974122
   10     0.00001555603861     0.00000328920270     0.00000304616725     0.00000242625925     0.00000049437376
   11     0.00006230984000     0.00001133714846     0.00001417515513     0.00000205006772     0.00000077732428
   12     0.00013383739981     0.00002569619405     0.00011363530775     0.00001059124526     0.00000254612230
   13     0.00030439583017     0.00005663114803     0.00001276152701     0.00000262658885     0.00000176406514
   14     0.00277170898403     0.00035538677121     0.00011074787149     0.00001203805476     0.00002430419598
   15     0.00570644090502     0.00030786327903     0.00032735458554     0.00003377262684     0.00018326916796
   16     0.00278523839633     0.00035348843758     0.00014069746069     0.00002052193804     0.00002804085328
   17     0.03122353828176     0.00324797900628     0.00115168311601     0.00015654490002     0.00028421282574
   18     0.08634105389437     0.01449236910415     0.00366769809542     0.00036980962079     0.00038276040956
   19     0.02251205165633     0.00203176914834     0.00116119716127     0.00012161429375     0.00024515915590
   20     1.31314886070517     0.10198331778233     0.04075841238091     0.00334165190694     0.00346292698235
   21     0.00000000000000     0.97653541287698     0.10431563871383     0.01461334615364     0.01151323642208
   22     0.97653541287698     0.00000000000000     1.39567605031917     0.12704899208647     0.12374523204677
   23     0.10431563871383     1.39567605031917     0.00000000000000     1.47184631552121     0.12500834226734
   24     0.01461334615364     0.12704899208647     1.47184631552121     0.00000000000000     1.40427646335998
   25     0.01151323642208     0.12374523204677     0.12500834226734     1.40427646335998     0.00000000000000
   26     0.01489096031655     0.12593844515141     0.12827658894760     0.12563535337144     1.40616660917862
   27     0.11154081135944     1.38967025745577     0.12404509636413     0.13317222324926     0.12700802397665
   28     0.00070917379952     0.00756957232896     0.01499093610020     0.11285732889744     1.02059727412811
   29     0.00010693514408     0.00079280970327     0.00195201072419     0.01138516435350     0.07573837142699
   30     0.00003030477187     0.00019566838508     0.00039735178438     0.00219997416646     0.01523120743410
   31     0.00000762972664     0.00004015837234     0.00007691633481     0.00035196283283     0.00223996074253
   32     0.00000413414770     0.00002507155793     0.00001932045596     0.00008181151665     0.00054817953012
   33     0.00000125594513     0.00000832677471     0.00000727165451     0.00003007630177     0.00028636928759
   34     0.00001322559269     0.00008512298517     0.00009608392445     0.00031650373485     0.00205779882383
   35     0.00008852620523     0.00072011603549     0.00096226232087     0.00251932405869     0.01939525426479
   36     2.16756598083019     0.13660588385571     0.02585317666320     0.00339888294221     0.00664955149443
[...]
   15     0.00000008808072     0.00000000370618     0.00000004470363     0.00000002379744     0.00000000321587
   16     0.00000005396992     0.00000001848471     0.00000003570875     0.00000000940595     0.00000000281076
   17     0.00000027928929     0.00000003326025     0.00000012359438     0.00000003655485     0.00000000782332
   18     0.00000058829261     0.00000008383574     0.00000016111312     0.00000004509543     0.00000001417767
   19     0.00000013537491     0.00000001879128     0.00000008304661     0.00000002686576     0.00000000400698
   20     0.00000222141768     0.00000024395130     0.00000064372889     0.00000029602406     0.00000006275975
   21     0.00000762559690     0.00000073193306     0.00000170811516     0.00000071996301     0.00000015272461
   22     0.00004481816312     0.00000347509949     0.00001501486491     0.00000519123053     0.00000093394002
   23     0.00003982578994     0.00001327669367     0.00000768681076     0.00000327386322     0.00000118553200
   24     0.00017663046059     0.00005626263838     0.00003107919442     0.00001919255185     0.00000555030303
   25     0.00160292207278     0.00028834764318     0.00017280159637     0.00015072332390     0.00002882094106
   26     0.00083021671155     0.00005939038358     0.00012552363594     0.00008684103548     0.00001688123006
   27     0.00010867031501     0.00000710483807     0.00001329125358     0.00000992969948     0.00000212477133
   28     0.02210759879593     0.00183357683871     0.00228038843700     0.00082613678418     0.00013620629459
   29     0.06944382189493     0.00897561012005     0.01728412900611     0.00346668555154     0.00060118887938
   30     0.75870960462263     0.06646937487083     0.05076788957150     0.01171003209847     0.00355444395273
   31     0.04565869114783     0.91206471681478     0.77658016570596     0.01654334628946     0.01734135206079
   32     0.01273844232420     0.06419465872239     0.06446020960486     0.06671682873727     0.06303982951562
   33     0.01355490037420     0.01921188640202     0.01392008537504     0.90997226368029     0.91927941072467
   34     0.00942086383659     0.01319251216005     0.02585649068275     0.01729321574755     0.01321926839173
   35     0.03059478449164     0.00303562831325     0.00936689427649     0.01208655429319     0.00177228437214
   36     0.00000274899917     0.00000029349961     0.00000091483982     0.00000042055586     0.00000008571077
   37     0.00000000898265     0.00000000153683     0.00000000372549     0.00000000337598     0.00000000065895
   38     0.00000000493686     0.00000000095750     0.00000000184819     0.00000000089664     0.00000000040891
   39     0.00000000402204     0.00000000012932     0.00000000032767     0.00000000033768     0.00000000004387
   40     0.00000006765506     0.00000000955274     0.00000001377434     0.00000000701490     0.00000000363751
   41     0.00000019728468     0.00000002100498     0.00000002932525     0.00000000518775     0.00000000117374
   42     0.00000000082483     0.00000000007467     0.00000000010478     0.00000000005294     0.00000000003406
   43     0.00000000014083     0.00000000002580     0.00000000009983     0.00000000002633     0.00000000002292
   44     0.00000000092625     0.00000000008745     0.00000000021730     0.00000000007304     0.00000000005171
   45     0.00000000501322     0.00000000054262     0.00000000183494     0.00000000040163     0.00000000016505
   46     0.00000006862765     0.00000000937575     0.00000001578924     0.00000000409108     0.00000000137012
   47     0.00000001703060     0.00000000456897     0.00000000546055     0.00000000492039     0.00000000241057
   48     0.00000138978168     0.00000014315252     0.00000007891486     0.00000009013596     0.00000003330819
   49     0.00000905474618     0.00000179975362     0.00000085713701     0.00000056432929     0.00000012099720
   50     0.00004274856807     0.00000579908129     0.00000404173558     0.00000279937816     0.00000092723177
   51     0.00052028979542     0.00002144191201     0.00006365159014     0.00004811596762     0.00000530013199
   52     0.00001200866545     0.00000098269276     0.00000075537448     0.00000127911583     0.00000020379584
   53     0.00321987165278     0.00021007243938     0.00027648549476     0.00007152856753     0.00001969766893
   54     0.00693317282469     0.00025668802037     0.00063618934157     0.00032776796110     0.00005069973684
   55     0.02434094413089     0.00586319557233     0.00927670665418     0.00047767226941     0.00011478682609
   56     0.00000000000000     0.00866733718885     0.02537644646838     0.00676914849238     0.00142689901943
   57     0.00866733718885     0.00000000000000     0.02550384601889     0.00270324250357     0.00574174448650
   58     0.02537644646838     0.02550384601889     0.00000000000000     0.00101611275040     0.00125402325607
   59     0.00676914849238     0.00270324250357     0.00101611275040     0.00000000000000     0.03496802501938
   60     0.00142689901943     0.00574174448650     0.00125402325607     0.03496802501938     0.00000000000000
   61     0.00054519380870     0.00117535401209     0.00069220761055     0.03472985868489     0.03775446186994
   62     0.00039824891751     0.00138559667006     0.00137694439752     0.00334661361604     0.00114763878654
   63     0.00138592983682     0.00103843112102     0.00810947934215     0.00100719626067     0.00067042944214
   64     0.00883320389042     0.00068345500917     0.00143877583616     0.00839504400285     0.00067014122117
   65     0.00171446128885     0.00027701618582     0.00068390238175     0.00075018217330     0.00022388021569
   66     0.00000000382054     0.00000000012959     0.00000000111664     0.00000000095880     0.00000000006627
   67     0.00000000554109     0.00000000023156     0.00000000192908     0.00000000063213     0.00000000013114
   68     0.00000000100869     0.00000000005861     0.00000000078121     0.00000000010445     0.00000000002021

                61                  62                  63                  64                  65

    1     0.00000000182606     0.00000003984819     0.00000001847952     0.00000003951125     0.00000008266591
    2     0.00000000193872     0.00000000493657     0.00000000863740     0.00000004897769     0.00000006610422
    3     0.00000000229506     0.00000000663661     0.00000000678786     0.00000003461048     0.00000012544569
    4     0.00000000922615     0.00000004549873     0.00000004254501     0.00000027317246     0.00000090071066
    5     0.00000003203980     0.00000010394069     0.00000019236264     0.00000059260617     0.00000166356255
    6     0.00000001130342     0.00000007639438     0.00000011641696     0.00000048988067     0.00000105142073
    7     0.00000000097888     0.00000000407483     0.00000000276470     0.00000001920702     0.00000001406397
    8     0.00000000058908     0.00000000796550     0.00000000232721     0.00000000336797     0.00000000911874
    9     0.00000000018840     0.00000000054819     0.00000000142187     0.00000000088939     0.00000000264292
   10     0.00000000025586     0.00000000063790     0.00000000062755     0.00000000075640     0.00000000397039
   11     0.00000000035336     0.00000000287917     0.00000000173267     0.00000000240611     0.00000000757889
   12     0.00000000074811     0.00000000195139     0.00000000505690     0.00000000799482     0.00000000895472
   13     0.00000000043997     0.00000000087598     0.00000000407804     0.00000000333101     0.00000002314947
   14     0.00000000159383     0.00000000348267     0.00000001652740     0.00000004431759     0.00000017777467
   15     0.00000000544777     0.00000000831852     0.00000002718930     0.00000013651833     0.00000084824404
   16     0.00000000551955     0.00000000654332     0.00000003517559     0.00000014625082     0.00000021009167
   17     0.00000000804723     0.00000002725534     0.00000006325822     0.00000028516543     0.00000182816434
   18     0.00000001539815     0.00000005265307     0.00000022727875     0.00000039410692     0.00000258966420
   19     0.00000000824876     0.00000001366835     0.00000009241376     0.00000016650526     0.00000142169918
   20     0.00000006445489     0.00000023162853     0.00000116715006     0.00000205437080     0.00001969833986
   21     0.00000015292505     0.00000083271385     0.00000247123652     0.00000847187829     0.00004934665143
   22     0.00000085705008     0.00000470821700     0.00001825071387     0.00004391970384     0.00042141311841
   23     0.00000079277286     0.00000994069488     0.00001296269934     0.00005340275573     0.00056688980193
   24     0.00000490239946     0.00005516145867     0.00003580759299     0.00030751900667     0.00067039770429
   25     0.00002778899066     0.00020168065361     0.00043990463154     0.00450372433411     0.00716136695740
   26     0.00002398424568     0.00017697632155     0.00094076678934     0.00177675947077     0.01466187783128
   27     0.00000258951004     0.00001622913723     0.00004579781724     0.00011597223188     0.00174491870790
   28     0.00015827502065     0.00198232414370     0.00221794402740     0.02400993645719     0.01440070242359
   29     0.00067706438206     0.01115254564302     0.01665478177757     0.06925461637620     0.07165400973734
   30     0.00164338984456     0.00185487350047     0.00879983627947     0.03333795754392     0.01245665407927
   31     0.01236911710517     0.01533958029660     0.02429595126609     0.00983333653562     0.00319631779551
   32     0.06250963803616     0.05271036747639     0.06386977602955     0.01393750439947     0.00992782677927
   33     0.91947638491844     0.02310127185063     0.01322757954414     0.01574403293644     0.00218965010221
   34     0.02064015696175     0.83492285024443     0.79214504546358     0.04744040415469     0.07079837140141
   35     0.00373630680889     0.05724943375312     0.04925395869790     0.72844784935206     0.92276837354443
   36     0.00000005945865     0.00000037455399     0.00000143727290     0.00000344930286     0.00002236442407
   37     0.00000000181420     0.00000000307782     0.00000000614129     0.00000001261457     0.00000004491603
   38     0.00000000033211     0.00000000058255     0.00000000153900     0.00000000464769     0.00000001191330
   39     0.00000000019353     0.00000000057820     0.00000000042528     0.00000000276775     0.00000000819948
   40     0.00000000328171     0.00000000535769     0.00000001198333     0.00000007610554     0.00000025978184
   41     0.00000000439872     0.00000002741320     0.00000000832563     0.00000007454701     0.00000064442433
   42     0.00000000002029     0.00000000017553     0.00000000006579     0.00000000030435     0.00000000090956
   43     0.00000000002488     0.00000000011392     0.00000000017598     0.00000000029845     0.00000000031479
   44     0.00000000004495     0.00000000010495     0.00000000038493     0.00000000058595     0.00000000360914
   45     0.00000000023459     0.00000000077966     0.00000000554880     0.00000000717727     0.00000001705824
   46     0.00000000183177     0.00000000992283     0.00000002591496     0.00000005769502     0.00000035499401
   47     0.00000000091603     0.00000001029168     0.00000001106297     0.00000002756295     0.00000011974628
   48     0.00000002305731     0.00000008548766     0.00000017801582     0.00000067258544     0.00000608949771
   49     0.00000013040236     0.00000101011495     0.00000348733293     0.00000741372912     0.00002844153627
   50     0.00000097390056     0.00001116628883     0.00000720350305     0.00003373537872     0.00007665402698
   51     0.00002080086741     0.00008462221988     0.00124565451997     0.00078720079726     0.00763379897678
   52     0.00000034389424     0.00000438383594     0.00000490604670     0.00000604280008     0.00009670525187
   53     0.00003447421766     0.00050720597344     0.00023538809824     0.00112064320862     0.00105685681671
   54     0.00004971667861     0.00021595240906     0.00079079676437     0.00934743288436     0.00345049655927
   55     0.00027328540060     0.00050838582713     0.00046701926841     0.00081386959623     0.00140954842052
   56     0.00054519380870     0.00039824891751     0.00138592983682     0.00883320389042     0.00171446128885
   57     0.00117535401209     0.00138559667006     0.00103843112102     0.00068345500917     0.00027701618582
   58     0.00069220761055     0.00137694439752     0.00810947934215     0.00143877583616     0.00068390238175
   59     0.03472985868489     0.00334661361604     0.00100719626067     0.00839504400285     0.00075018217330
   60     0.03775446186994     0.00114763878654     0.00067042944214     0.00067014122117     0.00022388021569
   61     0.00000000000000     0.00737241995849     0.00125729155128     0.00161703882927     0.00021702801774
   62     0.00737241995849     0.00000000000000     0.01762011270744     0.00983854847031     0.00611751529727
   63     0.00125729155128     0.01762011270744     0.00000000000000     0.02552315734886     0.00952187318389
   64     0.00161703882927     0.00983854847031     0.02552315734886     0.00000000000000     0.03192953624127
   65     0.00021702801774     0.00611751529727     0.00952187318389     0.03192953624127     0.00000000000000
   66     0.00000000015756     0.00000000024071     0.00000000044804     0.00000000288799     0.00000003149556
   67     0.00000000010819     0.00000000026716     0.00000000108480     0.00000000372677     0.00000002552005
   68     0.00000000009422     0.00000000014608     0.00000000025653     0.00000000130541     0.00000000378290

                66                  67                  68

    1     0.00000074891292     0.00000112774229     0.00000024639710
    2     0.00000192757898     0.00000287133420     0.00000072871680
    3     0.00001099899486     0.00001024536156     0.00000381643906
    4     0.00000848337533     0.00000873189084     0.00000829482637
    5     0.00000056453821     0.00000074708380     0.00000044932183
    6     0.00000038630727     0.00000135871808     0.00000016611661
    7     0.00004263951264     0.00004643064435     0.00001416771753
    8     0.00007325315914     0.00011212857753     0.00000593407269
    9     0.00004146897212     0.00004286253975     0.00000436717523
   10     0.00024102044895     0.00032900085950     0.00003356280435
   11     0.00074295386818     0.00097887740161     0.00023340286502
   12     0.00025592893257     0.00030157004546     0.00006188719244
   13     0.00896411440173     0.01039685193962     0.00200654467962
   14     0.01649088625825     0.01665509827807     0.00894676009290
   15     0.05836708249114     0.05825408351469     0.05942825812192
   16     0.01534860952715     0.01489951967624     0.02376015299078
   17     0.00127026618162     0.00125892562424     0.00189234307732
   18     0.00299840858582     0.00276242987560     0.00055250101294
   19     0.00120543270925     0.00125968441244     0.00108478219974
   20     0.00037560172933     0.00032741674893     0.00008351579764
   21     0.00021479239780     0.00019862221702     0.00003115011683
   22     0.00001128260366     0.00001318700799     0.00000622672135
   23     0.00001365828958     0.00001240160297     0.00000262580747
   24     0.00000137188883     0.00000140877802     0.00000031568793
   25     0.00000791514974     0.00000714231461     0.00000029208605
   26     0.00000139932503     0.00000157948870     0.00000028871845
   27     0.00001305332021     0.00001330555571     0.00000159166612
   28     0.00000041368828     0.00000037497385     0.00000003548164
   29     0.00000002625080     0.00000002695827     0.00000001369281
   30     0.00000001380285     0.00000001511367     0.00000000593618
   31     0.00000000423899     0.00000000425122     0.00000000122037
   32     0.00000000485334     0.00000000420935     0.00000000097860
   33     0.00000000113862     0.00000000090324     0.00000000026827
   34     0.00000000495841     0.00000000499534     0.00000000218539
   35     0.00000004697133     0.00000003758534     0.00000001010070
   36     0.00012439503319     0.00012227546164     0.00001684018925
   37     0.91935426760876     0.91866072832672     0.92016974129729
   38     0.00000008452435     0.00000009991501     0.00000003781763
   39     0.00000024479281     0.00000031668297     0.00000010277212
   40     0.00000731214776     0.00000779790993     0.00000850091326
   41     0.00000005069039     0.00000007299670     0.00000004282091
   42     0.00000324392052     0.00000446719062     0.00000045781396
   43     0.00000272496062     0.00000309528402     0.00000062697490
   44     0.00476978211124     0.00436756316227     0.00103958677663
   45     0.00127168688701     0.00120445178222     0.00763242112448
   46     0.00020579354077     0.00022015633437     0.00012755691593
   47     0.00018182786091     0.00018285882881     0.00034840007431
   48     0.00003783767997     0.00004289431149     0.00003853286195
   49     0.00000376185142     0.00000280170297     0.00000126351609
   50     0.00000005631621     0.00000009108307     0.00000004938686
   51     0.00000016595692     0.00000011009972     0.00000006893364
   52     0.00000096388824     0.00000082433381     0.00000052876094
   53     0.00000028253585     0.00000023255301     0.00000001081658
   54     0.00000031004509     0.00000030802884     0.00000001455902
   55     0.00000000657922     0.00000000775112     0.00000000086900
   56     0.00000000382054     0.00000000554109     0.00000000100869
   57     0.00000000012959     0.00000000023156     0.00000000005861
   58     0.00000000111664     0.00000000192908     0.00000000078121
   59     0.00000000095880     0.00000000063213     0.00000000010445
   60     0.00000000006627     0.00000000013114     0.00000000002021
   61     0.00000000015756     0.00000000010819     0.00000000009422
   62     0.00000000024071     0.00000000026716     0.00000000014608
   63     0.00000000044804     0.00000000108480     0.00000000025653
   64     0.00000000288799     0.00000000372677     0.00000000130541
   65     0.00000003149556     0.00000002552005     0.00000000378290
   66     0.00000000000000     0.03490597727187     0.03836642450744
   67     0.03490597727187     0.00000000000000     0.03848192593706
   68     0.03836642450744     0.03848192593706     0.00000000000000



  Atomic Valences: 

 #  #
 Irrep: 1
      1:  4.3917598
      2:  4.4225328
      3:  4.6020661
      4:  4.5824368
      5:  3.9163188
      6:  4.5443512
      7:  4.7422352
      8:  4.3683682
      9:  4.5240458
     10:  3.8635855
     11:  4.9996419
     12:  3.9612220
     13:  4.0351985
     14:  4.6651240
     15:  4.6250989
     16:  4.4377998
     17:  4.4028566
     18:  4.6674999
     19:  4.4259700
     20:  4.0756995
     21:  4.9939233
     22:  4.6044313
     23:  4.4480042
     24:  4.4320683
     25:  4.6479832
     26:  4.4421398
     27:  4.4220801
     28:  4.5010851
     29:  4.2969508
     30:  4.5745981
     31:  4.5785468
     32:  4.2501744
     33:  4.2766386
     34:  4.5595340
     35:  4.5872206
     36:  2.7626419
     37:  4.1507926
     38:  1.0980307
     39:  1.1013681
     40:  1.1153714
     41:  1.0913368
     42:  1.1093112
     43:  1.0860707
     44:  1.1756171
     45:  1.0999369
     46:  1.1071971
     47:  1.1358046
     48:  1.1866252
     49:  1.1169634
     50:  1.1018162
     51:  1.1118670
     52:  1.0972351
     53:  1.1196087
     54:  1.1290147
     55:  1.0393367
     56:  1.0552432
     57:  1.1429436
     58:  1.0365963
     59:  1.1335072
     60:  1.1030489
     61:  1.1070122
     62:  1.0487163
     63:  1.0408529
     64:  1.0498698
     65:  1.1979167
     66:  1.1059420
     67:  1.1061072
     68:  1.1043976


    Psi4 stopped on: Tuesday, 10 March 2020 11:20PM
    Psi4 wall time for execution: 0:21:30.22

*** Psi4 exiting successfully. Buy a developer a beer!
